<event>
 9    1  0.1464797E-005  0.1024573E+03  0.7546771E-02  0.1277873E+00
         21   -1    0    0  501  502  0.00000000000E+00  0.00000000000E+00  0.14054463917E+03  0.14054463917E+03  0.00000000000E+00 0. -1.
         -1   -1    0    0    0  501 -0.00000000000E+00 -0.00000000000E+00 -0.16015745176E+03  0.16015745176E+03  0.00000000000E+00 0.  1.
         23    2    1    2    0    0 -0.33585127812E+02 -0.26067736504E+01 -0.91849828335E+02  0.13233107926E+03  0.89108739721E+02 0.  0.
         23    2    1    2    0    0  0.66464421598E+02  0.97080979321E+01  0.67890680337E+02  0.13445394520E+03  0.94641177079E+02 0.  0.
        -11    1    3    3    0    0 -0.21776354666E+02 -0.28083225055E+02  0.77291980277E+00  0.35545387283E+02  0.00000000000E+00 0. -1.
         11    1    3    3    0    0 -0.11808773146E+02  0.25476451405E+02 -0.92622748138E+02  0.96785691980E+02  0.00000000000E+00 0.  1.
        -13    1    4    4    0    0  0.43118974908E+02 -0.34685569794E+02  0.63311775791E+02  0.84087547847E+02  0.00000000000E+00 0.  1.
         13    1    4    4    0    0  0.23345446690E+02  0.44393667726E+02  0.45789045458E+01  0.50366397351E+02  0.00000000000E+00 0. -1.
         -1    1    1    2    0  502 -0.32879293786E+02 -0.71013242817E+01  0.43463354011E+01  0.33917066469E+02  0.00000000000E+00 0.  1.
<scales pt_clust_5="13000.00000" pt_clust_6="13000.00000" pt_clust_7="13000.00000" pt_clust_8="13000.00000" pt_clust_9="33.63743"></scales>
<clustering>
<clus scale="   33.637">  1  9  2 -1</clus>
<clus scale="   89.109">  5  6 -1 -1</clus>
<clus scale="   94.641">  7  8 -1 -1</clus>
<clus scale="   97.370">  2  5  1 -1</clus>
<clus scale="   33.637">  1  5  2 -1</clus>
</clustering>
</event>
<event>
 9    1  0.1464797E-005  0.2682402E+03  0.7546771E-02  0.1103070E+00
         21   -1    0    0  501  502  0.00000000000E+00  0.00000000000E+00  0.56769305296E+03  0.56769305296E+03  0.00000000000E+00 0. -1.
         -1   -1    0    0    0  501 -0.00000000000E+00 -0.00000000000E+00 -0.16945125416E+03  0.16945125416E+03  0.00000000000E+00 0.  1.
         23    2    1    2    0    0 -0.23923552291E+03 -0.19407781835E+02  0.83640538438E+02  0.26868926744E+03  0.87108468873E+02 0.  0.
         23    2    1    2    0    0  0.25978080912E+03  0.84181643463E+01  0.18087633958E+03  0.33271545474E+03  0.10210969262E+03 0.  0.
        -11    1    4    4    0    0  0.17053228050E+03  0.53570054562E+02  0.10647281983E+03  0.20805641254E+03  0.00000000000E+00 0.  1.
         11    1    4    4    0    0  0.89248528621E+02 -0.45151890216E+02  0.74403519747E+02  0.12465904220E+03  0.00000000000E+00 0. -1.
        -13    1    3    3    0    0 -0.17675393720E+03 -0.51016294597E+02  0.72724157514E+02  0.19782168667E+03  0.00000000000E+00 0. -1.
         13    1    3    3    0    0 -0.62481585705E+02  0.31608512763E+02  0.10916380924E+02  0.70867580767E+02  0.00000000000E+00 0.  1.
         -1    1    1    2    0  502 -0.20545286212E+02  0.10989617488E+02  0.13372492079E+03  0.13573958493E+03  0.00000000000E+00 0.  1.
<scales pt_clust_5="13000.00000" pt_clust_6="13000.00000" pt_clust_7="13000.00000" pt_clust_8="13000.00000" pt_clust_9="23.29980"></scales>
<clustering>
<clus scale="   23.300">  1  9  2 -1</clus>
<clus scale="   87.108">  7  8 -1 -1</clus>
<clus scale="  102.110">  5  6 -1 -1</clus>
<clus scale="  262.896">  2  7  1 -1</clus>
<clus scale="   23.300">  1  5  2 -1</clus>
</clustering>
</event>
<event>
 9    1  0.1464797E-005  0.1538906E+03  0.7546771E-02  0.1195830E+00
         -1   -1    0    0    0  501 -0.00000000000E+00  0.00000000000E+00  0.19919449447E+03  0.19919449447E+03  0.00000000000E+00 0.  1.
         21   -1    0    0  501  502  0.00000000000E+00 -0.00000000000E+00 -0.30508285469E+03  0.30508285469E+03  0.00000000000E+00 0.  1.
         23    2    1    2    0    0 -0.70213102352E+02 -0.97910815985E+02  0.10313753428E+03  0.18278069424E+03  0.90857160307E+02 0.  0.
         23    2    1    2    0    0  0.92305730793E+02  0.10020347181E+03 -0.65399167866E+02  0.17616263583E+03  0.90527009258E+02 0.  0.
        -11    1    4    4    0    0  0.46354636414E+01  0.65401418253E+02 -0.87844431940E+01  0.66151337665E+02  0.00000000000E+00 0.  1.
         11    1    4    4    0    0  0.87670267152E+02  0.34802053555E+02 -0.56614724672E+02  0.11001129816E+03  0.00000000000E+00 0. -1.
        -11    1    3    3    0    0 -0.87392928583E+02 -0.51609838988E+02  0.67901389801E+02  0.12211346438E+03  0.00000000000E+00 0.  1.
         11    1    3    3    0    0  0.17179826231E+02 -0.46300976997E+02  0.35236144480E+02  0.60667229853E+02  0.00000000000E+00 0. -1.
         -1    1    1    2    0  502 -0.22092628442E+02 -0.22926558226E+01 -0.14362672664E+03  0.14533401910E+03  0.00000000000E+00 0.  1.
<scales pt_clust_5="13000.00000" pt_clust_6="13000.00000" pt_clust_7="13000.00000" pt_clust_8="13000.00000" pt_clust_9="22.21127"></scales>
<clustering>
<clus scale="   22.211">  2  9  1 -1</clus>
<clus scale="   90.527">  5  6 -1 -1</clus>
<clus scale="   90.857">  7  8 -1 -1</clus>
<clus scale="  153.696">  2  5  1 -1</clus>
<clus scale="   22.211">  2  5  1 -1</clus>
</clustering>
</event>
<event>
 9    1  0.1464797E-005  0.1179378E+03  0.7546771E-02  0.1250318E+00
         21   -1    0    0  501  502  0.00000000000E+00  0.00000000000E+00  0.73519539281E+02  0.73519539281E+02  0.00000000000E+00 0.  1.
          2   -1    0    0  502    0 -0.00000000000E+00 -0.00000000000E+00 -0.38458865894E+03  0.38458865894E+03  0.00000000000E+00 0. -1.
         23    2    1    2    0    0  0.14537157217E+02  0.73779159120E+02 -0.30772196570E+03  0.33065403404E+03  0.94787070808E+02 0.  0.
         23    2    1    2    0    0 -0.12817018616E+02 -0.50493684339E+02 -0.17354783663E+02  0.10022576168E+03  0.83845850607E+02 0.  0.
        -11    1    3    3    0    0 -0.15008287139E+02  0.53317744148E+02 -0.27956302235E+03  0.28499739295E+03  0.00000000000E+00 0. -1.
         11    1    3    3    0    0  0.29545444357E+02  0.20461414972E+02 -0.28158943351E+02  0.45656641089E+02  0.00000000000E+00 0.  1.
        -11    1    4    4    0    0  0.32589021698E+02 -0.40286340271E+02 -0.48980348012E+01  0.52048288084E+02  0.00000000000E+00 0.  1.
         11    1    4    4    0    0 -0.45406040313E+02 -0.10207344068E+02 -0.12456748862E+02  0.48177473596E+02  0.00000000000E+00 0. -1.
          2    1    1    2  501    0 -0.17201386018E+01 -0.23285474781E+02  0.14007629707E+02  0.27228402498E+02  0.00000000000E+00 0. -1.
<scales pt_clust_5="13000.00000" pt_clust_6="13000.00000" pt_clust_7="13000.00000" pt_clust_8="13000.00000" pt_clust_9="23.34892"></scales>
<clustering>
<clus scale="   23.349">  1  9  2 -1</clus>
<clus scale="   83.846">  7  8 -1 -1</clus>
<clus scale="   94.787">  5  6 -1 -1</clus>
<clus scale="  109.338">  1  7  2 -1</clus>
<clus scale="   23.349">  1  5  2 -1</clus>
</clustering>
</event>
<event>
 9    1  0.1464797E-005  0.1154408E+03  0.7546771E-02  0.1250967E+00
         21   -1    0    0  501  502  0.00000000000E+00  0.00000000000E+00  0.78793412723E+02  0.78793412723E+02  0.00000000000E+00 0. -1.
         -1   -1    0    0    0  501 -0.00000000000E+00 -0.00000000000E+00 -0.35780279215E+03  0.35780279215E+03  0.00000000000E+00 0.  1.
         23    2    1    2    0    0 -0.63139242080E+02  0.16672834339E+02 -0.23254921627E+03  0.25798687755E+03  0.90628603118E+02 0.  0.
         23    2    1    2    0    0  0.79150214110E+02 -0.51454069205E+02 -0.49486879909E+02  0.14020038906E+03  0.91076452380E+02 0.  0.
        -11    1    3    3    0    0 -0.69104823936E+02  0.38144938708E+02 -0.21673325942E+03  0.23065953000E+03  0.00000000000E+00 0.  1.
         11    1    3    3    0    0  0.59655818564E+01 -0.21472104370E+02 -0.15815956851E+02  0.27327347549E+02  0.00000000000E+00 0. -1.
        -13    1    4    4    0    0  0.88682198422E+02 -0.18631118441E+02 -0.54365046495E+02  0.10567501678E+03  0.00000000000E+00 0. -1.
         13    1    4    4    0    0 -0.95319843116E+01 -0.32822950764E+02  0.48781665860E+01  0.34525372280E+02  0.00000000000E+00 0.  1.
         -1    1    1    2    0  502 -0.16010972031E+02  0.34781234866E+02  0.30267167549E+01  0.38408938263E+02  0.00000000000E+00 0.  1.
<scales pt_clust_5="13000.00000" pt_clust_6="13000.00000" pt_clust_7="13000.00000" pt_clust_8="13000.00000" pt_clust_9="38.28950"></scales>
<clustering>
<clus scale="   38.289">  1  9  2 -1</clus>
<clus scale="   90.629">  5  6 -1 -1</clus>
<clus scale="   91.076">  7  8 -1 -1</clus>
<clus scale="  115.088">  2  5  1 -1</clus>
<clus scale="   38.289">  1  5  2 -1</clus>
</clustering>
</event>
<event>
 9    1  0.1464797E-005  0.1395523E+03  0.7546771E-02  0.1213956E+00
          2   -1    0    0  502    0 -0.00000000000E+00  0.00000000000E+00  0.53377233834E+03  0.53377233834E+03  0.00000000000E+00 0. -1.
         21   -1    0    0  501  502  0.00000000000E+00 -0.00000000000E+00 -0.81034005155E+02  0.81034005155E+02  0.00000000000E+00 0. -1.
         23    2    1    2    0    0  0.44089569025E+02 -0.89404022698E+02  0.35639410502E+03  0.38117888751E+03  0.91343400523E+02 0.  0.
         23    2    1    2    0    0 -0.46224087946E+02  0.11340073715E+03  0.12409965206E+03  0.19687474137E+03  0.91446960884E+02 0.  0.
        -11    1    4    4    0    0  0.20866116529E+02  0.36557149745E+01  0.33151268218E+02  0.39341652932E+02  0.00000000000E+00 0.  1.
         11    1    4    4    0    0 -0.67090204475E+02  0.10974502218E+03  0.90948383844E+02  0.15753308844E+03  0.00000000000E+00 0. -1.
        -11    1    3    3    0    0  0.28796910468E+02 -0.10541621962E+03  0.25558444421E+03  0.27796627409E+03  0.00000000000E+00 0. -1.
         11    1    3    3    0    0  0.15292658556E+02  0.16012196918E+02  0.10080966082E+03  0.10321261342E+03  0.00000000000E+00 0.  1.
          2    1    1    2  501    0  0.21345189219E+01 -0.23996714456E+02 -0.27755423897E+02  0.36752714613E+02  0.00000000000E+00 0. -1.
<scales pt_clust_5="13000.00000" pt_clust_6="13000.00000" pt_clust_7="13000.00000" pt_clust_8="13000.00000" pt_clust_9="24.09146"></scales>
<clustering>
<clus scale="   24.091">  2  9  1 -1</clus>
<clus scale="   91.343">  7  8 -1 -1</clus>
<clus scale="   91.447">  5  6 -1 -1</clus>
<clus scale="  139.485">  1  7  2 -1</clus>
<clus scale="   24.091">  2  5  1 -1</clus>
</clustering>
</event>
<event>
 9    1  0.1464797E-005  0.1337818E+03  0.7546771E-02  0.1223959E+00
         21   -1    0    0  501  502  0.00000000000E+00  0.00000000000E+00  0.91382218784E+02  0.91382218784E+02  0.00000000000E+00 0.  1.
         -1   -1    0    0    0  501 -0.00000000000E+00 -0.00000000000E+00 -0.79738746151E+03  0.79738746151E+03  0.00000000000E+00 0.  1.
         23    2    1    2    0    0  0.47079668738E+02 -0.65008522367E+02 -0.38690169979E+03  0.40525816877E+03  0.89992526722E+02 0.  0.
         23    2    1    2    0    0 -0.80671304107E+02  0.73336873907E+02 -0.38345528560E+03  0.41044369241E+03  0.97672474137E+02 0.  0.
        -11    1    3    3    0    0  0.70090865726E+02 -0.27237363719E+02 -0.26976679822E+03  0.28005129684E+03  0.00000000000E+00 0.  1.
         11    1    3    3    0    0 -0.23011196988E+02 -0.37771158648E+02 -0.11713490157E+03  0.12520687192E+03  0.00000000000E+00 0. -1.
        -11    1    4    4    0    0 -0.93161696070E+02  0.31518057179E+02 -0.30746951799E+03  0.32281572768E+03  0.00000000000E+00 0.  1.
         11    1    4    4    0    0  0.12490391963E+02  0.41818816728E+02 -0.75985767608E+02  0.87627964731E+02  0.00000000000E+00 0. -1.
         -1    1    1    2    0  502  0.33591635369E+02 -0.83283515403E+01  0.64351742664E+02  0.73067819114E+02  0.00000000000E+00 0.  1.
<scales pt_clust_5="13000.00000" pt_clust_6="13000.00000" pt_clust_7="13000.00000" pt_clust_8="13000.00000" pt_clust_9="34.60866"></scales>
<clustering>
<clus scale="   34.609">  1  9  2 -1</clus>
<clus scale="   89.993">  5  6 -1 -1</clus>
<clus scale="   97.672">  7  8 -1 -1</clus>
<clus scale="  128.282">  2  5  1 -1</clus>
<clus scale="   34.609">  1  5  2 -1</clus>
</clustering>
</event>
<event>
 9    1  0.1464797E-005  0.9991754E+02  0.7546771E-02  0.1280556E+00
          2   -1    0    0  502    0 -0.00000000000E+00  0.00000000000E+00  0.32410578810E+03  0.32410578810E+03  0.00000000000E+00 0. -1.
         21   -1    0    0  501  502  0.00000000000E+00 -0.00000000000E+00 -0.16678290966E+03  0.16678290966E+03  0.00000000000E+00 0. -1.
         23    2    1    2    0    0 -0.42070575562E+02  0.12706953553E+02  0.28894717301E+03  0.30598602758E+03  0.90584658145E+02 0.  0.
         23    2    1    2    0    0  0.59851507271E+01 -0.14971162799E+02 -0.10659080313E+03  0.14092585558E+03  0.90766401895E+02 0.  0.
        -11    1    3    3    0    0 -0.19665951922E+02  0.42879921772E+02  0.73856750839E+02  0.87637075491E+02  0.00000000000E+00 0.  1.
         11    1    3    3    0    0 -0.22404623640E+02 -0.30172968219E+02  0.21509042217E+03  0.21834895209E+03  0.00000000000E+00 0. -1.
        -13    1    4    4    0    0 -0.20560754805E+02 -0.42915460986E+02 -0.83179976652E+02  0.95830005456E+02  0.00000000000E+00 0.  1.
         13    1    4    4    0    0  0.26545905533E+02  0.27944298187E+02 -0.23410826483E+02  0.45095850123E+02  0.00000000000E+00 0. -1.
          2    1    1    2  501    0  0.36085424835E+02  0.22642092464E+01 -0.25033491433E+02  0.43976814600E+02  0.00000000000E+00 0. -1.
<scales pt_clust_5="13000.00000" pt_clust_6="13000.00000" pt_clust_7="13000.00000" pt_clust_8="13000.00000" pt_clust_9="36.15639"></scales>
<clustering>
<clus scale="   36.156">  2  9  1 -1</clus>
<clus scale="   90.585">  5  6 -1 -1</clus>
<clus scale="   90.766">  7  8 -1 -1</clus>
<clus scale="   99.752">  1  5  2 -1</clus>
<clus scale="   36.156">  2  5  1 -1</clus>
</clustering>
</event>
<event>
 9    1  0.1735542E-005  0.1464315E+03  0.7546771E-02  0.1205111E+00
         -3   -1    0    0    0  501 -0.00000000000E+00  0.00000000000E+00  0.39876234799E+03  0.39876234799E+03  0.00000000000E+00 0.  1.
         21   -1    0    0  501  502  0.00000000000E+00 -0.00000000000E+00 -0.17799454583E+03  0.17799454583E+03  0.00000000000E+00 0. -1.
         23    2    1    2    0    0 -0.11042075829E+03  0.16398216310E+02  0.32505314080E+03  0.35563051504E+03  0.91388585300E+02 0.  0.
         23    2    1    2    0    0  0.13597904617E+03 -0.29102057559E+02 -0.82848948105E+02  0.18543138612E+03  0.90463362771E+02 0.  0.
        -11    1    3    3    0    0 -0.68778609368E+02 -0.20995664916E+02  0.26025931197E+03  0.27001152664E+03  0.00000000000E+00 0.  1.
         11    1    3    3    0    0 -0.41642148919E+02  0.37393881226E+02  0.64793828834E+02  0.85618988401E+02  0.00000000000E+00 0. -1.
        -13    1    4    4    0    0  0.79378060322E+02 -0.23857090938E+02 -0.96259638914E+02  0.12702738025E+03  0.00000000000E+00 0. -1.
         13    1    4    4    0    0  0.56600985847E+02 -0.52449666208E+01  0.13410690809E+02  0.58404005870E+02  0.00000000000E+00 0.  1.
         -3    1    1    2    0  502 -0.25558287882E+02  0.12703841249E+02 -0.21436390536E+02  0.35694992662E+02  0.00000000000E+00 0.  1.
<scales pt_clust_5="13000.00000" pt_clust_6="13000.00000" pt_clust_7="13000.00000" pt_clust_8="13000.00000" pt_clust_9="28.54144"></scales>
<clustering>
<clus scale="   28.541">  2  9  1 -1</clus>
<clus scale="   90.463">  7  8 -1 -1</clus>
<clus scale="   91.389">  5  6 -1 -1</clus>
<clus scale="  145.856">  2  7  1 -1</clus>
<clus scale="   28.541">  2  5  1 -1</clus>
</clustering>
</event>
<event>
 9    1  0.1464797E-005  0.1022355E+03  0.7546771E-02  0.1286490E+00
         -4   -1    0    0    0  501 -0.00000000000E+00  0.00000000000E+00  0.12289242079E+03  0.12289242079E+03  0.00000000000E+00 0.  1.
         21   -1    0    0  501  502  0.00000000000E+00 -0.00000000000E+00 -0.18009926872E+03  0.18009926872E+03  0.00000000000E+00 0.  1.
         23    2    1    2    0    0 -0.20810028305E+02  0.51196697098E+02  0.69279267152E+02  0.12749536220E+03  0.91658559082E+02 0.  0.
         23    2    1    2    0    0  0.16337972464E+02 -0.35096973924E+01 -0.90843484116E+02  0.11579334274E+03  0.69830597134E+02 0.  0.
        -13    1    4    4    0    0  0.11951591332E+02 -0.35831164828E+02 -0.37219646657E+02  0.53028435821E+02  0.00000000000E+00 0. -1.
         13    1    4    4    0    0  0.43863811317E+01  0.32321467435E+02 -0.53623837458E+02  0.62764906917E+02  0.00000000000E+00 0.  1.
        -13    1    3    3    0    0 -0.36598794510E+02  0.65229011793E+02  0.74677694572E+02  0.10569320605E+03  0.00000000000E+00 0.  1.
         13    1    3    3    0    0  0.15788766205E+02 -0.14032314694E+02 -0.53984274198E+01  0.21802156145E+02  0.00000000000E+00 0. -1.
         -4    1    1    2    0  502  0.44720558411E+01 -0.47686999706E+02 -0.35642630963E+02  0.59702984568E+02  0.00000000000E+00 0.  1.
<scales pt_clust_5="13000.00000" pt_clust_6="13000.00000" pt_clust_7="13000.00000" pt_clust_8="13000.00000" pt_clust_9="47.89623"></scales>
<clustering>
<clus scale="   47.896">  2  9  1 -1</clus>
<clus scale="   69.831">  5  6 -1 -1</clus>
<clus scale="   83.229">  2  5  1 -1</clus>
<clus scale="   91.659">  7  8 -1 -1</clus>
<clus scale="   47.896">  2  5  1 -1</clus>
</clustering>
</event>
<event>
 9    1  0.1464797E-005  0.1120243E+03  0.7546771E-02  0.1257427E+00
         21   -1    0    0  501  502  0.00000000000E+00  0.00000000000E+00  0.32997637184E+02  0.32997637184E+02  0.00000000000E+00 0. -1.
          1   -1    0    0  502    0 -0.00000000000E+00 -0.00000000000E+00 -0.55726103983E+03  0.55726103983E+03  0.00000000000E+00 0. -1.
         23    2    1    2    0    0  0.22793986285E+01 -0.55505852738E+02 -0.28877052163E+03  0.30790825179E+03  0.91285168636E+02 0.  0.
         23    2    1    2    0    0  0.24955398977E+02  0.75074554476E+02 -0.19172170085E+03  0.22720892995E+03  0.92777834647E+02 0.  0.
        -11    1    4    4    0    0  0.39871956079E+02 -0.20573846842E+01 -0.40917998539E+02  0.57168945396E+02  0.00000000000E+00 0.  1.
         11    1    4    4    0    0 -0.14916557101E+02  0.77131939160E+02 -0.15080370231E+03  0.17003998455E+03  0.00000000000E+00 0. -1.
        -13    1    3    3    0    0 -0.25348646479E+02 -0.57585539716E+01 -0.18991246604E+02  0.32192891602E+02  0.00000000000E+00 0.  1.
         13    1    3    3    0    0  0.27628045107E+02 -0.49747298766E+02 -0.26977927502E+03  0.27571536019E+03  0.00000000000E+00 0. -1.
          1    1    1    2  501    0 -0.27234797606E+02 -0.19568701738E+02 -0.43771180163E+02  0.55141495275E+02  0.00000000000E+00 0. -1.
<scales pt_clust_5="13000.00000" pt_clust_6="13000.00000" pt_clust_7="13000.00000" pt_clust_8="13000.00000" pt_clust_9="33.53607"></scales>
<clustering>
<clus scale="   33.536">  1  9  2 -1</clus>
<clus scale="   91.285">  7  8 -1 -1</clus>
<clus scale="   92.778">  5  6 -1 -1</clus>
<clus scale="  110.791">  2  7  1 -1</clus>
<clus scale="   33.536">  1  5  2 -1</clus>
</clustering>
</event>
<event>
 9    1  0.1464797E-005  0.9728941E+02  0.7546771E-02  0.1287319E+00
          1   -1    0    0  502    0 -0.00000000000E+00  0.00000000000E+00  0.30544736590E+03  0.30544736590E+03  0.00000000000E+00 0. -1.
         21   -1    0    0  501  502  0.00000000000E+00 -0.00000000000E+00 -0.86235931116E+02  0.86235931116E+02  0.00000000000E+00 0. -1.
         23    2    1    2    0    0 -0.59972084604E+02 -0.10139715884E+02  0.16297494499E+03  0.19594388186E+03  0.90187068775E+02 0.  0.
         23    2    1    2    0    0 -0.10091087520E+02 -0.64841347616E+01  0.76823992858E+02  0.12084585213E+03  0.92509026847E+02 0.  0.
        -11    1    3    3    0    0  0.12367801858E+02 -0.23922188914E+02  0.15417574659E+02  0.31031198069E+02  0.00000000000E+00 0.  1.
         11    1    3    3    0    0 -0.72339886462E+02  0.13782473031E+02  0.14755737034E+03  0.16491268380E+03  0.00000000000E+00 0. -1.
        -13    1    4    4    0    0 -0.27241485314E+02 -0.43874984768E+02  0.48940713023E+02  0.71149885465E+02  0.00000000000E+00 0. -1.
         13    1    4    4    0    0  0.17150397794E+02  0.37390850006E+02  0.27883279835E+02  0.49695966668E+02  0.00000000000E+00 0.  1.
          1    1    1    2  501    0  0.70063172124E+02  0.16623850645E+02 -0.20587503072E+02  0.74893563015E+02  0.00000000000E+00 0. -1.
<scales pt_clust_5="13000.00000" pt_clust_6="13000.00000" pt_clust_7="13000.00000" pt_clust_8="13000.00000" pt_clust_9="72.00834"></scales>
<clustering>
<clus scale="   72.008">  2  9  1 -1</clus>
<clus scale="   90.187">  5  6 -1 -1</clus>
<clus scale="   92.509">  7  8 -1 -1</clus>
<clus scale="   95.084">  1  5  2 -1</clus>
<clus scale="   72.008">  2  5  1 -1</clus>
</clustering>
</event>
<event>
 9    1  0.1464797E-005  0.1372461E+03  0.7546771E-02  0.1218244E+00
          1   -1    0    0  502    0 -0.00000000000E+00  0.00000000000E+00  0.40671015728E+03  0.40671015728E+03  0.00000000000E+00 0. -1.
         21   -1    0    0  501  502  0.00000000000E+00 -0.00000000000E+00 -0.34486984666E+03  0.34486984666E+03  0.00000000000E+00 0.  1.
         23    2    1    2    0    0  0.95882295801E+02 -0.10024511461E+02  0.35786169901E+03  0.38167610466E+03  0.91201687324E+02 0.  0.
         23    2    1    2    0    0 -0.13931382859E+03 -0.11871084517E+02 -0.25511488315E+03  0.30635032083E+03  0.96008593304E+02 0.  0.
        -11    1    4    4    0    0 -0.95222611952E+02 -0.46772565311E+02 -0.20589188706E+03  0.23161711476E+03  0.00000000000E+00 0.  1.
         11    1    4    4    0    0 -0.44091216636E+02  0.34901480794E+02 -0.49222996082E+02  0.74733206069E+02  0.00000000000E+00 0. -1.
        -11    1    3    3    0    0  0.24303474343E+01  0.29092162660E+02  0.54220072221E+02  0.61579840440E+02  0.00000000000E+00 0.  1.
         11    1    3    3    0    0  0.93451948367E+02 -0.39116674121E+02  0.30364162679E+03  0.32009626422E+03  0.00000000000E+00 0. -1.
          1    1    1    2  501    0  0.43431532787E+02  0.21895595977E+02 -0.40906505235E+02  0.63553578451E+02  0.00000000000E+00 0. -1.
<scales pt_clust_5="13000.00000" pt_clust_6="13000.00000" pt_clust_7="13000.00000" pt_clust_8="13000.00000" pt_clust_9="48.63862"></scales>
<clustering>
<clus scale="   48.639">  2  9  1 -1</clus>
<clus scale="   91.202">  7  8 -1 -1</clus>
<clus scale="   96.009">  5  6 -1 -1</clus>
<clus scale="  133.928">  1  7  2 -1</clus>
<clus scale="   48.639">  2  5  1 -1</clus>
</clustering>
</event>
<event>
 9    1  0.1464797E-005  0.1404360E+03  0.7546771E-02  0.1212947E+00
         21   -1    0    0  501  502  0.00000000000E+00  0.00000000000E+00  0.11297665633E+03  0.11297665633E+03  0.00000000000E+00 0. -1.
          2   -1    0    0  502    0 -0.00000000000E+00 -0.00000000000E+00 -0.60021949968E+03  0.60021949968E+03  0.00000000000E+00 0. -1.
         23    2    1    2    0    0  0.91661741600E+02  0.30829673761E+02 -0.31178282293E+03  0.33873384672E+03  0.90441951458E+02 0.  0.
         23    2    1    2    0    0 -0.12514078060E+03 -0.13198568659E+03 -0.49494519475E+02  0.20947536310E+03  0.91377151703E+02 0.  0.
        -11    1    4    4    0    0 -0.73509601780E+02 -0.17677390756E+02 -0.34666414091E+02  0.83173986100E+02  0.00000000000E+00 0.  1.
         11    1    4    4    0    0 -0.51631178824E+02 -0.11430829583E+03 -0.14828105383E+02  0.12630137700E+03  0.00000000000E+00 0. -1.
        -13    1    3    3    0    0  0.96613380047E+01 -0.27125594294E+02 -0.10474044969E+03  0.10862642920E+03  0.00000000000E+00 0.  1.
         13    1    3    3    0    0  0.82000403596E+02  0.57955268055E+02 -0.20704237324E+03  0.23010741753E+03  0.00000000000E+00 0. -1.
          2    1    1    2  501    0  0.33479039004E+02  0.10115601283E+03 -0.12596550094E+03  0.16498694618E+03  0.00000000000E+00 0. -1.
<scales pt_clust_5="13000.00000" pt_clust_6="13000.00000" pt_clust_7="13000.00000" pt_clust_8="13000.00000" pt_clust_9="106.55232"></scales>
<clustering>
<clus scale="   90.442">  7  8 -1 -1</clus>
<clus scale="   91.377">  5  6 -1 -1</clus>
<clus scale="  106.552">  1  9  2 -1</clus>
<clus scale="  139.829">  2  7  1 -1</clus>
<clus scale="  106.552">  1  5  2 -1</clus>
</clustering>
</event>
<event>
 9    1  0.1464797E-005  0.1062507E+03  0.7546771E-02  0.1268483E+00
         -3   -1    0    0    0  501 -0.00000000000E+00  0.00000000000E+00  0.25571272681E+03  0.25571272681E+03  0.00000000000E+00 0.  1.
         21   -1    0    0  501  502  0.00000000000E+00 -0.00000000000E+00 -0.59956923419E+02  0.59956923419E+02  0.00000000000E+00 0. -1.
         23    2    1    2    0    0 -0.51911483517E+02  0.10076406466E+02  0.10516914906E+03  0.14787545692E+03  0.89500082434E+02 0.  0.
         23    2    1    2    0    0  0.46291459420E+02 -0.38970579134E+02  0.58568356759E+02  0.12430132879E+03  0.91427362821E+02 0.  0.
        -11    1    3    3    0    0 -0.32042061440E+02  0.36298530785E+02  0.10427038508E+03  0.11496343002E+03  0.00000000000E+00 0.  1.
         11    1    3    3    0    0 -0.19869422078E+02 -0.26222124319E+02  0.89876398392E+00  0.32912026893E+02  0.00000000000E+00 0. -1.
        -11    1    4    4    0    0 -0.25970888547E+02 -0.46253766512E+01  0.22841492943E+01  0.26478264654E+02  0.00000000000E+00 0.  1.
         11    1    4    4    0    0  0.72262347967E+02 -0.34345202483E+02  0.56284207465E+02  0.97823064137E+02  0.00000000000E+00 0. -1.
         -3    1    1    2    0  502  0.56200240977E+01  0.28894172668E+02  0.32018297571E+02  0.43492864523E+02  0.00000000000E+00 0.  1.
<scales pt_clust_5="13000.00000" pt_clust_6="13000.00000" pt_clust_7="13000.00000" pt_clust_8="13000.00000" pt_clust_9="29.43567"></scales>
<clustering>
<clus scale="   29.436">  2  9  1 -1</clus>
<clus scale="   89.500">  5  6 -1 -1</clus>
<clus scale="   91.427">  7  8 -1 -1</clus>
<clus scale="  104.597">  1  5  2 -1</clus>
<clus scale="   29.436">  2  5  1 -1</clus>
</clustering>
</event>
<event>
 9    1  0.1464797E-005  0.9709383E+02  0.7546771E-02  0.1287401E+00
          2   -1    0    0  502    0 -0.00000000000E+00  0.00000000000E+00  0.16708448024E+03  0.16708448024E+03  0.00000000000E+00 0. -1.
         21   -1    0    0  501  502  0.00000000000E+00 -0.00000000000E+00 -0.35405151346E+03  0.35405151346E+03  0.00000000000E+00 0. -1.
         23    2    1    2    0    0  0.15620329389E+02 -0.30426035822E+02  0.11156284032E+03  0.14858666249E+03  0.91989078613E+02 0.  0.
         23    2    1    2    0    0  0.70780332468E+02 -0.13869989822E+02 -0.11172667601E+03  0.16201988704E+03  0.92549238684E+02 0.  0.
        -11    1    3    3    0    0 -0.30493177524E+02  0.93703128904E+01  0.63257697488E+02  0.70846121494E+02  0.00000000000E+00 0.  1.
         11    1    3    3    0    0  0.46113506914E+02 -0.39796348712E+02  0.48305142834E+02  0.77740541000E+02  0.00000000000E+00 0. -1.
        -13    1    4    4    0    0  0.90096338084E+02  0.47997430614E+01 -0.81539835963E+02  0.12161057733E+03  0.00000000000E+00 0. -1.
         13    1    4    4    0    0 -0.19316005616E+02 -0.18669732883E+02 -0.30186840050E+02  0.40409309708E+02  0.00000000000E+00 0.  1.
          2    1    1    2  501    0 -0.86400661857E+02  0.44296025644E+02 -0.18680319753E+03  0.21052944417E+03  0.00000000000E+00 0. -1.
<scales pt_clust_5="13000.00000" pt_clust_6="13000.00000" pt_clust_7="13000.00000" pt_clust_8="13000.00000" pt_clust_9="97.09383"></scales>
<clustering>
<clus scale="   91.989">  5  6 -1 -1</clus>
<clus scale="   92.549">  7  8 -1 -1</clus>
<clus scale="   97.094">  2  9  1 -1</clus>
<clus scale="   95.514">  1  5  2 -1</clus>
<clus scale="   97.094">  2  5  1 -1</clus>
</clustering>
</event>
<event>
 9    1  0.1464797E-005  0.1970814E+03  0.7546771E-02  0.1152267E+00
         21   -1    0    0  501  502  0.00000000000E+00  0.00000000000E+00  0.65137622330E+02  0.65137622330E+02  0.00000000000E+00 0.  1.
         -3   -1    0    0    0  501 -0.00000000000E+00 -0.00000000000E+00 -0.12954697827E+04  0.12954697827E+04  0.00000000000E+00 0.  1.
         23    2    1    2    0    0  0.17664327967E+03 -0.79100599065E+02 -0.82921392651E+03  0.85624022215E+03  0.89954594518E+02 0.  0.
         23    2    1    2    0    0 -0.13498768065E+03  0.68055252093E+02 -0.42140809223E+03  0.45673455781E+03  0.90379670468E+02 0.  0.
        -11    1    3    3    0    0  0.53123413767E+02 -0.91097238495E+01 -0.10269746038E+03  0.11598212159E+03  0.00000000000E+00 0. -1.
         11    1    3    3    0    0  0.12351986591E+03 -0.69990875216E+02 -0.72651646613E+03  0.74025810056E+03  0.00000000000E+00 0.  1.
        -13    1    4    4    0    0 -0.97127414482E+02  0.88758367703E+02 -0.29075022093E+03  0.31913550954E+03  0.00000000000E+00 0.  1.
         13    1    4    4    0    0 -0.37860266165E+02 -0.20703115610E+02 -0.13065787130E+03  0.13759904826E+03  0.00000000000E+00 0. -1.
         -3    1    1    2    0  502 -0.41655599027E+02  0.11045346972E+02  0.20289858363E+02  0.47632625084E+02  0.00000000000E+00 0.  1.
<scales pt_clust_5="13000.00000" pt_clust_6="13000.00000" pt_clust_7="13000.00000" pt_clust_8="13000.00000" pt_clust_9="43.09511"></scales>
<clustering>
<clus scale="   43.095">  1  9  2 -1</clus>
<clus scale="   89.955">  5  6 -1 -1</clus>
<clus scale="   90.380">  7  8 -1 -1</clus>
<clus scale="  196.887">  2  5  1 -1</clus>
<clus scale="   43.095">  1  5  2 -1</clus>
</clustering>
</event>
<event>
 9    1  0.1464797E-005  0.9741316E+02  0.7546771E-02  0.1287044E+00
         21   -1    0    0  501  502  0.00000000000E+00  0.00000000000E+00  0.47817009514E+02  0.47817009514E+02  0.00000000000E+00 0.  1.
          1   -1    0    0  502    0 -0.00000000000E+00 -0.00000000000E+00 -0.28412716953E+03  0.28412716953E+03  0.00000000000E+00 0. -1.
         23    2    1    2    0    0 -0.32713569220E+01 -0.29478855063E+02 -0.17152119230E+03  0.19704118291E+03  0.92336361647E+02 0.  0.
         23    2    1    2    0    0  0.75192937256E+01  0.92013418144E+01 -0.62623596998E+02  0.11407245747E+03  0.94602358237E+02 0.  0.
        -11    1    3    3    0    0 -0.45991851121E+02 -0.67126275758E+01 -0.10445869822E+03  0.11433253856E+03  0.00000000000E+00 0. -1.
         11    1    3    3    0    0  0.42720494199E+02 -0.22766227487E+02 -0.67062494077E+02  0.82708644351E+02  0.00000000000E+00 0.  1.
        -13    1    4    4    0    0  0.22684032562E+02 -0.27387334193E+02 -0.65321075430E+02  0.74373881860E+02  0.00000000000E+00 0.  1.
         13    1    4    4    0    0 -0.15164738837E+02  0.36588676008E+02  0.26974784319E+01  0.39698575615E+02  0.00000000000E+00 0. -1.
          1    1    1    2  501    0 -0.42479368036E+01  0.20277513248E+02 -0.21653707191E+01  0.20830538662E+02  0.00000000000E+00 0. -1.
<scales pt_clust_5="13000.00000" pt_clust_6="13000.00000" pt_clust_7="13000.00000" pt_clust_8="13000.00000" pt_clust_9="20.71769"></scales>
<clustering>
<clus scale="   20.718">  1  9  2 -1</clus>
<clus scale="   92.336">  5  6 -1 -1</clus>
<clus scale="   94.602">  7  8 -1 -1</clus>
<clus scale="   95.214">  2  5  1 -1</clus>
<clus scale="   20.718">  1  5  2 -1</clus>
</clustering>
</event>
<event>
 9    1  0.1464797E-005  0.1342281E+03  0.7546771E-02  0.1221622E+00
          2   -1    0    0  502    0 -0.00000000000E+00  0.00000000000E+00  0.69045103250E+03  0.69045103250E+03  0.00000000000E+00 0. -1.
         21   -1    0    0  501  502  0.00000000000E+00 -0.00000000000E+00 -0.40220946817E+02  0.40220946817E+02  0.00000000000E+00 0.  1.
         23    2    1    2    0    0  0.20358169593E+01  0.10490001365E+03  0.29707573847E+03  0.32796199404E+03  0.91087418092E+02 0.  0.
         23    2    1    2    0    0  0.52173281813E+02 -0.83090854515E+02  0.25747722144E+03  0.29060120682E+03  0.92349338935E+02 0.  0.
        -11    1    3    3    0    0 -0.42442660351E+02  0.71724713909E+02  0.18476841841E+03  0.20269480123E+03  0.00000000000E+00 0. -1.
         11    1    3    3    0    0  0.44478477310E+02  0.33175299742E+02  0.11230732006E+03  0.12526719281E+03  0.00000000000E+00 0.  1.
        -13    1    4    4    0    0  0.66706088271E+02 -0.38482846260E+02  0.99596055670E+02  0.12589680684E+03  0.00000000000E+00 0.  1.
         13    1    4    4    0    0 -0.14532806458E+02 -0.44608008255E+02  0.15788116577E+03  0.16470439997E+03  0.00000000000E+00 0. -1.
          2    1    1    2  501    0 -0.54209098773E+02 -0.21809159136E+02  0.95677125775E+02  0.11210877846E+03  0.00000000000E+00 0. -1.
<scales pt_clust_5="13000.00000" pt_clust_6="13000.00000" pt_clust_7="13000.00000" pt_clust_8="13000.00000" pt_clust_9="58.43172"></scales>
<clustering>
<clus scale="   58.432">  2  9  1 -1</clus>
<clus scale="   91.087">  5  6 -1 -1</clus>
<clus scale="   92.349">  7  8 -1 -1</clus>
<clus scale="  133.363">  1  5  2 -1</clus>
<clus scale="   58.432">  2  5  1 -1</clus>
</clustering>
</event>
<event>
 9    1  0.1464797E-005  0.1382072E+03  0.7546771E-02  0.1215785E+00
         -3   -1    0    0    0  501 -0.00000000000E+00  0.00000000000E+00  0.88665027945E+02  0.88665027945E+02  0.00000000000E+00 0.  1.
         21   -1    0    0  501  502  0.00000000000E+00 -0.00000000000E+00 -0.81453964190E+03  0.81453964190E+03  0.00000000000E+00 0. -1.
         23    2    1    2    0    0 -0.76044013310E+02 -0.51776488600E+02 -0.15321194248E+02  0.13099927982E+03  0.91992258311E+02 0.  0.
         23    2    1    2    0    0  0.15206061581E+03  0.34655952886E+02 -0.27201561349E+03  0.32679878468E+03  0.92094982143E+02 0.  0.
        -11    1    4    4    0    0  0.14429382209E+03 -0.29565434156E+00 -0.23090246533E+03  0.27228063280E+03  0.00000000000E+00 0. -1.
         11    1    4    4    0    0  0.77667937223E+01  0.34951607228E+02 -0.41113148153E+02  0.54518151873E+02  0.00000000000E+00 0.  1.
        -13    1    3    3    0    0 -0.93169573234E+02 -0.22613475768E+02 -0.15847792101E+02  0.97175568830E+02  0.00000000000E+00 0.  1.
         13    1    3    3    0    0  0.17125559924E+02 -0.29163012832E+02  0.52659785275E+00  0.33823710995E+02  0.00000000000E+00 0. -1.
         -3    1    1    2    0  502 -0.76016602498E+02  0.17120535714E+02 -0.43853780622E+03  0.44540660535E+03  0.00000000000E+00 0.  1.
<scales pt_clust_5="13000.00000" pt_clust_6="13000.00000" pt_clust_7="13000.00000" pt_clust_8="13000.00000" pt_clust_9="77.92071"></scales>
<clustering>
<clus scale="   77.921">  2  9  1 -1</clus>
<clus scale="   91.992">  7  8 -1 -1</clus>
<clus scale="   92.095">  5  6 -1 -1</clus>
<clus scale="  138.139">  1  7  2 -1</clus>
<clus scale="   77.921">  2  5  1 -1</clus>
</clustering>
</event>
<event>
 9    1  0.1464797E-005  0.1103526E+03  0.7546771E-02  0.1260249E+00
         -1   -1    0    0    0  501 -0.00000000000E+00  0.00000000000E+00  0.21783722955E+03  0.21783722955E+03  0.00000000000E+00 0.  1.
         21   -1    0    0  501  502  0.00000000000E+00 -0.00000000000E+00 -0.12961890320E+03  0.12961890320E+03  0.00000000000E+00 0. -1.
         23    2    1    2    0    0 -0.49063378855E+02 -0.29086247432E+02  0.15108976875E+03  0.18558406060E+03  0.91433584605E+02 0.  0.
         23    2    1    2    0    0  0.60377060616E+02  0.53182976109E+02 -0.53931446669E+02  0.13379049009E+03  0.92290172289E+02 0.  0.
        -11    1    3    3    0    0 -0.54512495674E+01  0.30309023608E+02  0.25542877339E+02  0.40009893985E+02  0.00000000000E+00 0. -1.
         11    1    3    3    0    0 -0.43612129287E+02 -0.59395271041E+02  0.12554689141E+03  0.14557416661E+03  0.00000000000E+00 0.  1.
        -11    1    4    4    0    0  0.21670480778E+02  0.27434988535E+02 -0.75001920448E+02  0.82750084012E+02  0.00000000000E+00 0. -1.
         11    1    4    4    0    0  0.38706579837E+02  0.25747987573E+02  0.21070473780E+02  0.51040406073E+02  0.00000000000E+00 0.  1.
         -1    1    1    2    0  502 -0.11313681761E+02 -0.24096728676E+02 -0.89399957336E+01  0.28081582071E+02  0.00000000000E+00 0.  1.
<scales pt_clust_5="13000.00000" pt_clust_6="13000.00000" pt_clust_7="13000.00000" pt_clust_8="13000.00000" pt_clust_9="26.62051"></scales>
<clustering>
<clus scale="   26.621">  2  9  1 -1</clus>
<clus scale="   91.434">  5  6 -1 -1</clus>
<clus scale="   92.290">  7  8 -1 -1</clus>
<clus scale="  109.637">  1  5  2 -1</clus>
<clus scale="   26.621">  2  5  1 -1</clus>
</clustering>
</event>
<event>
 9    1  0.1464797E-005  0.1240577E+03  0.7546771E-02  0.1237026E+00
         -1   -1    0    0    0  501 -0.00000000000E+00  0.00000000000E+00  0.45228013280E+03  0.45228013280E+03  0.00000000000E+00 0.  1.
         21   -1    0    0  501  502  0.00000000000E+00 -0.00000000000E+00 -0.11307823531E+03  0.11307823531E+03  0.00000000000E+00 0. -1.
         23    2    1    2    0    0 -0.25853034275E+02  0.73597706602E+02  0.18713058682E+03  0.22195238011E+03  0.90332722288E+02 0.  0.
         23    2    1    2    0    0  0.11432646119E+03 -0.78630276891E+02 -0.31148744710E+01  0.16470057092E+03  0.88675337306E+02 0.  0.
        -13    1    3    3    0    0 -0.31811607665E+02 -0.90001186502E+01  0.31519210166E+02  0.45677577951E+02  0.00000000000E+00 0. -1.
         13    1    3    3    0    0  0.59585733898E+01  0.82597825252E+02  0.15561137665E+03  0.17627480216E+03  0.00000000000E+00 0.  1.
        -13    1    4    4    0    0  0.89886886355E+02 -0.55107367625E+02  0.37389984101E+02  0.11186815998E+03  0.00000000000E+00 0.  1.
         13    1    4    4    0    0  0.24439574838E+02 -0.23522909266E+02 -0.40504858572E+02  0.52832410948E+02  0.00000000000E+00 0. -1.
         -1    1    1    2    0  502 -0.88473426918E+02  0.50325702894E+01  0.15518618514E+03  0.17870541707E+03  0.00000000000E+00 0.  1.
<scales pt_clust_5="13000.00000" pt_clust_6="13000.00000" pt_clust_7="13000.00000" pt_clust_8="13000.00000" pt_clust_9="88.61649"></scales>
<clustering>
<clus scale="   88.616">  2  9  1 -1</clus>
<clus scale="   88.675">  7  8 -1 -1</clus>
<clus scale="   90.333">  5  6 -1 -1</clus>
<clus scale="  122.856">  2  7  1 -1</clus>
<clus scale="   88.616">  2  5  1 -1</clus>
</clustering>
</event>
<event>
 9    1  0.1464797E-005  0.1625425E+03  0.7546771E-02  0.1199885E+00
         21   -1    0    0  501  502  0.00000000000E+00  0.00000000000E+00  0.13996328171E+03  0.13996328171E+03  0.00000000000E+00 0. -1.
          1   -1    0    0  502    0 -0.00000000000E+00 -0.00000000000E+00 -0.68809154064E+03  0.68809154064E+03  0.00000000000E+00 0. -1.
         23    2    1    2    0    0  0.40498098567E+01 -0.74262065928E+02 -0.17511569485E+03  0.21194886862E+03  0.93410711005E+02 0.  0.
         23    2    1    2    0    0 -0.42872862737E+02 -0.52483342020E+02 -0.44767200058E+03  0.46396897818E+03  0.10131341993E+03 0.  0.
        -11    1    4    4    0    0  0.26173018702E+02 -0.30542237014E+02 -0.83780646630E+02  0.92935740700E+02  0.00000000000E+00 0.  1.
         11    1    4    4    0    0 -0.69045881439E+02 -0.21941105006E+02 -0.36389135395E+03  0.37103323748E+03  0.00000000000E+00 0. -1.
        -13    1    3    3    0    0 -0.17703956846E+02 -0.10801750503E+02  0.36069873201E+01  0.21050374331E+02  0.00000000000E+00 0.  1.
         13    1    3    3    0    0  0.21753766703E+02 -0.63460315425E+02 -0.17872268217E+03  0.19089849429E+03  0.00000000000E+00 0. -1.
          1    1    1    2  501    0  0.38823052880E+02  0.12674540795E+03  0.74659436503E+02  0.15213697555E+03  0.00000000000E+00 0. -1.
<scales pt_clust_5="13000.00000" pt_clust_6="13000.00000" pt_clust_7="13000.00000" pt_clust_8="13000.00000" pt_clust_9="127.10490"></scales>
<clustering>
<clus scale="   93.411">  7  8 -1 -1</clus>
<clus scale="  101.313">  5  6 -1 -1</clus>
<clus scale="  119.402">  2  7  1 -1</clus>
<clus scale="  127.105">  1  9  2 -1</clus>
<clus scale="  127.105">  1  5  2 -1</clus>
</clustering>
</event>
<event>
 9    1  0.1464797E-005  0.1073861E+03  0.7546771E-02  0.1265688E+00
         -3   -1    0    0    0  501 -0.00000000000E+00  0.00000000000E+00  0.14109294151E+03  0.14109294151E+03  0.00000000000E+00 0.  1.
         21   -1    0    0  501  502  0.00000000000E+00 -0.00000000000E+00 -0.29638349785E+03  0.29638349785E+03  0.00000000000E+00 0.  1.
         23    2    1    2    0    0  0.59558047929E+02  0.29226378722E+02  0.75502397779E+02  0.13398427439E+03  0.88599274418E+02 0.  0.
         23    2    1    2    0    0 -0.46309843531E+02 -0.47092741879E+01 -0.36099377737E+02  0.10681427598E+03  0.89103005615E+02 0.  0.
        -11    1    4    4    0    0  0.52126068527E+01  0.31668971723E+02 -0.29158535498E+02  0.43362601773E+02  0.00000000000E+00 0.  1.
         11    1    4    4    0    0 -0.51522450384E+02 -0.36378245911E+02 -0.69408422396E+01  0.63451674210E+02  0.00000000000E+00 0. -1.
        -13    1    3    3    0    0  0.33946956518E+02 -0.30161533232E+02  0.38073310294E+02  0.59259521602E+02  0.00000000000E+00 0. -1.
         13    1    3    3    0    0  0.25611091411E+02  0.59387911954E+02  0.37429087485E+02  0.74724752789E+02  0.00000000000E+00 0.  1.
         -3    1    1    2    0  502 -0.13248204397E+02 -0.24517104534E+02 -0.19469357638E+03  0.19667788899E+03  0.00000000000E+00 0.  1.
<scales pt_clust_5="13000.00000" pt_clust_6="13000.00000" pt_clust_7="13000.00000" pt_clust_8="13000.00000" pt_clust_9="27.86760"></scales>
<clustering>
<clus scale="   27.868">  2  9  1 -1</clus>
<clus scale="   88.599">  7  8 -1 -1</clus>
<clus scale="   89.103">  5  6 -1 -1</clus>
<clus scale="  106.969">  1  7  2 -1</clus>
<clus scale="   27.868">  2  5  1 -1</clus>
</clustering>
</event>
<event>
 9    1  0.1464797E-005  0.9864492E+02  0.7546771E-02  0.1284944E+00
         21   -1    0    0  501  502  0.00000000000E+00  0.00000000000E+00  0.17936208412E+03  0.17936208412E+03  0.00000000000E+00 0. -1.
          1   -1    0    0  502    0 -0.00000000000E+00 -0.00000000000E+00 -0.31714829079E+03  0.31714829079E+03  0.00000000000E+00 0. -1.
         23    2    1    2    0    0  0.70867946174E+01 -0.33581420202E+02 -0.27092854895E+03  0.28760211115E+03  0.90192911368E+02 0.  0.
         23    2    1    2    0    0  0.19647710400E+01  0.78306837116E+01  0.24811912822E+02  0.97192046419E+02  0.93624157868E+02 0.  0.
        -11    1    3    3    0    0 -0.38655394856E+02 -0.49865002518E+01 -0.15357750473E+03  0.15844606242E+03  0.00000000000E+00 0. -1.
         11    1    3    3    0    0  0.45742189474E+02 -0.28594919951E+02 -0.11735104421E+03  0.12915604873E+03  0.00000000000E+00 0.  1.
        -13    1    4    4    0    0 -0.44078848141E+02  0.12825259284E+02  0.30155880356E+01  0.46005715953E+02  0.00000000000E+00 0. -1.
         13    1    4    4    0    0  0.46043619181E+02 -0.49945755726E+01  0.21796324786E+02  0.51186330466E+02  0.00000000000E+00 0.  1.
          1    1    1    2  501    0 -0.90515656574E+01  0.25750736491E+02  0.10833042946E+03  0.11171621734E+03  0.00000000000E+00 0. -1.
<scales pt_clust_5="13000.00000" pt_clust_6="13000.00000" pt_clust_7="13000.00000" pt_clust_8="13000.00000" pt_clust_9="27.29526"></scales>
<clustering>
<clus scale="   27.295">  1  9  2 -1</clus>
<clus scale="   90.193">  5  6 -1 -1</clus>
<clus scale="   93.624">  7  8 -1 -1</clus>
<clus scale="   95.394">  2  5  1 -1</clus>
<clus scale="   27.295">  1  5  2 -1</clus>
</clustering>
</event>
<event>
 9    1  0.1464797E-005  0.1077669E+03  0.7546771E-02  0.1266323E+00
         21   -1    0    0  501  502  0.00000000000E+00  0.00000000000E+00  0.14011543121E+03  0.14011543121E+03  0.00000000000E+00 0.  1.
          2   -1    0    0  502    0 -0.00000000000E+00 -0.00000000000E+00 -0.37259208679E+03  0.37259208679E+03  0.00000000000E+00 0. -1.
         23    2    1    2    0    0  0.33143639250E+02 -0.46549907970E+02 -0.27736353888E+03  0.29794620895E+03  0.92606781448E+02 0.  0.
         23    2    1    2    0    0 -0.58055283540E+02  0.13835072164E+02 -0.44862860812E+02  0.11604015087E+03  0.88830260417E+02 0.  0.
        -13    1    4    4    0    0 -0.81650908385E+02  0.16007433535E+02 -0.37139750491E+02  0.91117889764E+02  0.00000000000E+00 0. -1.
         13    1    4    4    0    0  0.23595624845E+02 -0.21723613712E+01 -0.77231103202E+01  0.24922261109E+02  0.00000000000E+00 0.  1.
        -13    1    3    3    0    0 -0.16384180084E+02  0.20003530339E+02 -0.66519142703E+02  0.71367912461E+02  0.00000000000E+00 0. -1.
         13    1    3    3    0    0  0.49527819334E+02 -0.66553438309E+02 -0.21084439618E+03  0.22657829649E+03  0.00000000000E+00 0.  1.
          2    1    1    2  501    0  0.24911644291E+02  0.32714835806E+02  0.89749744118E+02  0.98721158180E+02  0.00000000000E+00 0. -1.
<scales pt_clust_5="13000.00000" pt_clust_6="13000.00000" pt_clust_7="13000.00000" pt_clust_8="13000.00000" pt_clust_9="41.11995"></scales>
<clustering>
<clus scale="   41.120">  1  9  2 -1</clus>
<clus scale="   88.830">  5  6 -1 -1</clus>
<clus scale="   92.607">  7  8 -1 -1</clus>
<clus scale="  104.539">  1  5  2 -1</clus>
<clus scale="   41.120">  1  5  2 -1</clus>
</clustering>
</event>
<event>
 9    1  0.1464797E-005  0.1219604E+03  0.7546771E-02  0.1240476E+00
         21   -1    0    0  501  502  0.00000000000E+00  0.00000000000E+00  0.12201113208E+03  0.12201113208E+03  0.00000000000E+00 0.  1.
          3   -1    0    0  502    0 -0.00000000000E+00 -0.00000000000E+00 -0.29948667668E+03  0.29948667668E+03  0.00000000000E+00 0. -1.
         23    2    1    2    0    0 -0.31346926004E+02 -0.84009540769E+02 -0.22768755448E+03  0.26138446428E+03  0.91869380051E+02 0.  0.
         23    2    1    2    0    0  0.24322041924E+02  0.42009058727E+02  0.12061430206E+02  0.10293943245E+03  0.89970694764E+02 0.  0.
        -11    1    3    3    0    0 -0.14669406399E+02  0.18738177599E+02 -0.34046175095E+02  0.41538570298E+02  0.00000000000E+00 0. -1.
         11    1    3    3    0    0 -0.16677519605E+02 -0.10274771837E+03 -0.19364137939E+03  0.21984589398E+03  0.00000000000E+00 0.  1.
        -11    1    4    4    0    0  0.10086016552E+02 -0.25990380102E+02  0.18044053492E+02  0.33208665348E+02  0.00000000000E+00 0.  1.
         11    1    4    4    0    0  0.14236025372E+02  0.67999438829E+02 -0.59826232860E+01  0.69730767103E+02  0.00000000000E+00 0. -1.
          3    1    1    2  501    0  0.70248840802E+01  0.42000482042E+02  0.38150579675E+02  0.57173912037E+02  0.00000000000E+00 0. -1.
<scales pt_clust_5="13000.00000" pt_clust_6="13000.00000" pt_clust_7="13000.00000" pt_clust_8="13000.00000" pt_clust_9="42.58391"></scales>
<clustering>
<clus scale="   42.584">  1  9  2 -1</clus>
<clus scale="   89.971">  7  8 -1 -1</clus>
<clus scale="   91.869">  5  6 -1 -1</clus>
<clus scale="  120.537">  1  7  2 -1</clus>
<clus scale="   42.584">  1  5  2 -1</clus>
</clustering>
</event>
<event>
 9    1  0.1464797E-005  0.1798019E+03  0.7546771E-02  0.1184156E+00
         21   -1    0    0  501  502  0.00000000000E+00  0.00000000000E+00  0.26969288559E+03  0.26969288559E+03  0.00000000000E+00 0. -1.
          2   -1    0    0  502    0 -0.00000000000E+00 -0.00000000000E+00 -0.31192511561E+03  0.31192511561E+03  0.00000000000E+00 0. -1.
         23    2    1    2    0    0  0.10769778551E+02 -0.82815883980E+02  0.72706049369E+02  0.14436592961E+03  0.92633110969E+02 0.  0.
         23    2    1    2    0    0  0.94465272755E+02  0.18312695472E+03 -0.16945109208E+03  0.28198335715E+03  0.91333300605E+02 0.  0.
        -11    1    3    3    0    0 -0.24203735918E+02  0.55817257683E+01  0.25547339354E+00  0.24840325312E+02  0.00000000000E+00 0.  1.
         11    1    3    3    0    0  0.34973514469E+02 -0.88397609748E+02  0.72450575975E+02  0.11952560430E+03  0.00000000000E+00 0. -1.
        -13    1    4    4    0    0  0.27928684334E+02  0.91343062427E+02 -0.25707954551E+02  0.98916456616E+02  0.00000000000E+00 0. -1.
         13    1    4    4    0    0  0.66536588422E+02  0.91783892288E+02 -0.14374313753E+03  0.18306690053E+03  0.00000000000E+00 0.  1.
          2    1    1    2  501    0 -0.10523505131E+03 -0.10031107074E+03  0.54512812694E+02  0.15526871444E+03  0.00000000000E+00 0. -1.
<scales pt_clust_5="13000.00000" pt_clust_6="13000.00000" pt_clust_7="13000.00000" pt_clust_8="13000.00000" pt_clust_9="154.87721"></scales>
<clustering>
<clus scale="   91.333">  7  8 -1 -1</clus>
<clus scale="   92.633">  5  6 -1 -1</clus>
<clus scale="  124.721">  2  5  1 -1</clus>
<clus scale="  154.877">  1  9  2 -1</clus>
<clus scale="  154.877">  1  5  2 -1</clus>
</clustering>
</event>
<event>
 9    1  0.1464797E-005  0.1544824E+03  0.7546771E-02  0.1214047E+00
         21   -1    0    0  501  502  0.00000000000E+00  0.00000000000E+00  0.83624806585E+02  0.83624806585E+02  0.00000000000E+00 0.  1.
          1   -1    0    0  502    0 -0.00000000000E+00 -0.00000000000E+00 -0.50077602352E+03  0.50077602352E+03  0.00000000000E+00 0. -1.
         23    2    1    2    0    0  0.45928717994E+02 -0.14698734686E+02 -0.20376807094E+03  0.22815266845E+03  0.90590912595E+02 0.  0.
         23    2    1    2    0    0 -0.65371190773E+02  0.12821099414E+03 -0.13014820493E+03  0.21415277747E+03  0.90616804456E+02 0.  0.
        -13    1    4    4    0    0 -0.18472578811E+02  0.89818055994E+02 -0.28890114507E+02  0.96141344210E+02  0.00000000000E+00 0.  1.
         13    1    4    4    0    0 -0.46898611962E+02  0.38392938149E+02 -0.10125809043E+03  0.11801143326E+03  0.00000000000E+00 0. -1.
        -13    1    3    3    0    0 -0.19074294473E+02 -0.24390982338E+02 -0.33384875024E+02  0.45533488878E+02  0.00000000000E+00 0. -1.
         13    1    3    3    0    0  0.65003012466E+02  0.96922476517E+01 -0.17038319592E+03  0.18261917957E+03  0.00000000000E+00 0.  1.
          1    1    1    2  501    0  0.19442472779E+02 -0.11351225946E+03 -0.83234941062E+02  0.14209538419E+03  0.00000000000E+00 0. -1.
<scales pt_clust_5="13000.00000" pt_clust_6="13000.00000" pt_clust_7="13000.00000" pt_clust_8="13000.00000" pt_clust_9="125.11359"></scales>
<clustering>
<clus scale="   90.591">  7  8 -1 -1</clus>
<clus scale="   90.617">  5  6 -1 -1</clus>
<clus scale="  102.627">  2  7  1 -1</clus>
<clus scale="  125.114">  1  9  2 -1</clus>
<clus scale="  125.114">  1  5  2 -1</clus>
</clustering>
</event>
<event>
 9    1  0.1464797E-005  0.9593544E+02  0.7546771E-02  0.1290713E+00
         21   -1    0    0  501  502  0.00000000000E+00  0.00000000000E+00  0.24453051713E+02  0.24453051713E+02  0.00000000000E+00 0. -1.
         -1   -1    0    0    0  501 -0.00000000000E+00 -0.00000000000E+00 -0.54330272520E+03  0.54330272520E+03  0.00000000000E+00 0.  1.
         23    2    1    2    0    0  0.90964400217E+01 -0.20504249475E+01 -0.21510072914E+03  0.23312625812E+03  0.89401225287E+02 0.  0.
         23    2    1    2    0    0 -0.39929407374E+02  0.19965686546E+02 -0.24869630529E+03  0.26903667207E+03  0.92400716691E+02 0.  0.
        -13    1    3    3    0    0  0.31325617469E+02 -0.21942367379E+02 -0.19095833976E+03  0.19475073638E+03  0.00000000000E+00 0.  1.
         13    1    3    3    0    0 -0.22229177448E+02  0.19891942431E+02 -0.24142389383E+02  0.38375521740E+02  0.00000000000E+00 0. -1.
        -13    1    4    4    0    0 -0.54269056119E+02 -0.14447324234E+02 -0.19983890198E+03  0.20757996622E+03  0.00000000000E+00 0. -1.
         13    1    4    4    0    0  0.14339648745E+02  0.34413010780E+02 -0.48857403306E+02  0.61456705857E+02  0.00000000000E+00 0.  1.
         -1    1    1    2    0  502  0.30832967352E+02 -0.17915261599E+02 -0.55052639062E+02  0.65592846726E+02  0.00000000000E+00 0.  1.
<scales pt_clust_5="13000.00000" pt_clust_6="13000.00000" pt_clust_7="13000.00000" pt_clust_8="13000.00000" pt_clust_9="35.65990"></scales>
<clustering>
<clus scale="   35.660">  1  9  2 -1</clus>
<clus scale="   89.401">  5  6 -1 -1</clus>
<clus scale="   92.401">  7  8 -1 -1</clus>
<clus scale="   93.050">  2  5  1 -1</clus>
<clus scale="   35.660">  1  5  2 -1</clus>
</clustering>
</event>
<event>
 9    1  0.1464797E-005  0.1137137E+03  0.7546771E-02  0.1263845E+00
         -2   -1    0    0    0  501 -0.00000000000E+00  0.00000000000E+00  0.10239193639E+03  0.10239193639E+03  0.00000000000E+00 0.  1.
         21   -1    0    0  501  502  0.00000000000E+00 -0.00000000000E+00 -0.34804073997E+03  0.34804073997E+03  0.00000000000E+00 0.  1.
         23    2    1    2    0    0 -0.52297647858E+01 -0.50048439003E+02  0.43086323859E+02  0.10408625582E+03  0.80282754438E+02 0.  0.
         23    2    1    2    0    0  0.25104329295E+02  0.34682968167E+02 -0.83303658505E+02  0.13938462591E+03  0.10322518486E+03 0.  0.
        -11    1    3    3    0    0 -0.14843075515E+02 -0.26220775545E+02  0.64142451403E+02  0.70866776651E+02  0.00000000000E+00 0.  1.
         11    1    3    3    0    0  0.96133107291E+01 -0.23827663458E+02 -0.21056127543E+02  0.33219479167E+02  0.00000000000E+00 0. -1.
        -13    1    4    4    0    0  0.43427570091E+02 -0.24006680090E+02 -0.29807080629E+02  0.57885547320E+02  0.00000000000E+00 0.  1.
         13    1    4    4    0    0 -0.18323240796E+02  0.58689648257E+02 -0.53496577876E+02  0.81499078586E+02  0.00000000000E+00 0. -1.
         -2    1    1    2    0  502 -0.19874564509E+02  0.15365470836E+02 -0.20543146894E+03  0.20696179463E+03  0.00000000000E+00 0.  1.
<scales pt_clust_5="13000.00000" pt_clust_6="13000.00000" pt_clust_7="13000.00000" pt_clust_8="13000.00000" pt_clust_9="25.12162"></scales>
<clustering>
<clus scale="   25.122">  2  9  1 -1</clus>
<clus scale="   80.283">  5  6 -1 -1</clus>
<clus scale="   93.385">  1  5  2 -1</clus>
<clus scale="  103.225">  7  8 -1 -1</clus>
<clus scale="   25.122">  2  5  1 -1</clus>
</clustering>
</event>
<event>
 9    1  0.1464797E-005  0.1378808E+03  0.7546771E-02  0.1231937E+00
          2   -1    0    0  502    0 -0.00000000000E+00  0.00000000000E+00  0.47852660128E+03  0.47852660128E+03  0.00000000000E+00 0. -1.
         21   -1    0    0  501  502  0.00000000000E+00 -0.00000000000E+00 -0.92524508888E+02  0.92524508888E+02  0.00000000000E+00 0. -1.
         23    2    1    2    0    0  0.12644112865E+02  0.31831998796E+02  0.29064129051E+03  0.30714428576E+03  0.93231447431E+02 0.  0.
         23    2    1    2    0    0  0.86630020223E+02 -0.59803677013E+02  0.75209640895E+02  0.15881715997E+03  0.92114928373E+02 0.  0.
        -13    1    3    3    0    0 -0.39996046504E+02  0.21617864389E+02  0.14399346802E+03  0.15100044579E+03  0.00000000000E+00 0. -1.
         13    1    3    3    0    0  0.52640159369E+02  0.10214134407E+02  0.14664782250E+03  0.15614383998E+03  0.00000000000E+00 0.  1.
        -13    1    4    4    0    0  0.46393030736E+02 -0.72790719870E+02  0.18835339026E+02  0.88349149381E+02  0.00000000000E+00 0.  1.
         13    1    4    4    0    0  0.40236989486E+02  0.12987042857E+02  0.56374301869E+02  0.70468010589E+02  0.00000000000E+00 0. -1.
          2    1    1    2  501    0 -0.99274133087E+02  0.27971678217E+02  0.20151160989E+02  0.10508966444E+03  0.00000000000E+00 0. -1.
<scales pt_clust_5="13000.00000" pt_clust_6="13000.00000" pt_clust_7="13000.00000" pt_clust_8="13000.00000" pt_clust_9="102.59613"></scales>
<clustering>
<clus scale="   92.115">  7  8 -1 -1</clus>
<clus scale="   93.231">  5  6 -1 -1</clus>
<clus scale="   99.324">  1  5  2 -1</clus>
<clus scale="  102.596">  2  9  1 -1</clus>
<clus scale="  102.596">  2  5  1 -1</clus>
</clustering>
</event>
<event>
 9    1  0.1464797E-005  0.1899542E+03  0.7546771E-02  0.1177461E+00
         -4   -1    0    0    0  501 -0.00000000000E+00  0.00000000000E+00  0.29504621570E+03  0.29504621570E+03  0.00000000000E+00 0.  1.
         21   -1    0    0  501  502  0.00000000000E+00 -0.00000000000E+00 -0.47398377346E+03  0.47398377346E+03  0.00000000000E+00 0.  1.
         23    2    1    2    0    0 -0.10166931165E+02 -0.82524040220E+02  0.10328949983E+03  0.16055922063E+03  0.90537057882E+02 0.  0.
         23    2    1    2    0    0 -0.71693410261E+02 -0.71054181482E+02  0.11207486067E+03  0.17747031792E+03  0.93521642250E+02 0.  0.
        -13    1    4    4    0    0 -0.24606940714E+02  0.21880102087E+02  0.33553218027E+02  0.47011262891E+02  0.00000000000E+00 0. -1.
         13    1    4    4    0    0 -0.47086469547E+02 -0.92934283569E+02  0.78521642639E+02  0.13045905503E+03  0.00000000000E+00 0.  1.
        -13    1    3    3    0    0 -0.46597262391E+02 -0.41843658420E+02  0.78946847768E+02  0.10077103445E+03  0.00000000000E+00 0. -1.
         13    1    3    3    0    0  0.36430331226E+02 -0.40680381799E+02  0.24342652062E+02  0.59788186174E+02  0.00000000000E+00 0.  1.
         -4    1    1    2    0  502  0.81860341426E+02  0.15357822170E+03 -0.39430191826E+03  0.43100045060E+03  0.00000000000E+00 0.  1.
<scales pt_clust_5="13000.00000" pt_clust_6="13000.00000" pt_clust_7="13000.00000" pt_clust_8="13000.00000" pt_clust_9="165.33693"></scales>
<clustering>
<clus scale="   90.537">  7  8 -1 -1</clus>
<clus scale="   93.522">  5  6 -1 -1</clus>
<clus scale="  122.925">  1  7  2 -1</clus>
<clus scale="  165.337">  2  9  1 -1</clus>
<clus scale="  165.337">  2  5  1 -1</clus>
</clustering>
</event>
<event>
 9    1  0.1464797E-005  0.2513572E+03  0.7546771E-02  0.1145591E+00
         21   -1    0    0  501  502  0.00000000000E+00  0.00000000000E+00  0.13258668227E+04  0.13258668227E+04  0.00000000000E+00 0. -1.
          1   -1    0    0  502    0 -0.00000000000E+00 -0.00000000000E+00 -0.10462111887E+03  0.10462111887E+03  0.00000000000E+00 0. -1.
         23    2    1    2    0    0 -0.43161783516E+02  0.48069543648E+02  0.16922749401E+03  0.20249316564E+03  0.90509208477E+02 0.  0.
         23    2    1    2    0    0  0.19562391133E+03  0.12959873465E+03  0.14564494735E+03  0.29187341177E+03  0.94409168528E+02 0.  0.
        -11    1    4    4    0    0  0.29492841683E+02  0.25790197214E+02  0.73170964185E+02  0.82999710739E+02  0.00000000000E+00 0.  1.
         11    1    4    4    0    0  0.16613106964E+03  0.10380853744E+03  0.72473983166E+02  0.20887370103E+03  0.00000000000E+00 0. -1.
        -11    1    3    3    0    0 -0.58593807289E+02 -0.21636493497E+01  0.90984655999E+02  0.10824104239E+03  0.00000000000E+00 0.  1.
         11    1    3    3    0    0  0.15432023773E+02  0.50233192998E+02  0.78242838011E+02  0.94252123247E+02  0.00000000000E+00 0. -1.
          1    1    1    2  501    0 -0.15246212781E+03 -0.17766827830E+03  0.90637326251E+03  0.93612136421E+03  0.00000000000E+00 0. -1.
<scales pt_clust_5="13000.00000" pt_clust_6="13000.00000" pt_clust_7="13000.00000" pt_clust_8="13000.00000" pt_clust_9="232.95356"></scales>
<clustering>
<clus scale="   90.509">  7  8 -1 -1</clus>
<clus scale="   94.409">  5  6 -1 -1</clus>
<clus scale="  111.200">  2  7  1 -1</clus>
<clus scale="  232.954">  1  9  2 -1</clus>
<clus scale="  232.954">  1  5  2 -1</clus>
</clustering>
</event>
<event>
 9    1  0.1464797E-005  0.1177719E+03  0.7546771E-02  0.1247804E+00
         21   -1    0    0  501  502  0.00000000000E+00  0.00000000000E+00  0.28970199301E+02  0.28970199301E+02  0.00000000000E+00 0. -1.
          2   -1    0    0  502    0 -0.00000000000E+00 -0.00000000000E+00 -0.71082567287E+03  0.71082567287E+03  0.00000000000E+00 0. -1.
         23    2    1    2    0    0 -0.91769112556E+02 -0.68600426999E+01 -0.40236848344E+03  0.42314941307E+03  0.93200853584E+02 0.  0.
         23    2    1    2    0    0  0.49708138995E+02 -0.61575191225E+01 -0.21580072604E+03  0.23922215642E+03  0.90268890750E+02 0.  0.
        -11    1    3    3    0    0  0.42267083043E+01  0.26856481983E+02 -0.57828617459E+02  0.63900584386E+02  0.00000000000E+00 0.  1.
         11    1    3    3    0    0 -0.95995820861E+02 -0.33716524683E+02 -0.34453986598E+03  0.35924882868E+03  0.00000000000E+00 0. -1.
        -13    1    4    4    0    0  0.46037198004E+02  0.36448298050E+02 -0.14597057645E+03  0.15733820648E+03  0.00000000000E+00 0. -1.
         13    1    4    4    0    0  0.36709409909E+01 -0.42605817173E+02 -0.69830149597E+02  0.81883949938E+02  0.00000000000E+00 0.  1.
          2    1    1    2  501    0  0.42060973561E+02  0.13017561822E+02 -0.63686264085E+02  0.77424302682E+02  0.00000000000E+00 0. -1.
<scales pt_clust_5="13000.00000" pt_clust_6="13000.00000" pt_clust_7="13000.00000" pt_clust_8="13000.00000" pt_clust_9="44.02934"></scales>
<clustering>
<clus scale="   44.029">  1  9  2 -1</clus>
<clus scale="   90.269">  7  8 -1 -1</clus>
<clus scale="   93.201">  5  6 -1 -1</clus>
<clus scale="  115.466">  1  7  2 -1</clus>
<clus scale="   44.029">  1  5  2 -1</clus>
</clustering>
</event>
<event>
 9    1  0.1464797E-005  0.9555890E+02  0.7546771E-02  0.1293159E+00
         21   -1    0    0  501  502  0.00000000000E+00  0.00000000000E+00  0.33345999038E+03  0.33345999038E+03  0.00000000000E+00 0.  1.
          4   -1    0    0  502    0 -0.00000000000E+00 -0.00000000000E+00 -0.67409883919E+02  0.67409883919E+02  0.00000000000E+00 0. -1.
         23    2    1    2    0    0  0.13728643277E+02  0.27429608705E+02 -0.87136464805E+01  0.90277270364E+02  0.84458266792E+02 0.  0.
         23    2    1    2    0    0 -0.41836640327E+02 -0.10895417120E+02  0.14146739807E+03  0.17336521158E+03  0.90407174952E+02 0.  0.
        -11    1    3    3    0    0  0.46892939555E+02  0.23389760443E+02  0.78499670683E+01  0.52987268816E+02  0.00000000000E+00 0.  1.
         11    1    3    3    0    0 -0.33164296278E+02  0.40398482620E+01 -0.16563613549E+02  0.37290001547E+02  0.00000000000E+00 0. -1.
        -13    1    4    4    0    0 -0.18681288721E+02  0.10962988536E+02 -0.60184036084E+01  0.22481077553E+02  0.00000000000E+00 0.  1.
         13    1    4    4    0    0 -0.23155351605E+02 -0.21858405656E+02  0.14748580168E+03  0.15088413403E+03  0.00000000000E+00 0. -1.
          4    1    1    2  501    0  0.28107997050E+02 -0.16534191585E+02  0.13329635487E+03  0.13722739235E+03  0.00000000000E+00 0. -1.
<scales pt_clust_5="13000.00000" pt_clust_6="13000.00000" pt_clust_7="13000.00000" pt_clust_8="13000.00000" pt_clust_9="32.61041"></scales>
<clustering>
<clus scale="   32.610">  1  9  2 -1</clus>
<clus scale="   84.458">  5  6 -1 -1</clus>
<clus scale="   89.951">  2  5  1 -1</clus>
<clus scale="   90.407">  7  8 -1 -1</clus>
<clus scale="   32.610">  1  5  2 -1</clus>
</clustering>
</event>
<event>
 9    1  0.1464797E-005  0.9646154E+02  0.7546771E-02  0.1289401E+00
          1   -1    0    0  502    0 -0.00000000000E+00  0.00000000000E+00  0.33231510204E+03  0.33231510204E+03  0.00000000000E+00 0. -1.
         21   -1    0    0  501  502  0.00000000000E+00 -0.00000000000E+00 -0.38749181794E+02  0.38749181794E+02  0.00000000000E+00 0.  1.
         23    2    1    2    0    0 -0.52500914328E+01  0.33344044770E+02  0.19377247157E+03  0.21711847900E+03  0.91941690245E+02 0.  0.
         23    2    1    2    0    0  0.19102256649E+02 -0.17212787170E+02  0.93597240065E+02  0.13179872931E+03  0.89158765409E+02 0.  0.
        -11    1    3    3    0    0 -0.89818732389E+01 -0.30102777178E+02  0.91123124767E+02  0.96386073206E+02  0.00000000000E+00 0. -1.
         11    1    3    3    0    0  0.37317818061E+01  0.63446821948E+02  0.10264934680E+03  0.12073240579E+03  0.00000000000E+00 0.  1.
        -13    1    4    4    0    0 -0.24098606867E+02  0.22759138156E+02  0.25701710404E+02  0.41944000050E+02  0.00000000000E+00 0.  1.
         13    1    4    4    0    0  0.43200863516E+02 -0.39971925326E+02  0.67895529661E+02  0.89854729262E+02  0.00000000000E+00 0. -1.
          1    1    1    2  501    0 -0.13852165216E+02 -0.16131257600E+02  0.61962086158E+01  0.22147075522E+02  0.00000000000E+00 0. -1.
<scales pt_clust_5="13000.00000" pt_clust_6="13000.00000" pt_clust_7="13000.00000" pt_clust_8="13000.00000" pt_clust_9="21.26264"></scales>
<clustering>
<clus scale="   21.263">  2  9  1 -1</clus>
<clus scale="   89.159">  7  8 -1 -1</clus>
<clus scale="   91.942">  5  6 -1 -1</clus>
<clus scale="   93.813">  2  7  1 -1</clus>
<clus scale="   21.263">  2  5  1 -1</clus>
</clustering>
</event>
<event>
 9    1  0.1464797E-005  0.1100390E+03  0.7546771E-02  0.1260679E+00
          4   -1    0    0  502    0 -0.00000000000E+00  0.00000000000E+00  0.14959678735E+03  0.14959678735E+03  0.00000000000E+00 0. -1.
         21   -1    0    0  501  502  0.00000000000E+00 -0.00000000000E+00 -0.11986155645E+03  0.11986155645E+03  0.00000000000E+00 0.  1.
         23    2    1    2    0    0 -0.69715668764E+02 -0.28707492478E+02  0.48457579251E+02  0.12740861931E+03  0.90556196322E+02 0.  0.
         23    2    1    2    0    0  0.34345020941E+02  0.30691679666E+02 -0.83971374407E-01  0.10201962554E+03  0.91029870261E+02 0.  0.
        -11    1    4    4    0    0  0.56920268380E+02  0.19207136795E+02 -0.26289580742E+02  0.65574180223E+02  0.00000000000E+00 0.  1.
         11    1    4    4    0    0 -0.22575247440E+02  0.11484542871E+02  0.26205609368E+02  0.36445445316E+02  0.00000000000E+00 0. -1.
        -11    1    3    3    0    0 -0.52305485494E+02  0.79253424000E+00 -0.15753471973E+02  0.54632076681E+02  0.00000000000E+00 0.  1.
         11    1    3    3    0    0 -0.17410183269E+02 -0.29500026718E+02  0.64211051223E+02  0.72776542629E+02  0.00000000000E+00 0. -1.
          4    1    1    2  501    0  0.35370647823E+02 -0.19841871884E+01 -0.18638376975E+02  0.40030098956E+02  0.00000000000E+00 0. -1.
<scales pt_clust_5="13000.00000" pt_clust_6="13000.00000" pt_clust_7="13000.00000" pt_clust_8="13000.00000" pt_clust_9="35.42626"></scales>
<clustering>
<clus scale="   35.426">  2  9  1 -1</clus>
<clus scale="   90.556">  7  8 -1 -1</clus>
<clus scale="   91.030">  5  6 -1 -1</clus>
<clus scale="  109.648">  1  7  2 -1</clus>
<clus scale="   35.426">  2  5  1 -1</clus>
</clustering>
</event>
<event>
 9    1  0.1464797E-005  0.1396471E+03  0.7546771E-02  0.1214704E+00
         21   -1    0    0  501  502  0.00000000000E+00  0.00000000000E+00  0.11069572422E+03  0.11069572422E+03  0.00000000000E+00 0.  1.
          2   -1    0    0  502    0 -0.00000000000E+00 -0.00000000000E+00 -0.40227769588E+03  0.40227769588E+03  0.00000000000E+00 0. -1.
         23    2    1    2    0    0 -0.52100682779E+02  0.74885056632E+02 -0.21431817899E+03  0.24927378904E+03  0.88785624989E+02 0.  0.
         23    2    1    2    0    0  0.86601352988E+02 -0.13269906289E+03 -0.45122559772E+02  0.18909524502E+03  0.92801566023E+02 0.  0.
        -11    1    4    4    0    0 -0.10982229167E+02 -0.59135160998E+02 -0.25481391505E+02  0.65321343654E+02  0.00000000000E+00 0.  1.
         11    1    4    4    0    0  0.97583582155E+02 -0.73563901894E+02 -0.19641168268E+02  0.12377390136E+03  0.00000000000E+00 0. -1.
        -11    1    3    3    0    0 -0.35708545661E+02  0.16424611477E+02 -0.16900042059E+03  0.17351083613E+03  0.00000000000E+00 0.  1.
         11    1    3    3    0    0 -0.16392137118E+02  0.58460445155E+02 -0.45317758394E+02  0.75762952905E+02  0.00000000000E+00 0. -1.
          2    1    1    2  501    0 -0.34500670209E+02  0.57814006260E+02 -0.32141232902E+02  0.74604386045E+02  0.00000000000E+00 0. -1.
<scales pt_clust_5="13000.00000" pt_clust_6="13000.00000" pt_clust_7="13000.00000" pt_clust_8="13000.00000" pt_clust_9="67.32574"></scales>
<clustering>
<clus scale="   67.326">  1  9  2 -1</clus>
<clus scale="   88.786">  7  8 -1 -1</clus>
<clus scale="   92.802">  5  6 -1 -1</clus>
<clus scale="  137.011">  2  7  1 -1</clus>
<clus scale="   67.326">  1  5  2 -1</clus>
</clustering>
</event>
<event>
 9    1  0.1464797E-005  0.1056422E+03  0.7546771E-02  0.1272147E+00
          1   -1    0    0  502    0 -0.00000000000E+00  0.00000000000E+00  0.39143828481E+03  0.39143828481E+03  0.00000000000E+00 0. -1.
         21   -1    0    0  501  502  0.00000000000E+00 -0.00000000000E+00 -0.64444326342E+02  0.64444326342E+02  0.00000000000E+00 0. -1.
         23    2    1    2    0    0  0.30363766837E+02 -0.12327634172E+02  0.27352022772E+03  0.29244722262E+03  0.98173999340E+02 0.  0.
         23    2    1    2    0    0 -0.55485766620E+02  0.41822782270E+02  0.31329573976E+02  0.11880980939E+03  0.91139525930E+02 0.  0.
        -11    1    3    3    0    0  0.44870385516E+02 -0.30540510084E+02  0.25982557387E+03  0.26543436682E+03  0.00000000000E+00 0. -1.
         11    1    3    3    0    0 -0.14506618679E+02  0.18212875912E+02  0.13694653851E+02  0.27012855802E+02  0.00000000000E+00 0.  1.
        -13    1    4    4    0    0 -0.20839236043E+02  0.22703903825E+02  0.61672625824E+02  0.68943845148E+02  0.00000000000E+00 0.  1.
         13    1    4    4    0    0 -0.34646530577E+02  0.19118878446E+02 -0.30343051848E+02  0.49865964239E+02  0.00000000000E+00 0. -1.
          1    1    1    2  501    0  0.25121999783E+02 -0.29495148099E+02  0.22144156766E+02  0.44625579137E+02  0.00000000000E+00 0. -1.
<scales pt_clust_5="13000.00000" pt_clust_6="13000.00000" pt_clust_7="13000.00000" pt_clust_8="13000.00000" pt_clust_9="38.74376"></scales>
<clustering>
<clus scale="   38.744">  2  9  1 -1</clus>
<clus scale="   91.140">  7  8 -1 -1</clus>
<clus scale="   98.174">  5  6 -1 -1</clus>
<clus scale="   99.139">  2  7  1 -1</clus>
<clus scale="   38.744">  2  5  1 -1</clus>
</clustering>
</event>
<event>
 9    1  0.1464797E-005  0.2132424E+03  0.7546771E-02  0.1140489E+00
         -1   -1    0    0    0  501 -0.00000000000E+00  0.00000000000E+00  0.60794945832E+03  0.60794945832E+03  0.00000000000E+00 0.  1.
         21   -1    0    0  501  502  0.00000000000E+00 -0.00000000000E+00 -0.32660687600E+03  0.32660687600E+03  0.00000000000E+00 0.  1.
         23    2    1    2    0    0 -0.23619423551E+03  0.58796521487E+02  0.37220966971E+03  0.45087849696E+03  0.74206690846E+02 0.  0.
         23    2    1    2    0    0  0.77648059996E+02 -0.13858890311E+03  0.11100767274E+03  0.21487096857E+03  0.92793989251E+02 0.  0.
        -11    1    4    4    0    0  0.87755741767E+02 -0.10019977574E+03  0.50384308385E+02  0.14240661432E+03  0.00000000000E+00 0. -1.
         11    1    4    4    0    0 -0.10107681771E+02 -0.38389127372E+02  0.60623364353E+02  0.72464354249E+02  0.00000000000E+00 0.  1.
        -13    1    3    3    0    0 -0.13628191930E+03  0.71206815087E+02  0.22765053225E+03  0.27471428226E+03  0.00000000000E+00 0.  1.
         13    1    3    3    0    0 -0.99912316210E+02 -0.12410293599E+02  0.14455913746E+03  0.17616421470E+03  0.00000000000E+00 0. -1.
         -1    1    1    2    0  502  0.15854617551E+03  0.79792381627E+02 -0.20187476013E+03  0.26880686880E+03  0.00000000000E+00 0.  1.
<scales pt_clust_5="13000.00000" pt_clust_6="13000.00000" pt_clust_7="13000.00000" pt_clust_8="13000.00000" pt_clust_9="177.49286"></scales>
<clustering>
<clus scale="   74.207">  7  8 -1 -1</clus>
<clus scale="   92.794">  5  6 -1 -1</clus>
<clus scale="  177.493">  2  9  1 -1</clus>
<clus scale="  205.835">  1  7  2 -1</clus>
<clus scale="  177.493">  2  5  1 -1</clus>
</clustering>
</event>
<event>
 9    1  0.1464797E-005  0.1092696E+03  0.7546771E-02  0.1262218E+00
         21   -1    0    0  501  502  0.00000000000E+00  0.00000000000E+00  0.45162804433E+02  0.45162804433E+02  0.00000000000E+00 0. -1.
          1   -1    0    0  502    0 -0.00000000000E+00 -0.00000000000E+00 -0.43696779584E+03  0.43696779584E+03  0.00000000000E+00 0. -1.
         23    2    1    2    0    0 -0.18435835594E+02 -0.68724072358E+02 -0.17807347203E+03  0.21226486251E+03  0.91012813717E+02 0.  0.
         23    2    1    2    0    0 -0.14861238271E+02  0.47777890085E+02 -0.80332199554E+02  0.13078728433E+03  0.90268866577E+02 0.  0.
        -11    1    3    3    0    0 -0.21341873741E+02  0.18097490036E+02 -0.53761452894E+02  0.60607660718E+02  0.00000000000E+00 0.  1.
         11    1    3    3    0    0  0.29060381468E+01 -0.86821562394E+02 -0.12431201913E+03  0.15165720179E+03  0.00000000000E+00 0. -1.
        -13    1    4    4    0    0  0.35636276280E+02  0.18636593218E+02 -0.52635630871E+02  0.66240293108E+02  0.00000000000E+00 0.  1.
         13    1    4    4    0    0 -0.50497514551E+02  0.29141296867E+02 -0.27696568683E+02  0.64546991221E+02  0.00000000000E+00 0. -1.
          1    1    1    2  501    0  0.33297073865E+02  0.20946182273E+02 -0.13339931982E+03  0.13907845343E+03  0.00000000000E+00 0. -1.
<scales pt_clust_5="13000.00000" pt_clust_6="13000.00000" pt_clust_7="13000.00000" pt_clust_8="13000.00000" pt_clust_9="39.33750"></scales>
<clustering>
<clus scale="   39.338">  1  9  2 -1</clus>
<clus scale="   90.269">  7  8 -1 -1</clus>
<clus scale="   91.013">  5  6 -1 -1</clus>
<clus scale="  108.651">  1  7  2 -1</clus>
<clus scale="   39.338">  1  5  2 -1</clus>
</clustering>
</event>
<event>
 9    1  0.1464797E-005  0.1729659E+03  0.7546771E-02  0.1197617E+00
          1   -1    0    0  502    0 -0.00000000000E+00  0.00000000000E+00  0.56255476203E+03  0.56255476203E+03  0.00000000000E+00 0. -1.
         21   -1    0    0  501  502  0.00000000000E+00 -0.00000000000E+00 -0.15099694640E+03  0.15099694640E+03  0.00000000000E+00 0. -1.
         23    2    1    2    0    0  0.28205854757E+02 -0.38995187907E+02  0.35114744571E+03  0.36625397208E+03  0.92310608879E+02 0.  0.
         23    2    1    2    0    0  0.19374227547E+02 -0.11552706403E+03  0.10315335922E+03  0.18006151507E+03  0.89775667496E+02 0.  0.
        -11    1    4    4    0    0  0.31967226686E+02 -0.21342537952E+02  0.69193599982E+02  0.79152774977E+02  0.00000000000E+00 0.  1.
         11    1    4    4    0    0 -0.12592999139E+02 -0.94184526073E+02  0.33959759241E+02  0.10090874009E+03  0.00000000000E+00 0. -1.
        -13    1    3    3    0    0  0.18990944635E+02  0.24662500644E+02  0.54956225457E+02  0.63159176947E+02  0.00000000000E+00 0.  1.
         13    1    3    3    0    0  0.92149101217E+01 -0.63657688551E+02  0.29619122025E+03  0.30309479513E+03  0.00000000000E+00 0. -1.
          1    1    1    2  501    0 -0.47580082304E+02  0.15452225193E+03 -0.42742989308E+02  0.16723622128E+03  0.00000000000E+00 0. -1.
<scales pt_clust_5="13000.00000" pt_clust_6="13000.00000" pt_clust_7="13000.00000" pt_clust_8="13000.00000" pt_clust_9="147.84293"></scales>
<clustering>
<clus scale="   89.776">  5  6 -1 -1</clus>
<clus scale="   92.311">  7  8 -1 -1</clus>
<clus scale="  104.103">  1  7  2 -1</clus>
<clus scale="  147.843">  2  9  1 -1</clus>
<clus scale="  147.843">  2  5  1 -1</clus>
</clustering>
</event>
<event>
 9    1  0.1464797E-005  0.1249452E+03  0.7546771E-02  0.1235233E+00
         -4   -1    0    0    0  501 -0.00000000000E+00  0.00000000000E+00  0.21214222591E+03  0.21214222591E+03  0.00000000000E+00 0.  1.
         21   -1    0    0  501  502  0.00000000000E+00 -0.00000000000E+00 -0.12960939565E+03  0.12960939565E+03  0.00000000000E+00 0.  1.
         23    2    1    2    0    0 -0.15005374205E+02  0.76289135660E+02  0.10972266764E+03  0.16454258428E+03  0.94815635701E+02 0.  0.
         23    2    1    2    0    0  0.54312330774E+02 -0.80232762016E+02 -0.17246743956E+02  0.13647263918E+03  0.94552660948E+02 0.  0.
        -11    1    3    3    0    0 -0.33976123119E+02 -0.49934864467E+01  0.54649226783E+02  0.64543394992E+02  0.00000000000E+00 0. -1.
         11    1    3    3    0    0  0.18970748915E+02  0.81282622106E+02  0.55073440860E+02  0.99999189292E+02  0.00000000000E+00 0.  1.
        -13    1    4    4    0    0 -0.45257799415E+01 -0.19849753298E+02 -0.43617896251E+02  0.48135395120E+02  0.00000000000E+00 0. -1.
         13    1    4    4    0    0  0.58838110716E+02 -0.60383008718E+02  0.26371152295E+02  0.88337244058E+02  0.00000000000E+00 0.  1.
         -4    1    1    2    0  502 -0.39306956570E+02  0.39436263560E+01 -0.99430934225E+01  0.40736398103E+02  0.00000000000E+00 0.  1.
<scales pt_clust_5="13000.00000" pt_clust_6="13000.00000" pt_clust_7="13000.00000" pt_clust_8="13000.00000" pt_clust_9="39.50429"></scales>
<clustering>
<clus scale="   39.504">  2  9  1 -1</clus>
<clus scale="   94.553">  7  8 -1 -1</clus>
<clus scale="   94.816">  5  6 -1 -1</clus>
<clus scale="  124.746">  2  7  1 -1</clus>
<clus scale="   39.504">  2  5  1 -1</clus>
</clustering>
</event>
<event>
 9    1  0.1464797E-005  0.1235029E+03  0.7546771E-02  0.1237614E+00
         21   -1    0    0  501  502  0.00000000000E+00  0.00000000000E+00  0.46676956436E+02  0.46676956436E+02  0.00000000000E+00 0. -1.
          1   -1    0    0  502    0 -0.00000000000E+00 -0.00000000000E+00 -0.60024864609E+03  0.60024864609E+03  0.00000000000E+00 0. -1.
         23    2    1    2    0    0 -0.43951836903E+02  0.70989302146E+02 -0.34904779624E+03  0.37033075010E+03  0.91319523764E+02 0.  0.
         23    2    1    2    0    0  0.73462791941E+02 -0.47960343858E+02 -0.20313902069E+03  0.23913624515E+03  0.90684649373E+02 0.  0.
        -13    1    3    3    0    0 -0.45505814939E+02  0.91305715837E+02 -0.26798460163E+03  0.28674598453E+03  0.00000000000E+00 0. -1.
         13    1    3    3    0    0  0.15539780361E+01 -0.20316413691E+02 -0.81063194614E+02  0.83584765562E+02  0.00000000000E+00 0.  1.
        -13    1    4    4    0    0  0.53603790542E+02  0.12921463058E+02 -0.55631267978E+02  0.78327316723E+02  0.00000000000E+00 0. -1.
         13    1    4    4    0    0  0.19859001398E+02 -0.60881806916E+02 -0.14750775272E+03  0.16080892843E+03  0.00000000000E+00 0.  1.
          1    1    1    2  501    0 -0.29510955037E+02 -0.23028958288E+02 -0.13848727178E+01  0.37458607282E+02  0.00000000000E+00 0. -1.
<scales pt_clust_5="13000.00000" pt_clust_6="13000.00000" pt_clust_7="13000.00000" pt_clust_8="13000.00000" pt_clust_9="37.43300"></scales>
<clustering>
<clus scale="   37.433">  1  9  2 -1</clus>
<clus scale="   90.685">  7  8 -1 -1</clus>
<clus scale="   91.320">  5  6 -1 -1</clus>
<clus scale="  123.034">  1  7  2 -1</clus>
<clus scale="   37.433">  1  5  2 -1</clus>
</clustering>
</event>
<event>
 9    1  0.1464797E-005  0.1180725E+03  0.7546771E-02  0.1256041E+00
          4   -1    0    0  502    0 -0.00000000000E+00  0.00000000000E+00  0.24185132513E+03  0.24185132513E+03  0.00000000000E+00 0. -1.
         21   -1    0    0  501  502  0.00000000000E+00 -0.00000000000E+00 -0.89635142032E+02  0.89635142032E+02  0.00000000000E+00 0. -1.
         23    2    1    2    0    0 -0.37613948801E+02 -0.10746622050E+02  0.12650413080E+03  0.15995321951E+03  0.89729807155E+02 0.  0.
         23    2    1    2    0    0  0.37139070404E+02 -0.33892828300E+02  0.30982449635E+02  0.12658123852E+03  0.11195920417E+03 0.  0.
        -13    1    4    4    0    0  0.10669408148E+02 -0.60523434483E+02  0.54613209715E+02  0.82216330903E+02  0.00000000000E+00 0. -1.
         13    1    4    4    0    0  0.26469662257E+02  0.26630606183E+02 -0.23630760080E+02  0.44364907614E+02  0.00000000000E+00 0.  1.
        -13    1    3    3    0    0 -0.22738728602E+02  0.24043802586E+02  0.59796033139E+01  0.33629003509E+02  0.00000000000E+00 0.  1.
         13    1    3    3    0    0 -0.14875220199E+02 -0.34790424635E+02  0.12052452749E+03  0.12632421600E+03  0.00000000000E+00 0. -1.
          4    1    1    2  501    0  0.47487839726E+00  0.44639450350E+02 -0.52703973390E+01  0.44952009133E+02  0.00000000000E+00 0. -1.
<scales pt_clust_5="13000.00000" pt_clust_6="13000.00000" pt_clust_7="13000.00000" pt_clust_8="13000.00000" pt_clust_9="44.64198"></scales>
<clustering>
<clus scale="   44.642">  2  9  1 -1</clus>
<clus scale="   89.730">  7  8 -1 -1</clus>
<clus scale="   97.251">  1  7  2 -1</clus>
<clus scale="  111.959">  5  6 -1 -1</clus>
<clus scale="   44.642">  2  5  1 -1</clus>
</clustering>
</event>
<event>
 9    1  0.1464797E-005  0.1217404E+03  0.7546771E-02  0.1248828E+00
         -3   -1    0    0    0  501 -0.00000000000E+00  0.00000000000E+00  0.22854529581E+03  0.22854529581E+03  0.00000000000E+00 0.  1.
         21   -1    0    0  501  502  0.00000000000E+00 -0.00000000000E+00 -0.11791434418E+03  0.11791434418E+03  0.00000000000E+00 0. -1.
         23    2    1    2    0    0  0.39316016799E+02 -0.68627476614E+01  0.15552862544E+03  0.19633683823E+03  0.11298740741E+03 0.  0.
         23    2    1    2    0    0 -0.61380064764E+02  0.82723036545E+01 -0.13312985491E+02  0.11156892262E+03  0.91839237548E+02 0.  0.
        -11    1    3    3    0    0  0.12508295217E+02 -0.28487418706E+02  0.15872582846E+03  0.16174634183E+03  0.00000000000E+00 0.  1.
         11    1    3    3    0    0  0.26807721582E+02  0.21624671045E+02 -0.31972030249E+01  0.34590496403E+02  0.00000000000E+00 0. -1.
        -13    1    4    4    0    0 -0.11893887290E+02 -0.39029034478E+02  0.38835274601E+01  0.40985508081E+02  0.00000000000E+00 0.  1.
         13    1    4    4    0    0 -0.49486177474E+02  0.47301338132E+02 -0.17196512952E+02  0.70583414537E+02  0.00000000000E+00 0. -1.
         -3    1    1    2    0  502  0.22064047965E+02 -0.14095559931E+01 -0.31584688316E+02  0.38553879140E+02  0.00000000000E+00 0.  1.
<scales pt_clust_5="13000.00000" pt_clust_6="13000.00000" pt_clust_7="13000.00000" pt_clust_8="13000.00000" pt_clust_9="22.10903"></scales>
<clustering>
<clus scale="   22.109">  2  9  1 -1</clus>
<clus scale="   91.839">  7  8 -1 -1</clus>
<clus scale="  102.416">  2  7  1 -1</clus>
<clus scale="  112.987">  5  6 -1 -1</clus>
<clus scale="   22.109">  2  5  1 -1</clus>
</clustering>
</event>
<event>
 9    1  0.1580609E-005  0.9176213E+02  0.7546771E-02  0.1300317E+00
          1   -1    0    0  502    0 -0.00000000000E+00  0.00000000000E+00  0.28411818141E+03  0.28411818141E+03  0.00000000000E+00 0. -1.
         21   -1    0    0  501  502  0.00000000000E+00 -0.00000000000E+00 -0.19566135772E+03  0.19566135772E+03  0.00000000000E+00 0. -1.
         23    2    1    2    0    0 -0.18243861601E+02 -0.42194946969E+01  0.17699228124E+03  0.19984538990E+03  0.90891526678E+02 0.  0.
         23    2    1    2    0    0 -0.11901861560E+02  0.20501125754E+02  0.71741042130E+02  0.11603658219E+03  0.88066797453E+02 0.  0.
        -11    1    3    3    0    0  0.11707297843E+02  0.37436956884E+02  0.99032293772E+02  0.10651751862E+03  0.00000000000E+00 0. -1.
         11    1    3    3    0    0 -0.29951159444E+02 -0.41656451581E+02  0.77959987472E+02  0.93327871277E+02  0.00000000000E+00 0.  1.
        -11    1    4    4    0    0  0.27086030383E+02  0.28328537237E+02  0.66417611564E+01  0.39752635827E+02  0.00000000000E+00 0.  1.
         11    1    4    4    0    0 -0.38987891943E+02 -0.78274114833E+01  0.65099280974E+02  0.76283946358E+02  0.00000000000E+00 0. -1.
          1    1    1    2  501    0  0.30145723161E+02 -0.16281631057E+02 -0.16027649968E+03  0.16389756705E+03  0.00000000000E+00 0. -1.
<scales pt_clust_5="13000.00000" pt_clust_6="13000.00000" pt_clust_7="13000.00000" pt_clust_8="13000.00000" pt_clust_9="34.26158"></scales>
<clustering>
<clus scale="   34.262">  2  9  1 -1</clus>
<clus scale="   88.067">  7  8 -1 -1</clus>
<clus scale="   88.965">  2  7  1 -1</clus>
<clus scale="   90.892">  5  6 -1 -1</clus>
<clus scale="   34.262">  2  5  1 -1</clus>
</clustering>
</event>
<event>
 9    1  0.1464797E-005  0.1207108E+03  0.7546771E-02  0.1243791E+00
         21   -1    0    0  501  502  0.00000000000E+00  0.00000000000E+00  0.29818227199E+02  0.29818227199E+02  0.00000000000E+00 0.  1.
         -1   -1    0    0    0  501 -0.00000000000E+00 -0.00000000000E+00 -0.11769203811E+04  0.11769203811E+04  0.00000000000E+00 0.  1.
         23    2    1    2    0    0 -0.83335954074E+02 -0.27500426189E+02 -0.73469823005E+03  0.74553744062E+03  0.91342385790E+02 0.  0.
         23    2    1    2    0    0  0.54616615340E+02 -0.31396867327E+02 -0.11417159928E+03  0.15585511642E+03  0.85363489171E+02 0.  0.
        -13    1    4    4    0    0  0.91872002902E+01 -0.22812479692E+02 -0.10611189290E+03  0.10892450456E+03  0.00000000000E+00 0. -1.
         13    1    4    4    0    0  0.45429415050E+02 -0.85843876356E+01 -0.80597063824E+01  0.46930611863E+02  0.00000000000E+00 0.  1.
        -13    1    3    3    0    0 -0.10341638469E+03 -0.22526577169E+02 -0.62694124797E+03  0.63581264827E+03  0.00000000000E+00 0.  1.
         13    1    3    3    0    0  0.20080430611E+02 -0.49738490203E+01 -0.10775698208E+03  0.10972479235E+03  0.00000000000E+00 0. -1.
         -1    1    1    2    0  502  0.28719338734E+02  0.58897293517E+02 -0.29823232452E+03  0.30534605121E+03  0.00000000000E+00 0.  1.
<scales pt_clust_5="13000.00000" pt_clust_6="13000.00000" pt_clust_7="13000.00000" pt_clust_8="13000.00000" pt_clust_9="65.52630"></scales>
<clustering>
<clus scale="   65.526">  1  9  2 -1</clus>
<clus scale="   85.363">  5  6 -1 -1</clus>
<clus scale="   91.342">  7  8 -1 -1</clus>
<clus scale="  116.252">  1  5  2 -1</clus>
<clus scale="   65.526">  1  5  2 -1</clus>
</clustering>
</event>
<event>
 9    1  0.1464797E-005  0.1268238E+03  0.7546771E-02  0.1240558E+00
         21   -1    0    0  501  502  0.00000000000E+00  0.00000000000E+00  0.28175539447E+03  0.28175539447E+03  0.00000000000E+00 0.  1.
         -2   -1    0    0    0  501 -0.00000000000E+00 -0.00000000000E+00 -0.14926910513E+03  0.14926910513E+03  0.00000000000E+00 0.  1.
         23    2    1    2    0    0 -0.46524339519E+02 -0.83213837709E+02 -0.37548514319E+02  0.13684611296E+03  0.90707831801E+02 0.  0.
         23    2    1    2    0    0  0.20732970896E+02 -0.14178838607E+02  0.27039524553E+02  0.11925503788E+03  0.11340076113E+03 0.  0.
        -11    1    3    3    0    0 -0.68219658735E+02 -0.79040317548E+02 -0.15357929515E+02  0.10553274201E+03  0.00000000000E+00 0.  1.
         11    1    3    3    0    0  0.21695319216E+02 -0.41735201606E+01 -0.22190584804E+02  0.31313370952E+02  0.00000000000E+00 0. -1.
        -13    1    4    4    0    0 -0.24111257417E+02 -0.43820637235E+02  0.39901580095E+02  0.63982318464E+02  0.00000000000E+00 0.  1.
         13    1    4    4    0    0  0.44844228313E+02  0.29641798629E+02 -0.12862055541E+02  0.55272719416E+02  0.00000000000E+00 0. -1.
         -2    1    1    2    0  502  0.25791368623E+02  0.97392676316E+02  0.14299527910E+03  0.17492334876E+03  0.00000000000E+00 0.  1.
<scales pt_clust_5="13000.00000" pt_clust_6="13000.00000" pt_clust_7="13000.00000" pt_clust_8="13000.00000" pt_clust_9="100.74983"></scales>
<clustering>
<clus scale="   90.708">  5  6 -1 -1</clus>
<clus scale="  100.750">  1  9  2 -1</clus>
<clus scale="  107.016">  2  5  1 -1</clus>
<clus scale="  113.401">  7  8 -1 -1</clus>
<clus scale="  100.750">  1  5  2 -1</clus>
</clustering>
</event>
<event>
 9    1  0.3119288E-005  0.1272923E+03  0.7546771E-02  0.1232793E+00
          2   -1    0    0  502    0 -0.00000000000E+00  0.00000000000E+00  0.68490536647E+03  0.68490536647E+03  0.00000000000E+00 0. -1.
         21   -1    0    0  501  502  0.00000000000E+00 -0.00000000000E+00 -0.12639615293E+03  0.12639615293E+03  0.00000000000E+00 0.  1.
         23    2    1    2    0    0  0.33149593132E+02 -0.77916181879E+02  0.61917856334E+03  0.63222113642E+03  0.95664231102E+02 0.  0.
         23    2    1    2    0    0 -0.52024403545E+02  0.55782120964E+02 -0.80717885196E+02  0.14375165681E+03  0.91274192746E+02 0.  0.
        -11    1    3    3    0    0 -0.12044269465E+02  0.18016970759E+02  0.11097571095E+03  0.11307203051E+03  0.00000000000E+00 0.  1.
         11    1    3    3    0    0  0.45193862597E+02 -0.95933152639E+02  0.50820285239E+03  0.51914910591E+03  0.00000000000E+00 0. -1.
        -13    1    4    4    0    0 -0.35874869583E+02 -0.97054064464E+01 -0.64403388453E+02  0.74357229818E+02  0.00000000000E+00 0.  1.
         13    1    4    4    0    0 -0.16149533962E+02  0.65487527410E+02 -0.16314496742E+02  0.69394426991E+02  0.00000000000E+00 0. -1.
          2    1    1    2  501    0  0.18874810413E+02  0.22134060916E+02  0.20048535394E+02  0.35328726162E+02  0.00000000000E+00 0. -1.
<scales pt_clust_5="13000.00000" pt_clust_6="13000.00000" pt_clust_7="13000.00000" pt_clust_8="13000.00000" pt_clust_9="29.08909"></scales>
<clustering>
<clus scale="   29.089">  2  9  1 -1</clus>
<clus scale="   91.274">  7  8 -1 -1</clus>
<clus scale="   95.664">  5  6 -1 -1</clus>
<clus scale="  124.027">  2  7  1 -1</clus>
<clus scale="   29.089">  2  5  1 -1</clus>
</clustering>
</event>
<event>
 9    1  0.1464797E-005  0.9850660E+02  0.7546771E-02  0.1283727E+00
         21   -1    0    0  501  502  0.00000000000E+00  0.00000000000E+00  0.16434082247E+03  0.16434082247E+03  0.00000000000E+00 0.  1.
          1   -1    0    0  502    0 -0.00000000000E+00 -0.00000000000E+00 -0.18459067624E+03  0.18459067624E+03  0.00000000000E+00 0. -1.
         23    2    1    2    0    0 -0.21876454990E+02  0.29915217317E+02 -0.12999383295E+03  0.16238610493E+03  0.89985281913E+02 0.  0.
         23    2    1    2    0    0  0.10634554339E+02 -0.59697217845E+02  0.50494438182E+02  0.11928577741E+03  0.89457011126E+02 0.  0.
        -13    1    4    4    0    0  0.48431766452E+02 -0.19129542801E+02  0.18447800916E+02  0.55243974948E+02  0.00000000000E+00 0.  1.
         13    1    4    4    0    0 -0.37797212113E+02 -0.40567675044E+02  0.32046637266E+02  0.64041802458E+02  0.00000000000E+00 0. -1.
        -13    1    3    3    0    0 -0.52107456811E+02  0.37011367977E+02 -0.69715927701E+02  0.94579802231E+02  0.00000000000E+00 0. -1.
         13    1    3    3    0    0  0.30231001821E+02 -0.70961506603E+01 -0.60277905245E+02  0.67806302701E+02  0.00000000000E+00 0.  1.
          1    1    1    2  501    0  0.11241900651E+02  0.29782000528E+02  0.59249540996E+02  0.67259616368E+02  0.00000000000E+00 0. -1.
<scales pt_clust_5="13000.00000" pt_clust_6="13000.00000" pt_clust_7="13000.00000" pt_clust_8="13000.00000" pt_clust_9="31.83313"></scales>
<clustering>
<clus scale="   31.833">  1  9  2 -1</clus>
<clus scale="   89.457">  5  6 -1 -1</clus>
<clus scale="   89.985">  7  8 -1 -1</clus>
<clus scale="   98.024">  1  5  2 -1</clus>
<clus scale="   31.833">  1  5  2 -1</clus>
</clustering>
</event>
<event>
 9    1  0.1464797E-005  0.1338334E+03  0.7546771E-02  0.1222370E+00
          3   -1    0    0  502    0 -0.00000000000E+00  0.00000000000E+00  0.13609133582E+04  0.13609133582E+04  0.00000000000E+00 0. -1.
         21   -1    0    0  501  502  0.00000000000E+00 -0.00000000000E+00 -0.53961793813E+02  0.53961793813E+02  0.00000000000E+00 0. -1.
         23    2    1    2    0    0 -0.80472405133E+02 -0.16649029840E+02  0.69938564618E+03  0.71026617111E+03  0.92653945185E+02 0.  0.
         23    2    1    2    0    0  0.10929982793E+03  0.56895103054E+02  0.63139828646E+03  0.64966584214E+03  0.90655419948E+02 0.  0.
        -11    1    3    3    0    0 -0.16321117224E+02  0.36835182026E+02  0.21980325704E+03  0.22346516799E+03  0.00000000000E+00 0. -1.
         11    1    3    3    0    0 -0.64151287908E+02 -0.53484211865E+02  0.47958238914E+03  0.48680100312E+03  0.00000000000E+00 0.  1.
        -11    1    4    4    0    0  0.71173428412E+02  0.70518920672E+02  0.54648887119E+03  0.55559757146E+03  0.00000000000E+00 0. -1.
         11    1    4    4    0    0  0.38126399519E+02 -0.13623817617E+02  0.84909415273E+02  0.94068270680E+02  0.00000000000E+00 0.  1.
          3    1    1    2  501    0 -0.28827422798E+02 -0.40246073215E+02 -0.23832368290E+02  0.54943138723E+02  0.00000000000E+00 0. -1.
<scales pt_clust_5="13000.00000" pt_clust_6="13000.00000" pt_clust_7="13000.00000" pt_clust_8="13000.00000" pt_clust_9="49.50522"></scales>
<clustering>
<clus scale="   49.505">  2  9  1 -1</clus>
<clus scale="   90.655">  7  8 -1 -1</clus>
<clus scale="   92.654">  5  6 -1 -1</clus>
<clus scale="  132.458">  2  7  1 -1</clus>
<clus scale="   49.505">  2  5  1 -1</clus>
</clustering>
</event>
<event>
 9    1  0.1464797E-005  0.1345566E+03  0.7546771E-02  0.1220994E+00
         21   -1    0    0  501  502  0.00000000000E+00  0.00000000000E+00  0.56117096524E+02  0.56117096524E+02  0.00000000000E+00 0.  1.
          2   -1    0    0  502    0 -0.00000000000E+00 -0.00000000000E+00 -0.80965409324E+03  0.80965409324E+03  0.00000000000E+00 0. -1.
         23    2    1    2    0    0  0.75654775928E+02 -0.84708170504E+02 -0.48583384663E+03  0.50700515345E+03  0.90114259850E+02 0.  0.
         23    2    1    2    0    0 -0.54410642326E+02  0.64111364772E+02 -0.29435495051E+03  0.31894317748E+03  0.89493734309E+02 0.  0.
        -13    1    3    3    0    0 -0.17275354162E+02 -0.22371401003E+02 -0.54514885147E+02  0.61406759781E+02  0.00000000000E+00 0. -1.
         13    1    3    3    0    0  0.92930130089E+02 -0.62336769501E+02 -0.43131896148E+03  0.44559839367E+03  0.00000000000E+00 0.  1.
        -13    1    4    4    0    0 -0.38195511105E+02  0.60744387061E+01 -0.33338945398E+02  0.51061542813E+02  0.00000000000E+00 0.  1.
         13    1    4    4    0    0 -0.16215131220E+02  0.58036926065E+02 -0.26101600512E+03  0.26788163467E+03  0.00000000000E+00 0. -1.
          2    1    1    2  501    0 -0.21244133602E+02  0.20596805732E+02  0.26651800428E+02  0.39822858824E+02  0.00000000000E+00 0. -1.
<scales pt_clust_5="13000.00000" pt_clust_6="13000.00000" pt_clust_7="13000.00000" pt_clust_8="13000.00000" pt_clust_9="29.58955"></scales>
<clustering>
<clus scale="   29.590">  1  9  2 -1</clus>
<clus scale="   89.494">  7  8 -1 -1</clus>
<clus scale="   90.114">  5  6 -1 -1</clus>
<clus scale="  134.142">  1  7  2 -1</clus>
<clus scale="   29.590">  1  5  2 -1</clus>
</clustering>
</event>
<event>
 9    1  0.1464797E-005  0.9328366E+02  0.7546771E-02  0.1295139E+00
         -1   -1    0    0    0  501 -0.00000000000E+00  0.00000000000E+00  0.35780216596E+03  0.35780216596E+03  0.00000000000E+00 0.  1.
         21   -1    0    0  501  502  0.00000000000E+00 -0.00000000000E+00 -0.41954643884E+02  0.41954643884E+02  0.00000000000E+00 0.  1.
         23    2    1    2    0    0  0.22745022969E+02  0.13105679681E+01  0.14017958643E+03  0.16883690259E+03  0.91304597724E+02 0.  0.
         23    2    1    2    0    0  0.46883579409E+01  0.34111047074E+02  0.15084417800E+03  0.17969979262E+03  0.91392041206E+02 0.  0.
        -11    1    3    3    0    0  0.71273661436E+01 -0.39620620522E+02  0.29815237458E+02  0.50095322170E+02  0.00000000000E+00 0. -1.
         11    1    3    3    0    0  0.15617656825E+02  0.40931188490E+02  0.11036434897E+03  0.11874158042E+03  0.00000000000E+00 0.  1.
        -13    1    4    4    0    0 -0.36583694209E+02  0.22250688959E+01  0.10144946398E+03  0.10786710043E+03  0.00000000000E+00 0.  1.
         13    1    4    4    0    0  0.41272052150E+02  0.31885978178E+02  0.49394714023E+02  0.71832692185E+02  0.00000000000E+00 0. -1.
         -1    1    1    2    0  502 -0.27433380909E+02 -0.35421615042E+02  0.24823757641E+02  0.51220114640E+02  0.00000000000E+00 0.  1.
<scales pt_clust_5="13000.00000" pt_clust_6="13000.00000" pt_clust_7="13000.00000" pt_clust_8="13000.00000" pt_clust_9="44.80269"></scales>
<clustering>
<clus scale="   44.803">  2  9  1 -1</clus>
<clus scale="   91.305">  5  6 -1 -1</clus>
<clus scale="   91.392">  7  8 -1 -1</clus>
<clus scale="   93.198">  1  5  2 -1</clus>
<clus scale="   44.803">  2  5  1 -1</clus>
</clustering>
</event>
<event>
 9    1  0.1464797E-005  0.1561786E+03  0.7546771E-02  0.1194214E+00
         21   -1    0    0  501  502  0.00000000000E+00  0.00000000000E+00  0.14736883482E+03  0.14736883482E+03  0.00000000000E+00 0.  1.
         -3   -1    0    0    0  501 -0.00000000000E+00 -0.00000000000E+00 -0.89914363311E+03  0.89914363311E+03  0.00000000000E+00 0.  1.
         23    2    1    2    0    0  0.12312090758E+03 -0.71534160262E+01 -0.62470482721E+03  0.64367455378E+03  0.94079119907E+02 0.  0.
         23    2    1    2    0    0 -0.12599235323E+03  0.28009300576E+02 -0.24095412729E+03  0.28702420964E+03  0.87552335601E+02 0.  0.
        -11    1    3    3    0    0  0.11592066504E+03  0.17488927669E+02 -0.58324125630E+03  0.59490656932E+03  0.00000000000E+00 0.  1.
         11    1    3    3    0    0  0.72002425361E+01 -0.24642343695E+02 -0.41463570907E+02  0.48767984455E+02  0.00000000000E+00 0. -1.
        -13    1    4    4    0    0 -0.29329759655E+02  0.21977495317E+02 -0.12225209261E+02  0.38635486839E+02  0.00000000000E+00 0.  1.
         13    1    4    4    0    0 -0.96662593579E+02  0.60318052598E+01 -0.22872891803E+03  0.24838872280E+03  0.00000000000E+00 0. -1.
         -3    1    1    2    0  502  0.28714456580E+01 -0.20855884550E+02  0.11388415620E+03  0.11581370452E+03  0.00000000000E+00 0.  1.
<scales pt_clust_5="13000.00000" pt_clust_6="13000.00000" pt_clust_7="13000.00000" pt_clust_8="13000.00000" pt_clust_9="21.05263"></scales>
<clustering>
<clus scale="   21.053">  1  9  2 -1</clus>
<clus scale="   87.552">  7  8 -1 -1</clus>
<clus scale="   94.079">  5  6 -1 -1</clus>
<clus scale="  152.336">  1  7  2 -1</clus>
<clus scale="   21.053">  1  5  2 -1</clus>
</clustering>
</event>
<event>
 9    1  0.1464797E-005  0.2905613E+03  0.7546771E-02  0.1090669E+00
         21   -1    0    0  501  502  0.00000000000E+00  0.00000000000E+00  0.20174494463E+03  0.20174494463E+03  0.00000000000E+00 0. -1.
         -3   -1    0    0    0  501 -0.00000000000E+00 -0.00000000000E+00 -0.11542812341E+04  0.11542812341E+04  0.00000000000E+00 0.  1.
         23    2    1    2    0    0  0.94328242410E+02  0.24045462612E+03 -0.70882077018E+03  0.75808249748E+03  0.74471096433E+02 0.  0.
         23    2    1    2    0    0 -0.22120962690E+03 -0.27353332301E+03 -0.28360413556E+03  0.46088826319E+03  0.90733167061E+02 0.  0.
        -11    1    3    3    0    0  0.79152724906E+02  0.20592487290E+03 -0.50930888441E+03  0.55503670768E+03  0.00000000000E+00 0.  1.
         11    1    3    3    0    0  0.15175517504E+02  0.34529753223E+02 -0.19951188577E+03  0.20304578979E+03  0.00000000000E+00 0. -1.
        -11    1    4    4    0    0 -0.62296992558E+02 -0.84125168302E+02 -0.14052993187E+03  0.17523304761E+03  0.00000000000E+00 0.  1.
         11    1    4    4    0    0 -0.15891263434E+03 -0.18940815471E+03 -0.14307420369E+03  0.28565521558E+03  0.00000000000E+00 0. -1.
         -3    1    1    2    0  502  0.12688138449E+03  0.33078696894E+02  0.39888616259E+02  0.13705541808E+03  0.00000000000E+00 0.  1.
<scales pt_clust_5="13000.00000" pt_clust_6="13000.00000" pt_clust_7="13000.00000" pt_clust_8="13000.00000" pt_clust_9="131.12241"></scales>
<clustering>
<clus scale="   74.471">  5  6 -1 -1</clus>
<clus scale="   90.733">  7  8 -1 -1</clus>
<clus scale="  131.122">  1  9  2 -1</clus>
<clus scale="  285.901">  2  5  1 -1</clus>
<clus scale="  131.122">  1  5  2 -1</clus>
</clustering>
</event>
<event>
 9    1  0.1464797E-005  0.1560106E+03  0.7546771E-02  0.1193924E+00
         21   -1    0    0  501  502  0.00000000000E+00  0.00000000000E+00  0.15081107032E+03  0.15081107032E+03  0.00000000000E+00 0. -1.
         -1   -1    0    0    0  501 -0.00000000000E+00 -0.00000000000E+00 -0.27069985018E+03  0.27069985018E+03  0.00000000000E+00 0.  1.
         23    2    1    2    0    0 -0.10607023655E+03  0.31189635550E+02 -0.86915880777E+02  0.16842763413E+03  0.92681223342E+02 0.  0.
         23    2    1    2    0    0  0.12745937256E+03 -0.54300804028E+02 -0.87540491474E+02  0.19008135475E+03  0.96297013483E+02 0.  0.
        -13    1    3    3    0    0 -0.85496453928E+02  0.59245902392E+02 -0.83655413284E+02  0.13348388950E+03  0.00000000000E+00 0.  1.
         13    1    3    3    0    0 -0.20573782626E+02 -0.28056266843E+02 -0.32604674934E+01  0.34943744633E+02  0.00000000000E+00 0. -1.
        -13    1    4    4    0    0  0.20033034509E+02  0.16263315913E+02 -0.49862613988E+02  0.56143549851E+02  0.00000000000E+00 0.  1.
         13    1    4    4    0    0  0.10742633805E+03 -0.70564119941E+02 -0.37677877485E+02  0.13393780490E+03  0.00000000000E+00 0. -1.
         -1    1    1    2    0  502 -0.21389136009E+02  0.23111168479E+02  0.54567592390E+02  0.63001931612E+02  0.00000000000E+00 0.  1.
<scales pt_clust_5="13000.00000" pt_clust_6="13000.00000" pt_clust_7="13000.00000" pt_clust_8="13000.00000" pt_clust_9="31.49002"></scales>
<clustering>
<clus scale="   31.490">  1  9  2 -1</clus>
<clus scale="   92.681">  5  6 -1 -1</clus>
<clus scale="   96.297">  7  8 -1 -1</clus>
<clus scale="  153.805">  2  5  1 -1</clus>
<clus scale="   31.490">  1  5  2 -1</clus>
</clustering>
</event>
<event>
 9    1  0.1464797E-005  0.9913448E+02  0.7546771E-02  0.1284094E+00
         21   -1    0    0  501  502  0.00000000000E+00  0.00000000000E+00  0.39381081005E+02  0.39381081005E+02  0.00000000000E+00 0. -1.
         -1   -1    0    0    0  501 -0.00000000000E+00 -0.00000000000E+00 -0.37344060493E+03  0.37344060493E+03  0.00000000000E+00 0.  1.
         23    2    1    2    0    0  0.12416096506E+02 -0.28715930087E+02 -0.17134294988E+03  0.19602080681E+03  0.89927671681E+02 0.  0.
         23    2    1    2    0    0 -0.29866523842E+02  0.45365448511E+02 -0.16366982325E+03  0.19266309625E+03  0.85914052687E+02 0.  0.
        -11    1    3    3    0    0  0.48451928611E+02 -0.48721374641E+01 -0.11600374004E+03  0.12581015385E+03  0.00000000000E+00 0.  1.
         11    1    3    3    0    0 -0.36035832105E+02 -0.23843792623E+02 -0.55339209843E+02  0.70210652954E+02  0.00000000000E+00 0. -1.
        -13    1    4    4    0    0  0.26901835081E+02  0.14902705051E+02 -0.88344263040E+02  0.93544150863E+02  0.00000000000E+00 0.  1.
         13    1    4    4    0    0 -0.56768358923E+02  0.30462743460E+02 -0.75325560212E+02  0.99118945389E+02  0.00000000000E+00 0. -1.
         -1    1    1    2    0  502  0.17450427335E+02 -0.16649518424E+02  0.95324921140E+00  0.24137782872E+02  0.00000000000E+00 0.  1.
<scales pt_clust_5="13000.00000" pt_clust_6="13000.00000" pt_clust_7="13000.00000" pt_clust_8="13000.00000" pt_clust_9="24.11895"></scales>
<clustering>
<clus scale="   24.119">  1  9  2 -1</clus>
<clus scale="   85.914">  7  8 -1 -1</clus>
<clus scale="   89.928">  5  6 -1 -1</clus>
<clus scale="   95.509">  1  7  2 -1</clus>
<clus scale="   24.119">  1  5  2 -1</clus>
</clustering>
</event>
<event>
 9    1  0.1464797E-005  0.1146888E+03  0.7546771E-02  0.1255953E+00
         21   -1    0    0  501  502  0.00000000000E+00  0.00000000000E+00  0.53785760963E+02  0.53785760963E+02  0.00000000000E+00 0.  1.
          1   -1    0    0  502    0 -0.00000000000E+00 -0.00000000000E+00 -0.47756579701E+03  0.47756579701E+03  0.00000000000E+00 0. -1.
         23    2    1    2    0    0 -0.19185870073E+02 -0.59688494226E+02 -0.26966091446E+03  0.28854670831E+03  0.81310393776E+02 0.  0.
         23    2    1    2    0    0  0.12896211026E+02  0.79815797802E+02 -0.17468613935E+03  0.21334860449E+03  0.92008183976E+02 0.  0.
        -13    1    3    3    0    0 -0.30155918895E+02  0.94650160040E+01 -0.10399594177E+03  0.10869278668E+03  0.00000000000E+00 0.  1.
         13    1    3    3    0    0  0.10970048822E+02 -0.69153510230E+02 -0.16566497269E+03  0.17985392163E+03  0.00000000000E+00 0. -1.
        -13    1    4    4    0    0  0.33486237403E+02 -0.55408646814E+01 -0.59663684406E+02  0.68642439597E+02  0.00000000000E+00 0. -1.
         13    1    4    4    0    0 -0.20590026377E+02  0.85356662483E+02 -0.11502245494E+03  0.14470616489E+03  0.00000000000E+00 0.  1.
          1    1    1    2  501    0  0.62896590465E+01 -0.20127303576E+02  0.20567017762E+02  0.29456245175E+02  0.00000000000E+00 0. -1.
<scales pt_clust_5="13000.00000" pt_clust_6="13000.00000" pt_clust_7="13000.00000" pt_clust_8="13000.00000" pt_clust_9="21.08716"></scales>
<clustering>
<clus scale="   21.087">  1  9  2 -1</clus>
<clus scale="   81.310">  5  6 -1 -1</clus>
<clus scale="   92.008">  7  8 -1 -1</clus>
<clus scale="  106.299">  2  5  1 -1</clus>
<clus scale="   21.087">  1  5  2 -1</clus>
</clustering>
</event>
<event>
 9    1  0.1464797E-005  0.1573024E+03  0.7546771E-02  0.1214762E+00
         21   -1    0    0  501  502  0.00000000000E+00  0.00000000000E+00  0.12619497368E+03  0.12619497368E+03  0.00000000000E+00 0.  1.
         -1   -1    0    0    0  501 -0.00000000000E+00 -0.00000000000E+00 -0.68334694524E+03  0.68334694524E+03  0.00000000000E+00 0.  1.
         23    2    1    2    0    0 -0.28121199448E+02 -0.19038973471E+02 -0.12104768808E+03  0.15433491271E+03  0.89517808965E+02 0.  0.
         23    2    1    2    0    0 -0.10100793148E+03  0.31550309805E+01 -0.49421398014E+03  0.51271711558E+03  0.91754160690E+02 0.  0.
        -13    1    3    3    0    0 -0.27461061466E+02 -0.42629523582E+02 -0.27155479066E+02  0.57522223714E+02  0.00000000000E+00 0. -1.
         13    1    3    3    0    0 -0.66013798223E+00  0.23590550111E+02 -0.93892209016E+02  0.96812688996E+02  0.00000000000E+00 0.  1.
        -13    1    4    4    0    0 -0.10047559254E+03  0.33077892993E+02 -0.40651383554E+03  0.42005117568E+03  0.00000000000E+00 0.  1.
         13    1    4    4    0    0 -0.53233893277E+00 -0.29922862013E+02 -0.87700144600E+02  0.92665939906E+02  0.00000000000E+00 0. -1.
         -1    1    1    2    0  502  0.12912913093E+03  0.15883942490E+02  0.58109696667E+02  0.14248989062E+03  0.00000000000E+00 0.  1.
<scales pt_clust_5="13000.00000" pt_clust_6="13000.00000" pt_clust_7="13000.00000" pt_clust_8="13000.00000" pt_clust_9="127.77019"></scales>
<clustering>
<clus scale="   89.518">  5  6 -1 -1</clus>
<clus scale="   91.754">  7  8 -1 -1</clus>
<clus scale="   95.743">  2  5  1 -1</clus>
<clus scale="  127.770">  1  9  2 -1</clus>
<clus scale="  127.770">  1  5  2 -1</clus>
</clustering>
</event>
<event>
 9    1  0.1464797E-005  0.1555356E+03  0.7546771E-02  0.1194315E+00
         -1   -1    0    0    0  501 -0.00000000000E+00  0.00000000000E+00  0.33395856368E+03  0.33395856368E+03  0.00000000000E+00 0.  1.
         21   -1    0    0  501  502  0.00000000000E+00 -0.00000000000E+00 -0.17416573769E+03  0.17416573769E+03  0.00000000000E+00 0. -1.
         23    2    1    2    0    0  0.51677891847E+02  0.12083613976E+03  0.26140835182E+03  0.30427777645E+03  0.83538384351E+02 0.  0.
         23    2    1    2    0    0 -0.23420494185E+02 -0.11675401864E+03 -0.76850242850E+02  0.16605150572E+03  0.86528159053E+02 0.  0.
        -11    1    4    4    0    0 -0.50609262067E+02 -0.10649322732E+03 -0.57883250068E+02  0.13134905980E+03  0.00000000000E+00 0. -1.
         11    1    4    4    0    0  0.27188767882E+02 -0.10260791316E+02 -0.18966992782E+02  0.34702445916E+02  0.00000000000E+00 0.  1.
        -13    1    3    3    0    0  0.54722841249E+02  0.69402991018E+02  0.22341356368E+03  0.24026024422E+03  0.00000000000E+00 0.  1.
         13    1    3    3    0    0 -0.30449494018E+01  0.51433148747E+02  0.37994788143E+02  0.64017532230E+02  0.00000000000E+00 0. -1.
         -1    1    1    2    0  502 -0.28257397662E+02 -0.40821211289E+01 -0.24765282980E+02  0.37795019204E+02  0.00000000000E+00 0.  1.
<scales pt_clust_5="13000.00000" pt_clust_6="13000.00000" pt_clust_7="13000.00000" pt_clust_8="13000.00000" pt_clust_9="28.55073"></scales>
<clustering>
<clus scale="   28.551">  2  9  1 -1</clus>
<clus scale="   83.538">  7  8 -1 -1</clus>
<clus scale="   86.528">  5  6 -1 -1</clus>
<clus scale="  153.892">  1  7  2 -1</clus>
<clus scale="   28.551">  2  5  1 -1</clus>
</clustering>
</event>
<event>
 9    1  0.1464797E-005  0.1074381E+03  0.7546771E-02  0.1266238E+00
         21   -1    0    0  501  502  0.00000000000E+00  0.00000000000E+00  0.38581312479E+02  0.38581312479E+02  0.00000000000E+00 0. -1.
          2   -1    0    0  502    0 -0.00000000000E+00 -0.00000000000E+00 -0.73390009610E+03  0.73390009610E+03  0.00000000000E+00 0. -1.
         23    2    1    2    0    0  0.75346531666E+02 -0.19673587783E+02 -0.37577131042E+03  0.39432647550E+03  0.90692566703E+02 0.  0.
         23    2    1    2    0    0 -0.26077440478E+02 -0.47256623788E+02 -0.24096760838E+03  0.26377883539E+03  0.92739766642E+02 0.  0.
        -11    1    3    3    0    0  0.65118249677E+02  0.20173576548E+02 -0.30446713911E+03  0.31200576666E+03  0.00000000000E+00 0.  1.
         11    1    3    3    0    0  0.10228281988E+02 -0.39847164330E+02 -0.71304171312E+02  0.82320708841E+02  0.00000000000E+00 0. -1.
        -13    1    4    4    0    0 -0.22357431990E+02  0.21859110690E+02 -0.37304839607E+02  0.48675728484E+02  0.00000000000E+00 0.  1.
         13    1    4    4    0    0 -0.37200084875E+01 -0.69115734478E+02 -0.20366276878E+03  0.21510310691E+03  0.00000000000E+00 0. -1.
          2    1    1    2  501    0 -0.49269091188E+02  0.66930211570E+02 -0.78579864815E+02  0.11437609769E+03  0.00000000000E+00 0. -1.
<scales pt_clust_5="13000.00000" pt_clust_6="13000.00000" pt_clust_7="13000.00000" pt_clust_8="13000.00000" pt_clust_9="83.10894"></scales>
<clustering>
<clus scale="   83.109">  1  9  2 -1</clus>
<clus scale="   90.693">  5  6 -1 -1</clus>
<clus scale="   92.740">  7  8 -1 -1</clus>
<clus scale="  105.676">  2  5  1 -1</clus>
<clus scale="   83.109">  1  5  2 -1</clus>
</clustering>
</event>
<event>
 9    1  0.1464797E-005  0.1274542E+03  0.7546771E-02  0.1233187E+00
          2   -1    0    0  502    0 -0.00000000000E+00  0.00000000000E+00  0.44593636475E+03  0.44593636475E+03  0.00000000000E+00 0. -1.
         21   -1    0    0  501  502  0.00000000000E+00 -0.00000000000E+00 -0.75454457160E+02  0.75454457160E+02  0.00000000000E+00 0. -1.
         23    2    1    2    0    0  0.16542400259E+02  0.62181089562E+02  0.13435958015E+03  0.17557950598E+03  0.92927537546E+02 0.  0.
         23    2    1    2    0    0  0.55718161022E+02 -0.95318687534E+02  0.21883230377E+03  0.26445632817E+03  0.99294545032E+02 0.  0.
        -11    1    3    3    0    0  0.16717417731E+02 -0.22601608072E+02  0.37238407272E+02  0.46658372445E+02  0.00000000000E+00 0. -1.
         11    1    3    3    0    0 -0.17501747255E+00  0.84782697634E+02  0.97121172880E+02  0.12892113353E+03  0.00000000000E+00 0.  1.
        -11    1    4    4    0    0  0.46359526568E+02 -0.64122384564E+02  0.52484505922E+02  0.94950035638E+02  0.00000000000E+00 0. -1.
         11    1    4    4    0    0  0.93586344541E+01 -0.31196302970E+02  0.16634779785E+03  0.16950629253E+03  0.00000000000E+00 0.  1.
          2    1    1    2  501    0 -0.72260561281E+02  0.33137597971E+02  0.17290023665E+02  0.81354987765E+02  0.00000000000E+00 0. -1.
<scales pt_clust_5="13000.00000" pt_clust_6="13000.00000" pt_clust_7="13000.00000" pt_clust_8="13000.00000" pt_clust_9="79.49647"></scales>
<clustering>
<clus scale="   79.496">  2  9  1 -1</clus>
<clus scale="   92.928">  5  6 -1 -1</clus>
<clus scale="   99.295">  7  8 -1 -1</clus>
<clus scale="  122.559">  1  5  2 -1</clus>
<clus scale="   79.496">  2  5  1 -1</clus>
</clustering>
</event>
<event>
 9    1  0.1464797E-005  0.1314011E+03  0.7546771E-02  0.1226195E+00
         21   -1    0    0  501  502  0.00000000000E+00  0.00000000000E+00  0.81912187059E+03  0.81912187059E+03  0.00000000000E+00 0. -1.
          3   -1    0    0  502    0 -0.00000000000E+00 -0.00000000000E+00 -0.45289729555E+02  0.45289729555E+02  0.00000000000E+00 0. -1.
         23    2    1    2    0    0  0.33871375765E+01 -0.74209795041E+02  0.15614025778E+03  0.19497287375E+03  0.90089261400E+02 0.  0.
         23    2    1    2    0    0 -0.37134759653E+02  0.14299232543E+03  0.49367914757E+03  0.52366802599E+03  0.93184253993E+02 0.  0.
        -11    1    3    3    0    0 -0.26053401671E+02  0.38896647918E+00  0.80948302727E+02  0.85038572118E+02  0.00000000000E+00 0.  1.
         11    1    3    3    0    0  0.29440539247E+02 -0.74598761520E+02  0.75191955049E+02  0.10993430163E+03  0.00000000000E+00 0. -1.
        -11    1    4    4    0    0 -0.68635233524E+02  0.10134181221E+03  0.34020525932E+03  0.36155300670E+03  0.00000000000E+00 0. -1.
         11    1    4    4    0    0  0.31500473871E+02  0.41650513219E+02  0.15347388825E+03  0.16211501929E+03  0.00000000000E+00 0.  1.
          3    1    1    2  501    0  0.33747622076E+02 -0.68782530393E+02  0.12401273569E+03  0.14577070040E+03  0.00000000000E+00 0. -1.
<scales pt_clust_5="13000.00000" pt_clust_6="13000.00000" pt_clust_7="13000.00000" pt_clust_8="13000.00000" pt_clust_9="76.61556"></scales>
<clustering>
<clus scale="   76.616">  1  9  2 -1</clus>
<clus scale="   90.089">  5  6 -1 -1</clus>
<clus scale="   93.184">  7  8 -1 -1</clus>
<clus scale="  129.225">  2  5  1 -1</clus>
<clus scale="   76.616">  1  5  2 -1</clus>
</clustering>
</event>
<event>
 9    1  0.1464797E-005  0.9607331E+02  0.7546771E-02  0.1290236E+00
         -3   -1    0    0    0  501 -0.00000000000E+00  0.00000000000E+00  0.21792348749E+03  0.21792348749E+03  0.00000000000E+00 0.  1.
         21   -1    0    0  501  502  0.00000000000E+00 -0.00000000000E+00 -0.29716659089E+03  0.29716659089E+03  0.00000000000E+00 0.  1.
         23    2    1    2    0    0  0.34879195332E+02  0.16847454401E+02  0.10955841406E+03  0.14932400406E+03  0.93777487233E+02 0.  0.
         23    2    1    2    0    0  0.19124356896E+01  0.39472470016E+02  0.54530497514E+02  0.11330612203E+03  0.91120627910E+02 0.  0.
        -11    1    3    3    0    0  0.34275337831E+02 -0.30578199520E+02  0.24806741158E+02  0.52203443145E+02  0.00000000000E+00 0. -1.
         11    1    3    3    0    0  0.60385750109E+00  0.47425653921E+02  0.84751672898E+02  0.97120560917E+02  0.00000000000E+00 0.  1.
        -11    1    4    4    0    0  0.33711611775E+02 -0.23266705591E+01  0.50325503550E+02  0.60618004519E+02  0.00000000000E+00 0.  1.
         11    1    4    4    0    0 -0.31799176085E+02  0.41799140576E+02  0.42049939642E+01  0.52688117510E+02  0.00000000000E+00 0. -1.
         -3    1    1    2    0  502 -0.36791631022E+02 -0.56319924417E+02 -0.24333201497E+03  0.25245995229E+03  0.00000000000E+00 0.  1.
<scales pt_clust_5="13000.00000" pt_clust_6="13000.00000" pt_clust_7="13000.00000" pt_clust_8="13000.00000" pt_clust_9="67.27227"></scales>
<clustering>
<clus scale="   67.272">  2  9  1 -1</clus>
<clus scale="   91.121">  7  8 -1 -1</clus>
<clus scale="   93.482">  2  7  1 -1</clus>
<clus scale="   93.777">  5  6 -1 -1</clus>
<clus scale="   67.272">  2  5  1 -1</clus>
</clustering>
</event>
<event>
 9    1  0.1464797E-005  0.1187738E+03  0.7546771E-02  0.1245361E+00
          1   -1    0    0  502    0 -0.00000000000E+00  0.00000000000E+00  0.16816589218E+03  0.16816589218E+03  0.00000000000E+00 0. -1.
         21   -1    0    0  501  502  0.00000000000E+00 -0.00000000000E+00 -0.14118946712E+03  0.14118946712E+03  0.00000000000E+00 0. -1.
         23    2    1    2    0    0  0.84633335640E+02  0.10102017791E+02  0.33117810978E+02  0.12928629277E+03  0.91396410374E+02 0.  0.
         23    2    1    2    0    0 -0.62187725665E+02  0.45139607612E+02  0.67684385262E+01  0.11906000039E+03  0.90689440032E+02 0.  0.
        -13    1    3    3    0    0  0.67636384906E+02 -0.32441854057E+02  0.42466757538E+01  0.75134470869E+02  0.00000000000E+00 0.  1.
         13    1    3    3    0    0  0.16996950734E+02  0.42543871848E+02  0.28871135225E+02  0.54151821902E+02  0.00000000000E+00 0. -1.
        -13    1    4    4    0    0 -0.50833388066E+02 -0.72239997758E+01 -0.24642084148E+02  0.56951311014E+02  0.00000000000E+00 0.  1.
         13    1    4    4    0    0 -0.11354337598E+02  0.52363607388E+02  0.31410522674E+02  0.62108689373E+02  0.00000000000E+00 0. -1.
          1    1    1    2  501    0 -0.22445609975E+02 -0.55241625403E+02 -0.12909824451E+02  0.61009066143E+02  0.00000000000E+00 0. -1.
<scales pt_clust_5="13000.00000" pt_clust_6="13000.00000" pt_clust_7="13000.00000" pt_clust_8="13000.00000" pt_clust_9="59.62753"></scales>
<clustering>
<clus scale="   59.628">  2  9  1 -1</clus>
<clus scale="   90.689">  7  8 -1 -1</clus>
<clus scale="   91.396">  5  6 -1 -1</clus>
<clus scale="  118.231">  2  7  1 -1</clus>
<clus scale="   59.628">  2  5  1 -1</clus>
</clustering>
</event>
<event>
 9    1  0.1464797E-005  0.1067506E+03  0.7546771E-02  0.1266946E+00
         21   -1    0    0  501  502  0.00000000000E+00  0.00000000000E+00  0.25451976449E+03  0.25451976449E+03  0.00000000000E+00 0.  1.
         -2   -1    0    0    0  501 -0.00000000000E+00 -0.00000000000E+00 -0.69489842803E+02  0.69489842803E+02  0.00000000000E+00 0.  1.
         23    2    1    2    0    0  0.85472745388E+01  0.47119028215E+02  0.35071495489E+02  0.10744018069E+03  0.89555144513E+02 0.  0.
         23    2    1    2    0    0 -0.36686885700E+02 -0.65131500045E+02  0.89106706122E+02  0.14714883388E+03  0.90137308349E+02 0.  0.
        -11    1    4    4    0    0 -0.57670879619E+02 -0.74131346024E+02  0.67024535580E+02  0.11538490018E+03  0.00000000000E+00 0.  1.
         11    1    4    4    0    0  0.20983993919E+02  0.89998459797E+01  0.22082170542E+02  0.31763933703E+02  0.00000000000E+00 0. -1.
        -11    1    3    3    0    0 -0.19334419625E+02  0.21384308655E+02  0.56813545148E+02  0.63709397668E+02  0.00000000000E+00 0.  1.
         11    1    3    3    0    0  0.27881694164E+02  0.25734719561E+02 -0.21742049659E+02  0.43730783022E+02  0.00000000000E+00 0. -1.
         -2    1    1    2    0  502  0.28139611161E+02  0.18012471829E+02  0.60851720072E+02  0.69420592719E+02  0.00000000000E+00 0.  1.
<scales pt_clust_5="13000.00000" pt_clust_6="13000.00000" pt_clust_7="13000.00000" pt_clust_8="13000.00000" pt_clust_9="33.41088"></scales>
<clustering>
<clus scale="   33.411">  1  9  2 -1</clus>
<clus scale="   89.555">  7  8 -1 -1</clus>
<clus scale="   90.137">  5  6 -1 -1</clus>
<clus scale="  106.259">  2  7  1 -1</clus>
<clus scale="   33.411">  1  5  2 -1</clus>
</clustering>
</event>
<event>
 9    1  0.1464797E-005  0.9899433E+02  0.7546771E-02  0.1282952E+00
         21   -1    0    0  501  502  0.00000000000E+00  0.00000000000E+00  0.69705308411E+02  0.69705308411E+02  0.00000000000E+00 0. -1.
          1   -1    0    0  502    0 -0.00000000000E+00 -0.00000000000E+00 -0.35486569912E+03  0.35486569912E+03  0.00000000000E+00 0. -1.
         23    2    1    2    0    0 -0.47848934556E+02  0.10985215113E+02 -0.25994806049E+03  0.27900116772E+03  0.88647966383E+02 0.  0.
         23    2    1    2    0    0  0.18796670754E+02  0.24916723962E+02 -0.28717748455E+02  0.99252767172E+02  0.89734300858E+02 0.  0.
        -11    1    3    3    0    0 -0.32962885121E+01  0.44752624688E+02 -0.10138232213E+03  0.11086946457E+03  0.00000000000E+00 0. -1.
         11    1    3    3    0    0 -0.44552646044E+02 -0.33767409575E+02 -0.15856573836E+03  0.16813170314E+03  0.00000000000E+00 0.  1.
        -11    1    4    4    0    0 -0.31719157748E+02  0.30638472997E+02 -0.11462836700E+02  0.45565531063E+02  0.00000000000E+00 0. -1.
         11    1    4    4    0    0  0.50515828503E+02 -0.57217490350E+01 -0.17254911756E+02  0.53687236109E+02  0.00000000000E+00 0.  1.
          1    1    1    2  501    0  0.29052263802E+02 -0.35901939074E+02  0.35054182371E+01  0.46317072644E+02  0.00000000000E+00 0. -1.
<scales pt_clust_5="13000.00000" pt_clust_6="13000.00000" pt_clust_7="13000.00000" pt_clust_8="13000.00000" pt_clust_9="46.18423"></scales>
<clustering>
<clus scale="   46.184">  1  9  2 -1</clus>
<clus scale="   88.648">  5  6 -1 -1</clus>
<clus scale="   89.734">  7  8 -1 -1</clus>
<clus scale="   98.011">  2  5  1 -1</clus>
<clus scale="   46.184">  1  5  2 -1</clus>
</clustering>
</event>
<event>
 9    1  0.1464797E-005  0.9584622E+02  0.7546771E-02  0.1289968E+00
          1   -1    0    0  502    0 -0.00000000000E+00  0.00000000000E+00  0.96048146406E+02  0.96048146406E+02  0.00000000000E+00 0. -1.
         21   -1    0    0  501  502  0.00000000000E+00 -0.00000000000E+00 -0.16151461543E+03  0.16151461543E+03  0.00000000000E+00 0.  1.
         23    2    1    2    0    0  0.11513948489E+02  0.30444375904E+02  0.15068167654E+02  0.96511122712E+02  0.89598638922E+02 0.  0.
         23    2    1    2    0    0  0.27831916692E+02 -0.30260583726E+02 -0.52404882752E+02  0.11268415064E+03  0.90890745153E+02 0.  0.
        -11    1    3    3    0    0 -0.22676658147E+02 -0.11825938817E+02  0.30684941599E+02  0.39945579161E+02  0.00000000000E+00 0. -1.
         11    1    3    3    0    0  0.34190606635E+02  0.42270314721E+02 -0.15616773945E+02  0.56565543550E+02  0.00000000000E+00 0.  1.
        -13    1    4    4    0    0  0.44432671138E+02 -0.47770683691E+02 -0.58685780551E+02  0.87751474766E+02  0.00000000000E+00 0.  1.
         13    1    4    4    0    0 -0.16600754446E+02  0.17510099965E+02  0.62808977986E+01  0.24932675872E+02  0.00000000000E+00 0. -1.
          1    1    1    2  501    0 -0.39345865181E+02 -0.18379217782E+00 -0.28129753924E+02  0.48367488484E+02  0.00000000000E+00 0. -1.
<scales pt_clust_5="13000.00000" pt_clust_6="13000.00000" pt_clust_7="13000.00000" pt_clust_8="13000.00000" pt_clust_9="39.34629"></scales>
<clustering>
<clus scale="   39.346">  2  9  1 -1</clus>
<clus scale="   89.599">  5  6 -1 -1</clus>
<clus scale="   90.891">  7  8 -1 -1</clus>
<clus scale="   94.622">  1  5  2 -1</clus>
<clus scale="   39.346">  2  5  1 -1</clus>
</clustering>
</event>
<event>
 9    1  0.1464797E-005  0.1454904E+03  0.7546771E-02  0.1206484E+00
         21   -1    0    0  501  502  0.00000000000E+00  0.00000000000E+00  0.12776624370E+03  0.12776624370E+03  0.00000000000E+00 0. -1.
          3   -1    0    0  502    0 -0.00000000000E+00 -0.00000000000E+00 -0.40246527548E+03  0.40246527548E+03  0.00000000000E+00 0. -1.
         23    2    1    2    0    0  0.17741004489E+02 -0.94130867068E+02 -0.18641439627E+03  0.22882518726E+03  0.91843757618E+02 0.  0.
         23    2    1    2    0    0 -0.24361685417E+02  0.17376397658E+03 -0.26962382553E+02  0.20068054448E+03  0.93585787303E+02 0.  0.
        -11    1    4    4    0    0 -0.49036901460E+02  0.10465194488E+03  0.14362665285E+02  0.11646000784E+03  0.00000000000E+00 0. -1.
         11    1    4    4    0    0  0.24675216043E+02  0.69112031700E+02 -0.41325047838E+02  0.84220536636E+02  0.00000000000E+00 0.  1.
        -13    1    3    3    0    0 -0.19871907479E+02 -0.89624120028E+02 -0.15240005825E+03  0.17791333102E+03  0.00000000000E+00 0.  1.
         13    1    3    3    0    0  0.37612911968E+02 -0.45067470397E+01 -0.34014338014E+02  0.50911856243E+02  0.00000000000E+00 0. -1.
          3    1    1    2  501    0  0.66206809282E+01 -0.79633109516E+02 -0.61322252956E+02  0.10072578744E+03  0.00000000000E+00 0. -1.
<scales pt_clust_5="13000.00000" pt_clust_6="13000.00000" pt_clust_7="13000.00000" pt_clust_8="13000.00000" pt_clust_9="79.90790"></scales>
<clustering>
<clus scale="   79.908">  1  9  2 -1</clus>
<clus scale="   91.844">  7  8 -1 -1</clus>
<clus scale="   93.586">  5  6 -1 -1</clus>
<clus scale="  144.376">  2  7  1 -1</clus>
<clus scale="   79.908">  1  5  2 -1</clus>
</clustering>
</event>
<event>
 9    1  0.1464797E-005  0.1292187E+03  0.7546771E-02  0.1230887E+00
          1   -1    0    0  502    0 -0.00000000000E+00  0.00000000000E+00  0.54210776358E+03  0.54210776358E+03  0.00000000000E+00 0. -1.
         21   -1    0    0  501  502  0.00000000000E+00 -0.00000000000E+00 -0.35197886886E+02  0.35197886886E+02  0.00000000000E+00 0.  1.
         23    2    1    2    0    0  0.71409815659E+02  0.56251097134E+02  0.23993939592E+03  0.27214561004E+03  0.90712577124E+02 0.  0.
         23    2    1    2    0    0 -0.67181794297E+02 -0.35978810561E+02  0.20591010926E+03  0.24068360491E+03  0.98598966944E+02 0.  0.
        -13    1    4    4    0    0 -0.33295320955E+02 -0.33122058060E+02  0.18929499482E+02  0.50635709517E+02  0.00000000000E+00 0.  1.
         13    1    4    4    0    0 -0.33886473342E+02 -0.28567525015E+01  0.18698060978E+03  0.19004789539E+03  0.00000000000E+00 0. -1.
        -13    1    3    3    0    0  0.67903235096E+02 -0.28174321901E+01  0.14727819555E+03  0.16220250967E+03  0.00000000000E+00 0.  1.
         13    1    3    3    0    0  0.35065805632E+01  0.59068529324E+02  0.92661200374E+02  0.10994310037E+03  0.00000000000E+00 0. -1.
          1    1    1    2  501    0 -0.42280213616E+01 -0.20272286573E+02  0.61060371514E+02  0.64476435517E+02  0.00000000000E+00 0. -1.
<scales pt_clust_5="13000.00000" pt_clust_6="13000.00000" pt_clust_7="13000.00000" pt_clust_8="13000.00000" pt_clust_9="20.70851"></scales>
<clustering>
<clus scale="   20.709">  2  9  1 -1</clus>
<clus scale="   90.713">  7  8 -1 -1</clus>
<clus scale="   98.599">  5  6 -1 -1</clus>
<clus scale="  123.306">  1  7  2 -1</clus>
<clus scale="   20.709">  2  5  1 -1</clus>
</clustering>
</event>
<event>
 9    1  0.1464797E-005  0.1114702E+03  0.7546771E-02  0.1259217E+00
          1   -1    0    0  502    0 -0.00000000000E+00  0.00000000000E+00  0.31569210908E+03  0.31569210908E+03  0.00000000000E+00 0. -1.
         21   -1    0    0  501  502  0.00000000000E+00 -0.00000000000E+00 -0.74902759156E+02  0.74902759156E+02  0.00000000000E+00 0. -1.
         23    2    1    2    0    0  0.61433139802E+02  0.28821232391E+02  0.16972379111E+03  0.20540599360E+03  0.93705724664E+02 0.  0.
         23    2    1    2    0    0 -0.36450406626E+02 -0.38963021801E+02  0.10054288571E+03  0.14524008679E+03  0.90216748633E+02 0.  0.
        -13    1    4    4    0    0 -0.25487309080E+02  0.23874227239E+02  0.60710473788E+02  0.70038155872E+02  0.00000000000E+00 0.  1.
         13    1    4    4    0    0 -0.10963097547E+02 -0.62837249040E+02  0.39832411918E+02  0.75201930919E+02  0.00000000000E+00 0. -1.
        -13    1    3    3    0    0  0.54834524758E+02  0.61302032453E+02  0.11405844397E+03  0.14062038590E+03  0.00000000000E+00 0. -1.
         13    1    3    3    0    0  0.65986150433E+01 -0.32480800063E+02  0.55665347139E+02  0.64785607702E+02  0.00000000000E+00 0.  1.
          1    1    1    2  501    0 -0.24982733175E+02  0.10141789410E+02 -0.29477326895E+02  0.39948787844E+02  0.00000000000E+00 0. -1.
<scales pt_clust_5="13000.00000" pt_clust_6="13000.00000" pt_clust_7="13000.00000" pt_clust_8="13000.00000" pt_clust_9="26.96280"></scales>
<clustering>
<clus scale="   26.963">  2  9  1 -1</clus>
<clus scale="   90.217">  5  6 -1 -1</clus>
<clus scale="   93.706">  7  8 -1 -1</clus>
<clus scale="  108.554">  2  5  1 -1</clus>
<clus scale="   26.963">  2  5  1 -1</clus>
</clustering>
</event>
<event>
 9    1  0.1464797E-005  0.9613989E+02  0.7546771E-02  0.1289517E+00
         -1   -1    0    0    0  501 -0.00000000000E+00  0.00000000000E+00  0.98514053895E+03  0.98514053895E+03  0.00000000000E+00 0.  1.
         21   -1    0    0  501  502  0.00000000000E+00 -0.00000000000E+00 -0.18871785892E+02  0.18871785892E+02  0.00000000000E+00 0. -1.
         23    2    1    2    0    0 -0.29940104906E+02  0.19375273360E+01  0.49143315175E+03  0.50101767566E+03  0.92800887858E+02 0.  0.
         23    2    1    2    0    0  0.71484890017E+01  0.35954615187E+02  0.18187561767E+03  0.20671636069E+03  0.91154145414E+02 0.  0.
        -11    1    4    4    0    0  0.63720753254E+01  0.57042338256E+02  0.17553743755E+03  0.18468303571E+03  0.00000000000E+00 0.  1.
         11    1    4    4    0    0  0.77641367633E+00 -0.21087723069E+02  0.63381801186E+01  0.22033324979E+02  0.00000000000E+00 0. -1.
        -11    1    3    3    0    0 -0.10848577211E+02  0.47114792138E+02  0.23068343572E+03  0.23569544497E+03  0.00000000000E+00 0. -1.
         11    1    3    3    0    0 -0.19091527695E+02 -0.45177264802E+02  0.26074971604E+03  0.26532223069E+03  0.00000000000E+00 0.  1.
         -1    1    1    2    0  502  0.22791615904E+02 -0.37892142523E+02  0.29295998364E+03  0.29627828850E+03  0.00000000000E+00 0.  1.
<scales pt_clust_5="13000.00000" pt_clust_6="13000.00000" pt_clust_7="13000.00000" pt_clust_8="13000.00000" pt_clust_9="44.21848"></scales>
<clustering>
<clus scale="   44.218">  2  9  1 -1</clus>
<clus scale="   91.154">  5  6 -1 -1</clus>
<clus scale="   92.801">  7  8 -1 -1</clus>
<clus scale="   94.551">  2  5  1 -1</clus>
<clus scale="   44.218">  2  5  1 -1</clus>
</clustering>
</event>
<event>
 9    1  0.1464797E-005  0.1942618E+03  0.7546771E-02  0.1154864E+00
         21   -1    0    0  501  502  0.00000000000E+00  0.00000000000E+00  0.16075322937E+03  0.16075322937E+03  0.00000000000E+00 0.  1.
          2   -1    0    0  502    0 -0.00000000000E+00 -0.00000000000E+00 -0.30950936297E+03  0.30950936297E+03  0.00000000000E+00 0. -1.
         23    2    1    2    0    0 -0.58747762839E+02 -0.16768896706E+03 -0.14471975253E+03  0.24698567963E+03  0.92126162731E+02 0.  0.
         23    2    1    2    0    0  0.22837708179E+02  0.16013531978E+03 -0.12347293539E+02  0.18565164355E+03  0.90272894820E+02 0.  0.
        -13    1    4    4    0    0  0.48015993792E+02  0.11510377694E+03 -0.34655508571E+02  0.12944272633E+03  0.00000000000E+00 0.  1.
         13    1    4    4    0    0 -0.25178285614E+02  0.45031542847E+02  0.22308215033E+02  0.56208917224E+02  0.00000000000E+00 0. -1.
        -13    1    3    3    0    0 -0.34627325053E+02 -0.24862573006E+02 -0.57026455043E+00  0.42632433410E+02  0.00000000000E+00 0.  1.
         13    1    3    3    0    0 -0.24120437786E+02 -0.14282639406E+03 -0.14414948798E+03  0.20435324622E+03  0.00000000000E+00 0. -1.
          2    1    1    2  501    0  0.35910054660E+02  0.75536472772E+01  0.83109124663E+01  0.37625269154E+02  0.00000000000E+00 0. -1.
<scales pt_clust_5="13000.00000" pt_clust_6="13000.00000" pt_clust_7="13000.00000" pt_clust_8="13000.00000" pt_clust_9="36.69591"></scales>
<clustering>
<clus scale="   36.696">  1  9  2 -1</clus>
<clus scale="   90.273">  5  6 -1 -1</clus>
<clus scale="   92.126">  7  8 -1 -1</clus>
<clus scale="  193.390">  1  5  2 -1</clus>
<clus scale="   36.696">  1  5  2 -1</clus>
</clustering>
</event>
<event>
 9    1  0.1464797E-005  0.9439735E+02  0.7546771E-02  0.1293113E+00
         -3   -1    0    0    0  501 -0.00000000000E+00  0.00000000000E+00  0.28172498587E+03  0.28172498587E+03  0.00000000000E+00 0.  1.
         21   -1    0    0  501  502  0.00000000000E+00 -0.00000000000E+00 -0.12870634335E+03  0.12870634335E+03  0.00000000000E+00 0.  1.
         23    2    1    2    0    0  0.47998084611E+01 -0.13467392461E+02  0.14863687595E+03  0.17542207401E+03  0.92062882505E+02 0.  0.
         23    2    1    2    0    0 -0.25497206126E+02  0.20175715725E+02  0.98737281903E+02  0.13817771518E+03  0.91032209182E+02 0.  0.
        -13    1    4    4    0    0 -0.13222680456E+02  0.56570823251E+02  0.63293075043E+02  0.85913390517E+02  0.00000000000E+00 0.  1.
         13    1    4    4    0    0 -0.12274525671E+02 -0.36395107525E+02  0.35444206860E+02  0.52264324660E+02  0.00000000000E+00 0. -1.
        -13    1    3    3    0    0  0.35252393176E+02 -0.23191529238E+01  0.13617153644E+03  0.14067976767E+03  0.00000000000E+00 0.  1.
         13    1    3    3    0    0 -0.30452584715E+02 -0.11148239537E+02  0.12465339513E+02  0.34742306339E+02  0.00000000000E+00 0. -1.
         -3    1    1    2    0  502  0.20697397665E+02 -0.67083232641E+01 -0.94355515341E+02  0.96831540040E+02  0.00000000000E+00 0.  1.
<scales pt_clust_5="13000.00000" pt_clust_6="13000.00000" pt_clust_7="13000.00000" pt_clust_8="13000.00000" pt_clust_9="21.75739"></scales>
<clustering>
<clus scale="   21.757">  2  9  1 -1</clus>
<clus scale="   91.032">  5  6 -1 -1</clus>
<clus scale="   92.063">  7  8 -1 -1</clus>
<clus scale="   93.392">  2  5  1 -1</clus>
<clus scale="   21.757">  2  5  1 -1</clus>
</clustering>
</event>
<event>
 9    1  0.1464797E-005  0.1006170E+03  0.7546771E-02  0.1292107E+00
          1   -1    0    0  502    0 -0.00000000000E+00  0.00000000000E+00  0.28886775850E+03  0.28886775850E+03  0.00000000000E+00 0. -1.
         21   -1    0    0  501  502  0.00000000000E+00 -0.00000000000E+00 -0.58863012595E+02  0.58863012595E+02  0.00000000000E+00 0.  1.
         23    2    1    2    0    0 -0.31569298456E+02  0.40066839276E+02  0.18745337767E+03  0.20494348716E+03  0.65277039746E+02 0.  0.
         23    2    1    2    0    0  0.10007923969E+01 -0.24886931746E+02  0.51969361790E+02  0.10738160984E+03  0.90607033996E+02 0.  0.
        -11    1    3    3    0    0 -0.44139145716E+02  0.20272589394E+02  0.70181291210E+02  0.85350194500E+02  0.00000000000E+00 0.  1.
         11    1    3    3    0    0  0.12569847260E+02  0.19794249881E+02  0.11727208646E+03  0.11959329266E+03  0.00000000000E+00 0. -1.
        -13    1    4    4    0    0 -0.18886063505E+02 -0.54788778657E+02  0.34533007303E+02  0.67461264848E+02  0.00000000000E+00 0.  1.
         13    1    4    4    0    0  0.19886855902E+02  0.29901846912E+02  0.17436354488E+02  0.39920344991E+02  0.00000000000E+00 0. -1.
          1    1    1    2  501    0  0.30568506059E+02 -0.15179907530E+02 -0.94179935522E+01  0.35405674091E+02  0.00000000000E+00 0. -1.
<scales pt_clust_5="13000.00000" pt_clust_6="13000.00000" pt_clust_7="13000.00000" pt_clust_8="13000.00000" pt_clust_9="34.13009"></scales>
<clustering>
<clus scale="   34.130">  2  9  1 -1</clus>
<clus scale="   65.277">  5  6 -1 -1</clus>
<clus scale="   78.583">  1  5  2 -1</clus>
<clus scale="   90.607">  7  8 -1 -1</clus>
<clus scale="   34.130">  2  5  1 -1</clus>
</clustering>
</event>
<event>
 9    1  0.1464797E-005  0.1460800E+03  0.7546771E-02  0.1205953E+00
         21   -1    0    0  501  502  0.00000000000E+00  0.00000000000E+00  0.24357745012E+03  0.24357745012E+03  0.00000000000E+00 0. -1.
          4   -1    0    0  502    0 -0.00000000000E+00 -0.00000000000E+00 -0.17805396024E+03  0.17805396024E+03  0.00000000000E+00 0. -1.
         23    2    1    2    0    0  0.31429101793E+02  0.10876387109E+03 -0.78712972977E+02  0.16651142152E+03  0.93343201621E+02 0.  0.
         23    2    1    2    0    0 -0.62599173654E+02 -0.86939056554E+02  0.48140938538E+02  0.15176503877E+03  0.96114623924E+02 0.  0.
        -13    1    4    4    0    0  0.20763510343E+02 -0.13586214930E+02  0.30521582997E+02  0.39335424576E+02  0.00000000000E+00 0.  1.
         13    1    4    4    0    0 -0.83362683997E+02 -0.73352841624E+02  0.17619355541E+02  0.11242961419E+03  0.00000000000E+00 0. -1.
        -13    1    3    3    0    0 -0.32380737514E+02  0.24600955900E+02 -0.16155663977E+02  0.43757567022E+02  0.00000000000E+00 0.  1.
         13    1    3    3    0    0  0.63809839307E+02  0.84162915190E+02 -0.62557309000E+02  0.12275385450E+03  0.00000000000E+00 0. -1.
          4    1    1    2  501    0  0.31170071860E+02 -0.21824814537E+02  0.96095524319E+02  0.10335495007E+03  0.00000000000E+00 0. -1.
<scales pt_clust_5="13000.00000" pt_clust_6="13000.00000" pt_clust_7="13000.00000" pt_clust_8="13000.00000" pt_clust_9="38.05123"></scales>
<clustering>
<clus scale="   38.051">  1  9  2 -1</clus>
<clus scale="   93.343">  7  8 -1 -1</clus>
<clus scale="   96.115">  5  6 -1 -1</clus>
<clus scale="  144.272">  2  7  1 -1</clus>
<clus scale="   38.051">  1  5  2 -1</clus>
</clustering>
</event>
<event>
 9    1  0.1464797E-005  0.1357928E+03  0.7546771E-02  0.1219968E+00
          1   -1    0    0  502    0 -0.00000000000E+00  0.00000000000E+00  0.26199552461E+03  0.26199552461E+03  0.00000000000E+00 0. -1.
         21   -1    0    0  501  502  0.00000000000E+00 -0.00000000000E+00 -0.16255170657E+03  0.16255170657E+03  0.00000000000E+00 0.  1.
         23    2    1    2    0    0  0.20186647013E+02  0.94873831411E+02  0.17935061013E+03  0.22509197170E+03  0.95347835678E+02 0.  0.
         23    2    1    2    0    0 -0.61777437733E+02 -0.82472879184E+02 -0.70720367070E+02  0.15509347532E+03  0.91838925047E+02 0.  0.
        -11    1    3    3    0    0  0.56100096125E+02  0.72603001972E+02  0.13975315949E+03  0.16718062767E+03  0.00000000000E+00 0. -1.
         11    1    3    3    0    0 -0.35913449112E+02  0.22270829439E+02  0.39597450641E+02  0.57911344038E+02  0.00000000000E+00 0.  1.
        -11    1    4    4    0    0 -0.20691177385E+02 -0.19761888635E+02 -0.74724418972E+02  0.80014972691E+02  0.00000000000E+00 0.  1.
         11    1    4    4    0    0 -0.41086260348E+02 -0.62710990549E+02  0.40040519023E+01  0.75078502627E+02  0.00000000000E+00 0. -1.
          1    1    1    2  501    0  0.41590790720E+02 -0.12400952227E+02 -0.91864250209E+01  0.44361784156E+02  0.00000000000E+00 0. -1.
<scales pt_clust_5="13000.00000" pt_clust_6="13000.00000" pt_clust_7="13000.00000" pt_clust_8="13000.00000" pt_clust_9="43.40020"></scales>
<clustering>
<clus scale="   43.400">  2  9  1 -1</clus>
<clus scale="   91.839">  7  8 -1 -1</clus>
<clus scale="   95.348">  5  6 -1 -1</clus>
<clus scale="  133.352">  2  7  1 -1</clus>
<clus scale="   43.400">  2  5  1 -1</clus>
</clustering>
</event>
<event>
 9    1  0.1464797E-005  0.1097179E+03  0.7546771E-02  0.1262036E+00
          1   -1    0    0  502    0 -0.00000000000E+00  0.00000000000E+00  0.32353539572E+03  0.32353539572E+03  0.00000000000E+00 0. -1.
         21   -1    0    0  501  502  0.00000000000E+00 -0.00000000000E+00 -0.13383898452E+03  0.13383898452E+03  0.00000000000E+00 0. -1.
         23    2    1    2    0    0  0.26018667658E+02  0.63825087180E+02  0.24575552836E+03  0.27042035825E+03  0.89335198075E+02 0.  0.
         23    2    1    2    0    0 -0.38411590979E+02 -0.13455683687E+02  0.12322943077E+02  0.10112414654E+03  0.91748200756E+02 0.  0.
        -11    1    4    4    0    0  0.78498456373E+01  0.32877619016E+02  0.11304082006E+02  0.35641831865E+02  0.00000000000E+00 0.  1.
         11    1    4    4    0    0 -0.46261436616E+02 -0.46333302703E+02  0.10188610705E+01  0.65482314674E+02  0.00000000000E+00 0. -1.
        -13    1    3    3    0    0  0.29498294337E+01  0.77809104197E+02  0.12976189893E+03  0.15133112239E+03  0.00000000000E+00 0. -1.
         13    1    3    3    0    0  0.23068838224E+02 -0.13984017017E+02  0.11599362944E+03  0.11908923586E+03  0.00000000000E+00 0.  1.
          1    1    1    2  501    0  0.12392923321E+02 -0.50369403493E+02 -0.68382060241E+02  0.85829875448E+02  0.00000000000E+00 0. -1.
<scales pt_clust_5="13000.00000" pt_clust_6="13000.00000" pt_clust_7="13000.00000" pt_clust_8="13000.00000" pt_clust_9="51.87159"></scales>
<clustering>
<clus scale="   51.872">  2  9  1 -1</clus>
<clus scale="   89.335">  7  8 -1 -1</clus>
<clus scale="   91.748">  5  6 -1 -1</clus>
<clus scale="  107.708">  1  7  2 -1</clus>
<clus scale="   51.872">  2  5  1 -1</clus>
</clustering>
</event>
<event>
 9    1  0.1464797E-005  0.9750828E+02  0.7546771E-02  0.1288580E+00
         -3   -1    0    0    0  501 -0.00000000000E+00  0.00000000000E+00  0.15064421762E+03  0.15064421762E+03  0.00000000000E+00 0. -1.
         21   -1    0    0  501  502  0.00000000000E+00 -0.00000000000E+00 -0.15498429382E+03  0.15498429382E+03  0.00000000000E+00 0. -1.
         23    2    1    2    0    0 -0.35361030554E+02  0.10624589331E+02  0.72370512414E+02  0.12393338115E+03  0.93587966730E+02 0.  0.
         23    2    1    2    0    0  0.32867323229E+01  0.45912205833E+02 -0.40765885250E+02  0.10741733068E+03  0.88078898024E+02 0.  0.
        -13    1    3    3    0    0  0.22310739236E+02  0.25105910303E+02  0.48051506454E+01  0.33928826831E+02  0.00000000000E+00 0.  1.
         13    1    3    3    0    0 -0.57671769789E+02 -0.14481320972E+02  0.67565361768E+02  0.90004554322E+02  0.00000000000E+00 0. -1.
        -13    1    4    4    0    0 -0.31976708533E+02  0.54338172611E+02 -0.27900327508E+02  0.68946175864E+02  0.00000000000E+00 0. -1.
         13    1    4    4    0    0  0.35263440856E+02 -0.84259667775E+01 -0.12865557742E+02  0.38471154819E+02  0.00000000000E+00 0.  1.
         -3    1    1    2    0  502  0.32074298231E+02 -0.56536795164E+02 -0.35944703356E+02  0.74277799602E+02  0.00000000000E+00 0. -1.
<scales pt_clust_5="13000.00000" pt_clust_6="13000.00000" pt_clust_7="13000.00000" pt_clust_8="13000.00000" pt_clust_9="65.00131"></scales>
<clustering>
<clus scale="   65.001">  2  9  1 -1</clus>
<clus scale="   88.079">  7  8 -1 -1</clus>
<clus scale="   92.234">  2  7  1 -1</clus>
<clus scale="   93.588">  5  6 -1 -1</clus>
<clus scale="   65.001">  2  5  1 -1</clus>
</clustering>
</event>
<event>
 9    1  0.1464797E-005  0.1622795E+03  0.7546771E-02  0.1206238E+00
          2   -1    0    0  502    0 -0.00000000000E+00  0.00000000000E+00  0.32990496444E+03  0.32990496444E+03  0.00000000000E+00 0. -1.
         21   -1    0    0  501  502  0.00000000000E+00 -0.00000000000E+00 -0.20071180407E+03  0.20071180407E+03  0.00000000000E+00 0. -1.
         23    2    1    2    0    0  0.52241725536E+02  0.22406555440E+01  0.19506087194E+03  0.22133324183E+03  0.90583893442E+02 0.  0.
         23    2    1    2    0    0  0.96776523359E+02 -0.44018206323E+02  0.28546268550E+01  0.13994787759E+03  0.90961319169E+02 0.  0.
        -11    1    4    4    0    0  0.38372661256E+02 -0.65756786534E+02  0.11620872830E+02  0.77015977515E+02  0.00000000000E+00 0.  1.
         11    1    4    4    0    0  0.58403862103E+02  0.21738580211E+02 -0.87662459748E+01  0.62931900072E+02  0.00000000000E+00 0. -1.
        -13    1    3    3    0    0 -0.13495708546E+02 -0.21672395935E+02  0.18820597611E+02  0.31718161819E+02  0.00000000000E+00 0.  1.
         13    1    3    3    0    0  0.65737434082E+02  0.23913051479E+02  0.17624027433E+03  0.18961508001E+03  0.00000000000E+00 0. -1.
          2    1    1    2  501    0 -0.14901824890E+03  0.41777550779E+02 -0.68722338427E+02  0.16933564909E+03  0.00000000000E+00 0. -1.
<scales pt_clust_5="13000.00000" pt_clust_6="13000.00000" pt_clust_7="13000.00000" pt_clust_8="13000.00000" pt_clust_9="134.38995"></scales>
<clustering>
<clus scale="   90.584">  7  8 -1 -1</clus>
<clus scale="   90.961">  5  6 -1 -1</clus>
<clus scale="  104.593">  1  7  2 -1</clus>
<clus scale="  134.390">  2  9  1 -1</clus>
<clus scale="  134.390">  2  5  1 -1</clus>
</clustering>
</event>
<event>
 9    1  0.1464797E-005  0.1710187E+03  0.7546771E-02  0.1180978E+00
         21   -1    0    0  501  502  0.00000000000E+00  0.00000000000E+00  0.64086965094E+03  0.64086965094E+03  0.00000000000E+00 0.  1.
         -3   -1    0    0    0  501 -0.00000000000E+00 -0.00000000000E+00 -0.56486618440E+02  0.56486618440E+02  0.00000000000E+00 0.  1.
         23    2    1    2    0    0  0.59513308383E+02  0.11569912823E+03  0.16631365597E+03  0.23432679253E+03  0.10159080367E+03 0.  0.
         23    2    1    2    0    0 -0.61909188915E+02 -0.13997407975E+03  0.39335336785E+03  0.42830348370E+03  0.72742776126E+02 0.  0.
        -11    1    4    4    0    0 -0.10689026643E+02 -0.10898348061E+03  0.24763781407E+03  0.27076953539E+03  0.00000000000E+00 0. -1.
         11    1    4    4    0    0 -0.51220162272E+02 -0.30990599137E+02  0.14571555378E+03  0.15753394831E+03  0.00000000000E+00 0.  1.
        -13    1    3    3    0    0  0.49134626820E+02  0.49292075872E+02  0.18600955234E+02  0.72041070454E+02  0.00000000000E+00 0.  1.
         13    1    3    3    0    0  0.10378681563E+02  0.66407052356E+02  0.14771270073E+03  0.16228572208E+03  0.00000000000E+00 0. -1.
         -3    1    1    2    0  502  0.23958805323E+01  0.24274951519E+02  0.24716008690E+02  0.34725993151E+02  0.00000000000E+00 0.  1.
<scales pt_clust_5="13000.00000" pt_clust_6="13000.00000" pt_clust_7="13000.00000" pt_clust_8="13000.00000" pt_clust_9="24.39291"></scales>
<clustering>
<clus scale="   24.393">  1  9  2 -1</clus>
<clus scale="   72.743">  5  6 -1 -1</clus>
<clus scale="  101.591">  7  8 -1 -1</clus>
<clus scale="  155.622">  1  5  2 -1</clus>
<clus scale="   24.393">  1  5  2 -1</clus>
</clustering>
</event>
<event>
 9    1  0.1464797E-005  0.9546031E+02  0.7546771E-02  0.1290199E+00
         -1   -1    0    0    0  501 -0.00000000000E+00  0.00000000000E+00  0.13074759762E+03  0.13074759762E+03  0.00000000000E+00 0.  1.
         21   -1    0    0  501  502  0.00000000000E+00 -0.00000000000E+00 -0.21686657149E+03  0.21686657149E+03  0.00000000000E+00 0. -1.
         23    2    1    2    0    0  0.12161166150E+02 -0.22474229209E+02  0.74405743457E+02  0.11987376478E+03  0.90446226467E+02 0.  0.
         23    2    1    2    0    0  0.64977395352E+01  0.59422513385E+02 -0.72155963276E+02  0.13015778724E+03  0.90339973586E+02 0.  0.
        -11    1    4    4    0    0  0.27804918705E+02 -0.11304316854E+02 -0.52015663321E+01  0.30462392816E+02  0.00000000000E+00 0.  1.
         11    1    4    4    0    0 -0.21307179170E+02  0.70726830239E+02 -0.66954396944E+02  0.99695394427E+02  0.00000000000E+00 0. -1.
        -13    1    3    3    0    0  0.43449149594E+02  0.14260031492E+02  0.35622841577E+02  0.57966921090E+02  0.00000000000E+00 0. -1.
         13    1    3    3    0    0 -0.31287983444E+02 -0.36734260701E+02  0.38782901879E+02  0.61906843688E+02  0.00000000000E+00 0.  1.
         -1    1    1    2    0  502 -0.18658905685E+02 -0.36948284176E+02 -0.88368754047E+02  0.97582617083E+02  0.00000000000E+00 0.  1.
<scales pt_clust_5="13000.00000" pt_clust_6="13000.00000" pt_clust_7="13000.00000" pt_clust_8="13000.00000" pt_clust_9="41.39240"></scales>
<clustering>
<clus scale="   41.392">  2  9  1 -1</clus>
<clus scale="   90.340">  5  6 -1 -1</clus>
<clus scale="   90.446">  7  8 -1 -1</clus>
<clus scale="   95.360">  2  5  1 -1</clus>
<clus scale="   41.392">  2  5  1 -1</clus>
</clustering>
</event>
<event>
 9    1  0.1464797E-005  0.9669986E+02  0.7546771E-02  0.1287997E+00
         21   -1    0    0  501  502  0.00000000000E+00  0.00000000000E+00  0.40634038279E+02  0.40634038279E+02  0.00000000000E+00 0.  1.
          3   -1    0    0  502    0 -0.00000000000E+00 -0.00000000000E+00 -0.41580250163E+03  0.41580250163E+03  0.00000000000E+00 0. -1.
         23    2    1    2    0    0 -0.18627663215E+02 -0.16268360700E+02 -0.24477092992E+03  0.26346673804E+03  0.94288199282E+02 0.  0.
         23    2    1    2    0    0  0.52966140786E+01 -0.46435761632E+01 -0.13720080583E+03  0.16725384398E+03  0.95394812678E+02 0.  0.
        -13    1    3    3    0    0  0.20744358212E+02  0.81472411044E+01 -0.10459490580E+02  0.24619237975E+02  0.00000000000E+00 0.  1.
         13    1    3    3    0    0 -0.39372021427E+02 -0.24415601804E+02 -0.23431143934E+03  0.23884750007E+03  0.00000000000E+00 0. -1.
        -13    1    4    4    0    0 -0.34203372439E+02  0.26219753975E+02 -0.45007694432E+02  0.62314033273E+02  0.00000000000E+00 0.  1.
         13    1    4    4    0    0  0.39499986518E+02 -0.30863330138E+02 -0.92193111400E+02  0.10493981071E+03  0.00000000000E+00 0. -1.
          3    1    1    2  501    0  0.13331049136E+02  0.20911936863E+02  0.68032724023E+01  0.25715957883E+02  0.00000000000E+00 0. -1.
<scales pt_clust_5="13000.00000" pt_clust_6="13000.00000" pt_clust_7="13000.00000" pt_clust_8="13000.00000" pt_clust_9="24.79972"></scales>
<clustering>
<clus scale="   24.800">  1  9  2 -1</clus>
<clus scale="   94.288">  5  6 -1 -1</clus>
<clus scale="   95.395">  7  8 -1 -1</clus>
<clus scale="   95.608">  2  5  1 -1</clus>
<clus scale="   24.800">  1  5  2 -1</clus>
</clustering>
</event>
<event>
 9    1  0.1464797E-005  0.9679486E+02  0.7546771E-02  0.1288189E+00
         21   -1    0    0  501  502  0.00000000000E+00  0.00000000000E+00  0.69790526240E+02  0.69790526240E+02  0.00000000000E+00 0. -1.
          1   -1    0    0  502    0 -0.00000000000E+00 -0.00000000000E+00 -0.56794145781E+03  0.56794145781E+03  0.00000000000E+00 0. -1.
         23    2    1    2    0    0 -0.47592895882E+01  0.31817443594E+02 -0.44431419649E+03  0.45461115121E+03  0.90670794869E+02 0.  0.
         23    2    1    2    0    0 -0.13852910763E+02 -0.14861654898E+02 -0.95434960917E+02  0.13449650595E+03  0.92567307536E+02 0.  0.
        -13    1    4    4    0    0  0.14694984215E+02 -0.48385377405E+02 -0.46974479705E+02  0.69019483128E+02  0.00000000000E+00 0.  1.
         13    1    4    4    0    0 -0.28547894977E+02  0.33523722506E+02 -0.48460481212E+02  0.65477022822E+02  0.00000000000E+00 0. -1.
        -13    1    3    3    0    0  0.21294963045E+01 -0.31295319976E+02 -0.18485056559E+03  0.18749310229E+03  0.00000000000E+00 0.  1.
         13    1    3    3    0    0 -0.68887858928E+01  0.63112763570E+02 -0.25946363090E+03  0.26711804892E+03  0.00000000000E+00 0. -1.
          1    1    1    2  501    0  0.18612200351E+02 -0.16955788695E+02  0.41598225844E+02  0.48624326890E+02  0.00000000000E+00 0. -1.
<scales pt_clust_5="13000.00000" pt_clust_6="13000.00000" pt_clust_7="13000.00000" pt_clust_8="13000.00000" pt_clust_9="25.17762"></scales>
<clustering>
<clus scale="   25.178">  1  9  2 -1</clus>
<clus scale="   90.671">  7  8 -1 -1</clus>
<clus scale="   92.567">  5  6 -1 -1</clus>
<clus scale="   94.983">  2  7  1 -1</clus>
<clus scale="   25.178">  1  5  2 -1</clus>
</clustering>
</event>
<event>
 9    1  0.1464797E-005  0.1310498E+03  0.7546771E-02  0.1226810E+00
          2   -1    0    0  502    0 -0.00000000000E+00  0.00000000000E+00  0.40251493971E+02  0.40251493971E+02  0.00000000000E+00 0. -1.
         21   -1    0    0  501  502  0.00000000000E+00 -0.00000000000E+00 -0.89755821449E+03  0.89755821449E+03  0.00000000000E+00 0. -1.
         23    2    1    2    0    0  0.44432154867E+02 -0.31140049447E+02 -0.23184523427E+03  0.25420781056E+03  0.89025160652E+02 0.  0.
         23    2    1    2    0    0 -0.11351268935E+03  0.77035233953E+02 -0.25505841942E+03  0.30402724106E+03  0.92510583563E+02 0.  0.
        -11    1    4    4    0    0 -0.31199186979E+01  0.20723261941E+02 -0.56487671879E+00  0.20964411841E+02  0.00000000000E+00 0.  1.
         11    1    4    4    0    0 -0.11039277066E+03  0.56311972012E+02 -0.25449354270E+03  0.28306282922E+03  0.00000000000E+00 0. -1.
        -13    1    3    3    0    0  0.29555569611E+02  0.29404320081E+02 -0.10109600469E+03  0.10935514574E+03  0.00000000000E+00 0. -1.
         13    1    3    3    0    0  0.14876585256E+02 -0.60544369528E+02 -0.13074922958E+03  0.14485266482E+03  0.00000000000E+00 0.  1.
          2    1    1    2  501    0  0.69080534488E+02 -0.45895184506E+02 -0.37040306683E+03  0.37957465685E+03  0.00000000000E+00 0. -1.
<scales pt_clust_5="13000.00000" pt_clust_6="13000.00000" pt_clust_7="13000.00000" pt_clust_8="13000.00000" pt_clust_9="82.93665"></scales>
<clustering>
<clus scale="   82.937">  2  9  1 -1</clus>
<clus scale="   89.025">  7  8 -1 -1</clus>
<clus scale="   92.511">  5  6 -1 -1</clus>
<clus scale="  128.613">  1  7  2 -1</clus>
<clus scale="   82.937">  2  5  1 -1</clus>
</clustering>
</event>
<event>
 9    1  0.1464797E-005  0.1061505E+03  0.7546771E-02  0.1272652E+00
         21   -1    0    0  501  502  0.00000000000E+00  0.00000000000E+00  0.34626965867E+02  0.34626965867E+02  0.00000000000E+00 0. -1.
          2   -1    0    0  502    0 -0.00000000000E+00 -0.00000000000E+00 -0.50524517873E+03  0.50524517873E+03  0.00000000000E+00 0. -1.
         23    2    1    2    0    0 -0.89496109435E+01  0.17967147359E+02 -0.23073856623E+03  0.24854290765E+03  0.90168603609E+02 0.  0.
         23    2    1    2    0    0  0.17007998360E+02 -0.61407760771E+02 -0.19540596847E+03  0.22864006284E+03  0.10016287101E+03 0.  0.
        -13    1    4    4    0    0  0.49943490364E+02 -0.17478046102E+02 -0.48380906132E+02  0.71697603889E+02  0.00000000000E+00 0.  1.
         13    1    4    4    0    0 -0.32935492004E+02 -0.43929714669E+02 -0.14702506234E+03  0.15694245895E+03  0.00000000000E+00 0. -1.
        -13    1    3    3    0    0 -0.53879393041E+01  0.51110487318E+02 -0.87501325905E+02  0.10147804609E+03  0.00000000000E+00 0.  1.
         13    1    3    3    0    0 -0.35616716394E+01 -0.33143339959E+02 -0.14323724033E+03  0.14706486156E+03  0.00000000000E+00 0. -1.
          2    1    1    2  501    0 -0.80583874161E+01  0.43440613412E+02 -0.44473678158E+02  0.62689174108E+02  0.00000000000E+00 0. -1.
<scales pt_clust_5="13000.00000" pt_clust_6="13000.00000" pt_clust_7="13000.00000" pt_clust_8="13000.00000" pt_clust_9="44.18172"></scales>
<clustering>
<clus scale="   44.182">  1  9  2 -1</clus>
<clus scale="   90.169">  7  8 -1 -1</clus>
<clus scale="   96.777">  2  7  1 -1</clus>
<clus scale="  100.163">  5  6 -1 -1</clus>
<clus scale="   44.182">  1  5  2 -1</clus>
</clustering>
</event>
<event>
 9    1  0.1464797E-005  0.1296437E+03  0.7546771E-02  0.1242397E+00
          1   -1    0    0  502    0 -0.00000000000E+00  0.00000000000E+00  0.37856951613E+03  0.37856951613E+03  0.00000000000E+00 0. -1.
         21   -1    0    0  501  502  0.00000000000E+00 -0.00000000000E+00 -0.69994616526E+02  0.69994616526E+02  0.00000000000E+00 0. -1.
         23    2    1    2    0    0 -0.21925809939E+02 -0.18216876528E+02  0.11491414351E+03  0.15007079828E+03  0.92213818851E+02 0.  0.
         23    2    1    2    0    0 -0.81117543556E+02  0.20810931164E+02  0.12655075247E+03  0.17549571486E+03  0.88150452383E+02 0.  0.
        -11    1    4    4    0    0 -0.91417838509E+02 -0.66792457410E+01  0.10283508293E+03  0.13775662526E+03  0.00000000000E+00 0. -1.
         11    1    4    4    0    0  0.10300294952E+02  0.27490176905E+02  0.23715669543E+02  0.37739089605E+02  0.00000000000E+00 0.  1.
        -11    1    3    3    0    0  0.23679930645E+02 -0.39551682615E+02  0.57812493016E+02  0.73941592232E+02  0.00000000000E+00 0.  1.
         11    1    3    3    0    0 -0.45605740585E+02  0.21334806087E+02  0.57101650494E+02  0.76129206053E+02  0.00000000000E+00 0. -1.
          1    1    1    2  501    0  0.10304335350E+03 -0.25940546353E+01  0.67110003625E+02  0.12299761951E+03  0.00000000000E+00 0. -1.
<scales pt_clust_5="13000.00000" pt_clust_6="13000.00000" pt_clust_7="13000.00000" pt_clust_8="13000.00000" pt_clust_9="95.06303"></scales>
<clustering>
<clus scale="   88.150">  5  6 -1 -1</clus>
<clus scale="   92.214">  7  8 -1 -1</clus>
<clus scale="   96.519">  1  7  2 -1</clus>
<clus scale="   95.063">  2  9  1 -1</clus>
<clus scale="   95.063">  2  5  1 -1</clus>
</clustering>
</event>
<event>
 9    1  0.1464797E-005  0.1415622E+03  0.7546771E-02  0.1211408E+00
         21   -1    0    0  501  502  0.00000000000E+00  0.00000000000E+00  0.12510356412E+03  0.12510356412E+03  0.00000000000E+00 0.  1.
         -4   -1    0    0    0  501 -0.00000000000E+00 -0.00000000000E+00 -0.69411266803E+03  0.69411266803E+03  0.00000000000E+00 0.  1.
         23    2    1    2    0    0  0.87682302437E+02 -0.37789289054E+02 -0.32657987331E+03  0.35215562094E+03  0.90790699851E+02 0.  0.
         23    2    1    2    0    0 -0.97487566520E+02  0.83363127605E+02 -0.33120540332E+03  0.36678934510E+03  0.91565101538E+02 0.  0.
        -11    1    4    4    0    0 -0.36230513437E+02 -0.13016749015E+02 -0.12833484727E+03  0.13398477109E+03  0.00000000000E+00 0.  1.
         11    1    4    4    0    0 -0.61257053083E+02  0.96379876620E+02 -0.20287055605E+03  0.23280457401E+03  0.00000000000E+00 0. -1.
        -13    1    3    3    0    0  0.35222246835E+02 -0.53699877379E+02 -0.24908796405E+03  0.25723354629E+03  0.00000000000E+00 0.  1.
         13    1    3    3    0    0  0.52460055602E+02  0.15910588326E+02 -0.77491909260E+02  0.94922074647E+02  0.00000000000E+00 0. -1.
         -4    1    1    2    0  502  0.98052640823E+01 -0.45573838551E+02  0.88776172726E+02  0.10027126611E+03  0.00000000000E+00 0.  1.
<scales pt_clust_5="13000.00000" pt_clust_6="13000.00000" pt_clust_7="13000.00000" pt_clust_8="13000.00000" pt_clust_9="46.61671"></scales>
<clustering>
<clus scale="   46.617">  1  9  2 -1</clus>
<clus scale="   90.791">  7  8 -1 -1</clus>
<clus scale="   91.565">  5  6 -1 -1</clus>
<clus scale="  141.063">  2  7  1 -1</clus>
<clus scale="   46.617">  1  5  2 -1</clus>
</clustering>
</event>
<event>
 9    1  0.1464797E-005  0.1026407E+03  0.7546771E-02  0.1277333E+00
         21   -1    0    0  501  502  0.00000000000E+00  0.00000000000E+00  0.55656710313E+02  0.55656710313E+02  0.00000000000E+00 0.  1.
          2   -1    0    0  502    0 -0.00000000000E+00 -0.00000000000E+00 -0.44273258469E+03  0.44273258469E+03  0.00000000000E+00 0. -1.
         23    2    1    2    0    0  0.13968133783E+02  0.27806965037E+02 -0.26307586621E+03  0.28137671153E+03  0.94845170375E+02 0.  0.
         23    2    1    2    0    0 -0.54855300276E+02 -0.53756425115E+02 -0.49161871405E+02  0.12787290894E+03  0.89642255831E+02 0.  0.
        -13    1    3    3    0    0  0.50516572829E+02  0.74076642558E+00 -0.17641885817E+03  0.18351045306E+03  0.00000000000E+00 0. -1.
         13    1    3    3    0    0 -0.36548439046E+02  0.27066198611E+02 -0.86657008040E+02  0.97866258468E+02  0.00000000000E+00 0.  1.
        -13    1    4    4    0    0 -0.26110228043E+02 -0.69156993047E+02 -0.58143023856E+02  0.94048098965E+02  0.00000000000E+00 0. -1.
         13    1    4    4    0    0 -0.28745072233E+02  0.15400567932E+02  0.89811524512E+01  0.33824809972E+02  0.00000000000E+00 0.  1.
          2    1    1    2  501    0  0.40887166493E+02  0.25949460078E+02 -0.74838136762E+02  0.89139674535E+02  0.00000000000E+00 0. -1.
<scales pt_clust_5="13000.00000" pt_clust_6="13000.00000" pt_clust_7="13000.00000" pt_clust_8="13000.00000" pt_clust_9="48.42662"></scales>
<clustering>
<clus scale="   48.427">  1  9  2 -1</clus>
<clus scale="   89.642">  7  8 -1 -1</clus>
<clus scale="   94.845">  5  6 -1 -1</clus>
<clus scale="   97.853">  1  7  2 -1</clus>
<clus scale="   48.427">  1  5  2 -1</clus>
</clustering>
</event>
<event>
 9    1  0.1464797E-005  0.1040643E+03  0.7546771E-02  0.1272157E+00
         21   -1    0    0  501  502  0.00000000000E+00  0.00000000000E+00  0.14487891282E+03  0.14487891282E+03  0.00000000000E+00 0.  1.
         -3   -1    0    0    0  501 -0.00000000000E+00 -0.00000000000E+00 -0.29168648335E+03  0.29168648335E+03  0.00000000000E+00 0.  1.
         23    2    1    2    0    0 -0.51548890795E+02 -0.98165009268E+01 -0.24769755381E+03  0.26894719626E+03  0.90691038017E+02 0.  0.
         23    2    1    2    0    0  0.29054895204E+02  0.24493089167E+02  0.51367435009E+02  0.11128113514E+03  0.91108612685E+02 0.  0.
        -13    1    3    3    0    0 -0.29417800104E+02 -0.37427928202E+02 -0.21681615282E+03  0.22198085705E+03  0.00000000000E+00 0.  1.
         13    1    3    3    0    0 -0.22131090691E+02  0.27611427276E+02 -0.30881400996E+02  0.46966339211E+02  0.00000000000E+00 0. -1.
        -13    1    4    4    0    0 -0.24156542695E+02  0.26261923634E+02 -0.22076122227E+01  0.35750534817E+02  0.00000000000E+00 0.  1.
         13    1    4    4    0    0  0.53211437899E+02 -0.17688344671E+01  0.53575047232E+02  0.75530600319E+02  0.00000000000E+00 0. -1.
         -3    1    1    2    0  502  0.22493995591E+02 -0.14676588240E+02  0.49522548279E+02  0.56337064780E+02  0.00000000000E+00 0.  1.
<scales pt_clust_5="13000.00000" pt_clust_6="13000.00000" pt_clust_7="13000.00000" pt_clust_8="13000.00000" pt_clust_9="26.85856"></scales>
<clustering>
<clus scale="   26.859">  1  9  2 -1</clus>
<clus scale="   90.691">  5  6 -1 -1</clus>
<clus scale="   91.109">  7  8 -1 -1</clus>
<clus scale="  103.699">  2  5  1 -1</clus>
<clus scale="   26.859">  1  5  2 -1</clus>
</clustering>
</event>
<event>
 9    1  0.1464797E-005  0.1762962E+03  0.7546771E-02  0.1197217E+00
         21   -1    0    0  501  502  0.00000000000E+00  0.00000000000E+00  0.22735211741E+03  0.22735211741E+03  0.00000000000E+00 0. -1.
          4   -1    0    0  502    0 -0.00000000000E+00 -0.00000000000E+00 -0.25566487552E+03  0.25566487552E+03  0.00000000000E+00 0. -1.
         23    2    1    2    0    0 -0.27824750206E+00  0.31245946858E+02 -0.73892711856E+02  0.12367772413E+03  0.94125766737E+02 0.  0.
         23    2    1    2    0    0 -0.94432669703E+02  0.11380429606E+03  0.73358259710E+02  0.18389308021E+03  0.81032609319E+02 0.  0.
        -11    1    4    4    0    0 -0.10282085317E+02  0.38585370499E+02 -0.12761976010E+02  0.41921594992E+02  0.00000000000E+00 0.  1.
         11    1    4    4    0    0 -0.84150584387E+02  0.75218925564E+02  0.86120235720E+02  0.14197148522E+03  0.00000000000E+00 0. -1.
        -13    1    3    3    0    0 -0.25152912326E+02 -0.81670043860E+01  0.95371264100E+01  0.28112732690E+02  0.00000000000E+00 0.  1.
         13    1    3    3    0    0  0.24874664824E+02  0.39412951244E+02 -0.83429838266E+02  0.95564991440E+02  0.00000000000E+00 0. -1.
          4    1    1    2  501    0  0.94710917205E+02 -0.14505024292E+03 -0.27778305962E+02  0.17544618859E+03  0.00000000000E+00 0. -1.
<scales pt_clust_5="13000.00000" pt_clust_6="13000.00000" pt_clust_7="13000.00000" pt_clust_8="13000.00000" pt_clust_9="156.56982"></scales>
<clustering>
<clus scale="   81.033">  5  6 -1 -1</clus>
<clus scale="   94.126">  7  8 -1 -1</clus>
<clus scale="   99.177">  2  7  1 -1</clus>
<clus scale="  156.570">  1  9  2 -1</clus>
<clus scale="  156.570">  1  5  2 -1</clus>
</clustering>
</event>
<event>
 9    1  0.1464797E-005  0.9506079E+02  0.7546771E-02  0.1291091E+00
         -3   -1    0    0    0  501 -0.00000000000E+00  0.00000000000E+00  0.34850103063E+03  0.34850103063E+03  0.00000000000E+00 0.  1.
         21   -1    0    0  501  502  0.00000000000E+00 -0.00000000000E+00 -0.35801014268E+03  0.35801014268E+03  0.00000000000E+00 0.  1.
         23    2    1    2    0    0  0.87478957337E+01  0.29038151827E+02  0.31564193335E+03  0.32997509198E+03  0.91290696647E+02 0.  0.
         23    2    1    2    0    0  0.20971594654E+02  0.35956646131E+02 -0.10541416326E+03  0.14546927446E+03  0.91194713732E+02 0.  0.
        -11    1    4    4    0    0  0.51955693422E+02  0.30984197624E+02 -0.38891007451E+02  0.71916097238E+02  0.00000000000E+00 0.  1.
         11    1    4    4    0    0 -0.30984098768E+02  0.49724485071E+01 -0.66523155811E+02  0.73553177223E+02  0.00000000000E+00 0. -1.
        -13    1    3    3    0    0 -0.36235789368E+02  0.26342900718E+02  0.98542731943E+02  0.10824809868E+03  0.00000000000E+00 0. -1.
         13    1    3    3    0    0  0.44983685102E+02  0.26952511089E+01  0.21709920141E+03  0.22172699329E+03  0.00000000000E+00 0.  1.
         -3    1    1    2    0  502 -0.29719490388E+02 -0.64994797958E+02 -0.21973688213E+03  0.23106680688E+03  0.00000000000E+00 0.  1.
<scales pt_clust_5="13000.00000" pt_clust_6="13000.00000" pt_clust_7="13000.00000" pt_clust_8="13000.00000" pt_clust_9="71.46728"></scales>
<clustering>
<clus scale="   71.467">  2  9  1 -1</clus>
<clus scale="   91.195">  5  6 -1 -1</clus>
<clus scale="   91.291">  7  8 -1 -1</clus>
<clus scale="   94.969">  2  5  1 -1</clus>
<clus scale="   71.467">  2  5  1 -1</clus>
</clustering>
</event>
<event>
 9    1  0.1464797E-005  0.1132308E+03  0.7546771E-02  0.1255273E+00
         -2   -1    0    0    0  501 -0.00000000000E+00  0.00000000000E+00  0.43535210139E+03  0.43535210139E+03  0.00000000000E+00 0.  1.
         21   -1    0    0  501  502  0.00000000000E+00 -0.00000000000E+00 -0.25150031493E+03  0.25150031493E+03  0.00000000000E+00 0.  1.
         23    2    1    2    0    0  0.63159975967E+02 -0.84815510988E+01  0.32053998040E+03  0.33946114811E+03  0.91797999819E+02 0.  0.
         23    2    1    2    0    0 -0.11455175418E+03  0.77608440780E+02 -0.18549982374E+03  0.24838512219E+03  0.90220894774E+02 0.  0.
        -11    1    4    4    0    0 -0.49553950914E+02  0.40486733501E+02 -0.20488230929E+02  0.67190306201E+02  0.00000000000E+00 0. -1.
         11    1    4    4    0    0 -0.64997803264E+02  0.37121707279E+02 -0.16501159281E+03  0.18119481599E+03  0.00000000000E+00 0.  1.
        -13    1    3    3    0    0  0.25961061280E+02 -0.46275241856E+02  0.21364461989E+03  0.22013495479E+03  0.00000000000E+00 0. -1.
         13    1    3    3    0    0  0.37198914688E+02  0.37793690758E+02  0.10689536051E+03  0.11932619332E+03  0.00000000000E+00 0.  1.
         -2    1    1    2    0  502  0.51391778210E+02 -0.69126889681E+02  0.48811629803E+02  0.99006146014E+02  0.00000000000E+00 0.  1.
<scales pt_clust_5="13000.00000" pt_clust_6="13000.00000" pt_clust_7="13000.00000" pt_clust_8="13000.00000" pt_clust_9="86.13739"></scales>
<clustering>
<clus scale="   86.137">  2  9  1 -1</clus>
<clus scale="   90.221">  5  6 -1 -1</clus>
<clus scale="   91.798">  7  8 -1 -1</clus>
<clus scale="  111.956">  2  5  1 -1</clus>
<clus scale="   86.137">  2  5  1 -1</clus>
</clustering>
</event>
<event>
 9    1  0.1464797E-005  0.9441240E+02  0.7546771E-02  0.1293708E+00
         21   -1    0    0  501  502  0.00000000000E+00  0.00000000000E+00  0.55236037751E+02  0.55236037751E+02  0.00000000000E+00 0. -1.
          1   -1    0    0  502    0 -0.00000000000E+00 -0.00000000000E+00 -0.42016991517E+03  0.42016991517E+03  0.00000000000E+00 0. -1.
         23    2    1    2    0    0  0.21699602233E+02 -0.12618595981E+01 -0.22456176322E+03  0.24363816335E+03  0.91973388094E+02 0.  0.
         23    2    1    2    0    0  0.28765167490E+02  0.17891627820E+02 -0.14746056765E+03  0.17816286119E+03  0.94073592936E+02 0.  0.
        -11    1    4    4    0    0  0.12083957057E+02  0.55289050893E+02 -0.10431785821E+03  0.11868073436E+03  0.00000000000E+00 0. -1.
         11    1    4    4    0    0  0.16681210432E+02 -0.37397423073E+02 -0.43142709442E+02  0.59482126828E+02  0.00000000000E+00 0.  1.
        -11    1    3    3    0    0  0.36968215227E+02 -0.35506631731E+02 -0.86223923422E+02  0.10030919601E+03  0.00000000000E+00 0. -1.
         11    1    3    3    0    0 -0.15268612994E+02  0.34244772133E+02 -0.13833783979E+03  0.14332896734E+03  0.00000000000E+00 0.  1.
          1    1    1    2  501    0 -0.50464769723E+02 -0.16629768221E+02  0.70884534478E+01  0.53604928380E+02  0.00000000000E+00 0. -1.
<scales pt_clust_5="13000.00000" pt_clust_6="13000.00000" pt_clust_7="13000.00000" pt_clust_8="13000.00000" pt_clust_9="53.13419"></scales>
<clustering>
<clus scale="   53.134">  1  9  2 -1</clus>
<clus scale="   91.973">  7  8 -1 -1</clus>
<clus scale="   92.320">  2  7  1 -1</clus>
<clus scale="   94.074">  5  6 -1 -1</clus>
<clus scale="   53.134">  1  5  2 -1</clus>
</clustering>
</event>
<event>
 9    1  0.1464797E-005  0.1572290E+03  0.7546771E-02  0.1194247E+00
         21   -1    0    0  501  502  0.00000000000E+00  0.00000000000E+00  0.11552525001E+03  0.11552525001E+03  0.00000000000E+00 0. -1.
          1   -1    0    0  502    0 -0.00000000000E+00 -0.00000000000E+00 -0.51938629922E+03  0.51938629922E+03  0.00000000000E+00 0. -1.
         23    2    1    2    0    0 -0.50136128051E+01 -0.12006761792E+03 -0.35971718197E+03  0.38828273983E+03  0.83220585554E+02 0.  0.
         23    2    1    2    0    0 -0.16380181096E+02  0.14899252725E+03  0.13167330473E+02  0.17896110529E+03  0.96884545235E+02 0.  0.
        -11    1    3    3    0    0 -0.36848491638E+02 -0.32104406348E+02 -0.16793495785E+03  0.17490184193E+03  0.00000000000E+00 0.  1.
         11    1    3    3    0    0  0.31834878833E+02 -0.87963211568E+02 -0.19178222413E+03  0.21338089790E+03  0.00000000000E+00 0. -1.
        -13    1    4    4    0    0  0.25830420445E+02  0.41824388476E+01  0.10231064336E+02  0.28095873230E+02  0.00000000000E+00 0.  1.
         13    1    4    4    0    0 -0.42210601541E+02  0.14481008840E+03  0.29362661365E+01  0.15086523206E+03  0.00000000000E+00 0. -1.
          1    1    1    2  501    0  0.21393793901E+02 -0.28924909332E+02 -0.57311197703E+02  0.67667704109E+02  0.00000000000E+00 0. -1.
<scales pt_clust_5="13000.00000" pt_clust_6="13000.00000" pt_clust_7="13000.00000" pt_clust_8="13000.00000" pt_clust_9="35.97702"></scales>
<clustering>
<clus scale="   35.977">  1  9  2 -1</clus>
<clus scale="   83.221">  5  6 -1 -1</clus>
<clus scale="   96.885">  7  8 -1 -1</clus>
<clus scale="  149.198">  2  5  1 -1</clus>
<clus scale="   35.977">  1  5  2 -1</clus>
</clustering>
</event>
<event>
 9    1  0.1464797E-005  0.1312288E+03  0.7546771E-02  0.1243205E+00
          4   -1    0    0  502    0 -0.00000000000E+00  0.00000000000E+00  0.27542932509E+03  0.27542932509E+03  0.00000000000E+00 0. -1.
         21   -1    0    0  501  502  0.00000000000E+00 -0.00000000000E+00 -0.12037231476E+03  0.12037231476E+03  0.00000000000E+00 0.  1.
         23    2    1    2    0    0 -0.10109197101E+02 -0.87854156893E+01  0.82225807256E+02  0.12305997044E+03  0.90572035153E+02 0.  0.
         23    2    1    2    0    0 -0.82457397186E+02  0.44978410415E+02 -0.25865326527E+02  0.13267200032E+03  0.90058674199E+02 0.  0.
        -13    1    3    3    0    0 -0.33892336486E+02 -0.35489720841E+02  0.69550222221E+02  0.85120174863E+02  0.00000000000E+00 0.  1.
         13    1    3    3    0    0  0.23783139385E+02  0.26704305152E+02  0.12675585036E+02  0.37939795580E+02  0.00000000000E+00 0. -1.
        -13    1    4    4    0    0 -0.70476979004E+02  0.23967057110E+02 -0.56633726304E+02  0.93535038094E+02  0.00000000000E+00 0.  1.
         13    1    4    4    0    0 -0.11980418182E+02  0.21011353305E+02  0.30768399777E+02  0.39136962227E+02  0.00000000000E+00 0. -1.
          4    1    1    2  501    0  0.92566594288E+02 -0.36192994726E+02  0.98696529600E+02  0.14006966909E+03  0.00000000000E+00 0. -1.
<scales pt_clust_5="13000.00000" pt_clust_6="13000.00000" pt_clust_7="13000.00000" pt_clust_8="13000.00000" pt_clust_9="95.44859"></scales>
<clustering>
<clus scale="   90.059">  7  8 -1 -1</clus>
<clus scale="   90.572">  5  6 -1 -1</clus>
<clus scale="   91.557">  1  5  2 -1</clus>
<clus scale="   95.449">  2  9  1 -1</clus>
<clus scale="   95.449">  2  5  1 -1</clus>
</clustering>
</event>
<event>
 9    1  0.1464797E-005  0.9384043E+02  0.7546771E-02  0.1293853E+00
         21   -1    0    0  501  502  0.00000000000E+00  0.00000000000E+00  0.16838274310E+03  0.16838274310E+03  0.00000000000E+00 0.  1.
         -1   -1    0    0    0  501 -0.00000000000E+00 -0.00000000000E+00 -0.98283567419E+02  0.98283567419E+02  0.00000000000E+00 0.  1.
         23    2    1    2    0    0  0.55335582867E+01 -0.32626313840E+02 -0.93060293580E+01  0.97373301623E+02  0.91103573280E+02 0.  0.
         23    2    1    2    0    0  0.45512955840E+01  0.11218007835E+02  0.58372140626E+01  0.92012551211E+02  0.91025702530E+02 0.  0.
        -11    1    4    4    0    0  0.16785073315E+02  0.46528296807E+02 -0.11553315837E+02  0.50794686698E+02  0.00000000000E+00 0. -1.
         11    1    4    4    0    0 -0.12233777731E+02 -0.35310288971E+02  0.17390529899E+02  0.41217864513E+02  0.00000000000E+00 0.  1.
        -11    1    3    3    0    0 -0.34751672503E+02 -0.42940901050E+02 -0.31019183907E+01  0.55328307605E+02  0.00000000000E+00 0. -1.
         11    1    3    3    0    0  0.40285230789E+02  0.10314587210E+02 -0.62041109673E+01  0.42044994018E+02  0.00000000000E+00 0.  1.
         -1    1    1    2    0  502 -0.10084853871E+02  0.21408306005E+02  0.73567990975E+02  0.77280457683E+02  0.00000000000E+00 0.  1.
<scales pt_clust_5="13000.00000" pt_clust_6="13000.00000" pt_clust_7="13000.00000" pt_clust_8="13000.00000" pt_clust_9="23.66474"></scales>
<clustering>
<clus scale="   23.665">  1  9  2 -1</clus>
<clus scale="   91.026">  5  6 -1 -1</clus>
<clus scale="   91.104">  7  8 -1 -1</clus>
<clus scale="   93.765">  1  5  2 -1</clus>
<clus scale="   23.665">  1  5  2 -1</clus>
</clustering>
</event>
<event>
 9    1  0.1464797E-005  0.1078929E+03  0.7546771E-02  0.1265549E+00
         21   -1    0    0  501  502  0.00000000000E+00  0.00000000000E+00  0.57899164934E+02  0.57899164934E+02  0.00000000000E+00 0.  1.
          1   -1    0    0  502    0 -0.00000000000E+00 -0.00000000000E+00 -0.33682064299E+03  0.33682064299E+03  0.00000000000E+00 0. -1.
         23    2    1    2    0    0  0.24191669960E+02  0.39953507448E+02 -0.18655730783E+03  0.21254711707E+03  0.90504851903E+02 0.  0.
         23    2    1    2    0    0 -0.54913643135E+02 -0.56088523927E+02 -0.64894428731E+02  0.13791475269E+03  0.92993340677E+02 0.  0.
        -11    1    4    4    0    0 -0.51738922891E+02 -0.78927752180E+02 -0.36142078453E+02  0.10105818147E+03  0.00000000000E+00 0.  1.
         11    1    4    4    0    0 -0.31747202443E+01  0.22839228254E+02 -0.28752350278E+02  0.36856571224E+02  0.00000000000E+00 0. -1.
        -11    1    3    3    0    0 -0.21325317753E+02 -0.15924294832E+02 -0.29429413128E+02  0.39679247728E+02  0.00000000000E+00 0.  1.
         11    1    3    3    0    0  0.45516987713E+02  0.55877802281E+02 -0.15712789470E+03  0.17286786934E+03  0.00000000000E+00 0. -1.
          1    1    1    2  501    0  0.30721973175E+02  0.16135016479E+02 -0.27469741495E+02  0.44257938162E+02  0.00000000000E+00 0. -1.
<scales pt_clust_5="13000.00000" pt_clust_6="13000.00000" pt_clust_7="13000.00000" pt_clust_8="13000.00000" pt_clust_9="34.70127"></scales>
<clustering>
<clus scale="   34.701">  1  9  2 -1</clus>
<clus scale="   90.505">  7  8 -1 -1</clus>
<clus scale="   92.993">  5  6 -1 -1</clus>
<clus scale="  105.756">  2  7  1 -1</clus>
<clus scale="   34.701">  1  5  2 -1</clus>
</clustering>
</event>
<event>
 9    1  0.1464797E-005  0.1659717E+03  0.7546771E-02  0.1183466E+00
         21   -1    0    0  501  502  0.00000000000E+00  0.00000000000E+00  0.57545843513E+02  0.57545843513E+02  0.00000000000E+00 0.  1.
          3   -1    0    0  502    0 -0.00000000000E+00 -0.00000000000E+00 -0.10089692102E+04  0.10089692102E+04  0.00000000000E+00 0. -1.
         23    2    1    2    0    0 -0.12682359436E+03 -0.46181156897E+02 -0.62193018994E+03  0.64320510277E+03  0.93266927318E+02 0.  0.
         23    2    1    2    0    0  0.15771902324E+03 -0.18164420368E+02 -0.16481564109E+03  0.24382855472E+03  0.84160157380E+02 0.  0.
        -11    1    3    3    0    0 -0.57602473032E+02  0.21291359940E+02 -0.33063376754E+03  0.33628864855E+03  0.00000000000E+00 0. -1.
         11    1    3    3    0    0 -0.69221121331E+02 -0.67472516837E+02 -0.29129642241E+03  0.30691645422E+03  0.00000000000E+00 0.  1.
        -13    1    4    4    0    0  0.11357050313E+03  0.26783378537E+02 -0.10704640550E+03  0.15834942841E+03  0.00000000000E+00 0.  1.
         13    1    4    4    0    0  0.44148520113E+02 -0.44947798906E+02 -0.57769235585E+02  0.85479126309E+02  0.00000000000E+00 0. -1.
          3    1    1    2  501    0 -0.30895428880E+02  0.64345577265E+02 -0.16467753567E+03  0.17948139624E+03  0.00000000000E+00 0. -1.
<scales pt_clust_5="13000.00000" pt_clust_6="13000.00000" pt_clust_7="13000.00000" pt_clust_8="13000.00000" pt_clust_9="71.37847"></scales>
<clustering>
<clus scale="   71.378">  1  9  2 -1</clus>
<clus scale="   84.160">  7  8 -1 -1</clus>
<clus scale="   93.267">  5  6 -1 -1</clus>
<clus scale="  161.030">  1  7  2 -1</clus>
<clus scale="   71.378">  1  5  2 -1</clus>
</clustering>
</event>
<event>
 9    1  0.2371574E-005  0.9637663E+02  0.7546771E-02  0.1290752E+00
         21   -1    0    0  501  502  0.00000000000E+00  0.00000000000E+00  0.54839531858E+03  0.54839531858E+03  0.00000000000E+00 0. -1.
          2   -1    0    0  502    0 -0.00000000000E+00 -0.00000000000E+00 -0.25483209460E+03  0.25483209460E+03  0.00000000000E+00 0. -1.
         23    2    1    2    0    0 -0.51637122956E+01  0.44526506357E+02 -0.14233884398E+03  0.17563339427E+03  0.92614626195E+02 0.  0.
         23    2    1    2    0    0 -0.39843837670E+02  0.84067111641E+01 -0.68432842069E+02  0.11849549549E+03  0.87749213012E+02 0.  0.
        -11    1    3    3    0    0 -0.12123895141E+02 -0.22821455909E+02 -0.78242585746E+02  0.82399696040E+02  0.00000000000E+00 0. -1.
         11    1    3    3    0    0  0.69601828454E+01  0.67347962266E+02 -0.64096258235E+02  0.93233698234E+02  0.00000000000E+00 0.  1.
        -11    1    4    4    0    0  0.26528931331E+02  0.65236616745E+00 -0.63573848264E+01  0.27287838335E+02  0.00000000000E+00 0. -1.
         11    1    4    4    0    0 -0.66372769001E+02  0.77543449966E+01 -0.62075457243E+02  0.91207657152E+02  0.00000000000E+00 0.  1.
          2    1    1    2  501    0  0.45007549966E+02 -0.52933217521E+02  0.50433491004E+03  0.50909852342E+03  0.00000000000E+00 0. -1.
<scales pt_clust_5="13000.00000" pt_clust_6="13000.00000" pt_clust_7="13000.00000" pt_clust_8="13000.00000" pt_clust_9="69.48097"></scales>
<clustering>
<clus scale="   69.481">  1  9  2 -1</clus>
<clus scale="   87.749">  7  8 -1 -1</clus>
<clus scale="   91.711">  1  7  2 -1</clus>
<clus scale="   92.615">  5  6 -1 -1</clus>
<clus scale="   69.481">  1  5  2 -1</clus>
</clustering>
</event>
<event>
 9    1  0.1464797E-005  0.9104397E+02  0.7546771E-02  0.1301639E+00
         -1   -1    0    0    0  501 -0.00000000000E+00  0.00000000000E+00  0.79757391425E+02  0.79757391425E+02  0.00000000000E+00 0.  1.
         21   -1    0    0  501  502  0.00000000000E+00 -0.00000000000E+00 -0.22819805075E+03  0.22819805075E+03  0.00000000000E+00 0. -1.
         23    2    1    2    0    0 -0.13782478698E+02  0.14044531557E+02 -0.96090838336E+01  0.90970789198E+02  0.88295777982E+02 0.  0.
         23    2    1    2    0    0 -0.36904650755E+01 -0.32954751377E+01 -0.15438314158E+02  0.91897711531E+02  0.90456443396E+02 0.  0.
        -11    1    3    3    0    0 -0.11649982265E+02 -0.35561192932E+02  0.80417265825E+01  0.38275186426E+02  0.00000000000E+00 0.  1.
         11    1    3    3    0    0 -0.21324964329E+01  0.49605724489E+02 -0.17650810416E+02  0.52695602772E+02  0.00000000000E+00 0. -1.
        -11    1    4    4    0    0  0.29851604942E+02  0.29546253400E+02 -0.16015719451E+02  0.44951114303E+02  0.00000000000E+00 0. -1.
         11    1    4    4    0    0 -0.33542070018E+02 -0.32841728537E+02  0.57740529252E+00  0.46946597228E+02  0.00000000000E+00 0.  1.
         -1    1    1    2    0  502  0.17472943773E+02 -0.10749056419E+02 -0.12339326133E+03  0.12508694144E+03  0.00000000000E+00 0.  1.
<scales pt_clust_5="13000.00000" pt_clust_6="13000.00000" pt_clust_7="13000.00000" pt_clust_8="13000.00000" pt_clust_9="20.51453"></scales>
<clustering>
<clus scale="   20.515">  2  9  1 -1</clus>
<clus scale="   88.296">  5  6 -1 -1</clus>
<clus scale="   88.898">  1  5  2 -1</clus>
<clus scale="   90.456">  7  8 -1 -1</clus>
<clus scale="   20.515">  2  5  1 -1</clus>
</clustering>
</event>
<event>
 9    1  0.1464797E-005  0.1473701E+03  0.7546771E-02  0.1204412E+00
          2   -1    0    0  502    0 -0.00000000000E+00  0.00000000000E+00  0.22977613090E+03  0.22977613090E+03  0.00000000000E+00 0. -1.
         21   -1    0    0  501  502  0.00000000000E+00 -0.00000000000E+00 -0.18906658016E+03  0.18906658016E+03  0.00000000000E+00 0.  1.
         23    2    1    2    0    0  0.98342515498E+02  0.47344757511E+02  0.14581096879E+03  0.20500561202E+03  0.94094027021E+02 0.  0.
         23    2    1    2    0    0 -0.12238681314E+03 -0.50889871039E+02 -0.82212727494E+02  0.18045164960E+03  0.90749954701E+02 0.  0.
        -13    1    4    4    0    0 -0.47871402097E+02 -0.66397046252E+02 -0.58919954701E+02  0.10085534171E+03  0.00000000000E+00 0.  1.
         13    1    4    4    0    0 -0.74515411041E+02  0.15507175214E+02 -0.23292772793E+02  0.79596307892E+02  0.00000000000E+00 0. -1.
        -13    1    3    3    0    0 -0.17562941742E+02  0.11728544180E+02  0.11458908866E+02  0.24027531368E+02  0.00000000000E+00 0.  1.
         13    1    3    3    0    0  0.11590545724E+03  0.35616213331E+02  0.13435205993E+03  0.18097808065E+03  0.00000000000E+00 0. -1.
          2    1    1    2  501    0  0.24044297639E+02  0.35451135273E+01 -0.22888690554E+02  0.33385449437E+02  0.00000000000E+00 0. -1.
<scales pt_clust_5="13000.00000" pt_clust_6="13000.00000" pt_clust_7="13000.00000" pt_clust_8="13000.00000" pt_clust_9="24.30424"></scales>
<clustering>
<clus scale="   24.304">  2  9  1 -1</clus>
<clus scale="   90.750">  5  6 -1 -1</clus>
<clus scale="   94.094">  7  8 -1 -1</clus>
<clus scale="  145.258">  2  5  1 -1</clus>
<clus scale="   24.304">  2  5  1 -1</clus>
</clustering>
</event>
<event>
 9    1  0.1464797E-005  0.1071393E+03  0.7546771E-02  0.1266005E+00
         21   -1    0    0  501  502  0.00000000000E+00  0.00000000000E+00  0.61796542913E+02  0.61796542913E+02  0.00000000000E+00 0.  1.
          2   -1    0    0  502    0 -0.00000000000E+00 -0.00000000000E+00 -0.29705391999E+03  0.29705391999E+03  0.00000000000E+00 0. -1.
         23    2    1    2    0    0 -0.44975585377E+02 -0.54892366690E+02 -0.16205094072E+03  0.19934879468E+03  0.91888298236E+02 0.  0.
         23    2    1    2    0    0  0.73959457934E+01  0.31135260029E+02 -0.48266967665E+02  0.10852513904E+03  0.91781813043E+02 0.  0.
        -11    1    3    3    0    0  0.27023267324E+02 -0.15217667437E+02 -0.65990736021E+02  0.72915098709E+02  0.00000000000E+00 0. -1.
         11    1    3    3    0    0 -0.71998852701E+02 -0.39674699253E+02 -0.96060204698E+02  0.12643369597E+03  0.00000000000E+00 0.  1.
        -13    1    4    4    0    0 -0.73154641350E+01 -0.25976656373E+02 -0.41025553953E+02  0.49105995245E+02  0.00000000000E+00 0. -1.
         13    1    4    4    0    0  0.14711409928E+02  0.57111916402E+02 -0.72414137126E+01  0.59419143798E+02  0.00000000000E+00 0.  1.
          2    1    1    2  501    0  0.37579639583E+02  0.23757106661E+02 -0.24939468688E+02  0.50976529173E+02  0.00000000000E+00 0. -1.
<scales pt_clust_5="13000.00000" pt_clust_6="13000.00000" pt_clust_7="13000.00000" pt_clust_8="13000.00000" pt_clust_9="44.45930"></scales>
<clustering>
<clus scale="   44.459">  1  9  2 -1</clus>
<clus scale="   91.782">  7  8 -1 -1</clus>
<clus scale="   91.888">  5  6 -1 -1</clus>
<clus scale="  107.048">  1  7  2 -1</clus>
<clus scale="   44.459">  1  5  2 -1</clus>
</clustering>
</event>
<event>
 9    1  0.1464797E-005  0.1242133E+03  0.7546771E-02  0.1240728E+00
          1   -1    0    0  502    0 -0.00000000000E+00  0.00000000000E+00  0.10630498854E+04  0.10630498854E+04  0.00000000000E+00 0. -1.
         21   -1    0    0  501  502  0.00000000000E+00 -0.00000000000E+00 -0.20493989559E+02  0.20493989559E+02  0.00000000000E+00 0. -1.
         23    2    1    2    0    0 -0.79359906240E+02  0.43807753367E+00  0.66485112474E+03  0.67557247768E+03  0.89849696158E+02 0.  0.
         23    2    1    2    0    0  0.46560613717E+02  0.20411606876E+02  0.26819072196E+03  0.29176541685E+03  0.10303528850E+03 0.  0.
        -11    1    4    4    0    0  0.75807770904E+02  0.78967106114E+01  0.13701582308E+03  0.15678811161E+03  0.00000000000E+00 0.  1.
         11    1    4    4    0    0 -0.29247157188E+02  0.12514896265E+02  0.13117489889E+03  0.13497730524E+03  0.00000000000E+00 0. -1.
        -13    1    3    3    0    0 -0.62828864585E+02 -0.41011431168E+02  0.39652566463E+03  0.40356165133E+03  0.00000000000E+00 0.  1.
         13    1    3    3    0    0 -0.16531041655E+02  0.41449508702E+02  0.26832546011E+03  0.27201082635E+03  0.00000000000E+00 0. -1.
          1    1    1    2  501    0  0.32799292523E+02 -0.20849684410E+02  0.10951404919E+03  0.11620598048E+03  0.00000000000E+00 0. -1.
<scales pt_clust_5="13000.00000" pt_clust_6="13000.00000" pt_clust_7="13000.00000" pt_clust_8="13000.00000" pt_clust_9="38.86519"></scales>
<clustering>
<clus scale="   38.865">  2  9  1 -1</clus>
<clus scale="   89.850">  7  8 -1 -1</clus>
<clus scale="  103.035">  5  6 -1 -1</clus>
<clus scale="  113.515">  1  7  2 -1</clus>
<clus scale="   38.865">  2  5  1 -1</clus>
</clustering>
</event>
<event>
 9    1  0.1464797E-005  0.1591321E+03  0.7546771E-02  0.1194184E+00
         21   -1    0    0  501  502  0.00000000000E+00  0.00000000000E+00  0.54475351420E+02  0.54475351420E+02  0.00000000000E+00 0. -1.
          1   -1    0    0  502    0 -0.00000000000E+00 -0.00000000000E+00 -0.89152966887E+03  0.89152966887E+03  0.00000000000E+00 0. -1.
         23    2    1    2    0    0  0.76101040786E+02 -0.72844855633E+02 -0.51838440329E+03  0.53684924447E+03  0.91580458118E+02 0.  0.
         23    2    1    2    0    0 -0.11527360072E+03  0.57418665033E+02 -0.32397090720E+03  0.36672280119E+03  0.11376975909E+03 0.  0.
        -11    1    3    3    0    0  0.31920400156E+01 -0.51452719552E+02 -0.11031382327E+03  0.12176498295E+03  0.00000000000E+00 0.  1.
         11    1    3    3    0    0  0.72909000771E+02 -0.21392136081E+02 -0.40807058002E+03  0.41508426152E+03  0.00000000000E+00 0. -1.
        -11    1    4    4    0    0 -0.92022177011E+02  0.82299447488E+02 -0.17663254105E+03  0.21550019647E+03  0.00000000000E+00 0. -1.
         11    1    4    4    0    0 -0.23251423713E+02 -0.24880782455E+02 -0.14733836615E+03  0.15122260472E+03  0.00000000000E+00 0.  1.
          1    1    1    2  501    0  0.39172559937E+02  0.15426190600E+02  0.53009930462E+01  0.42432974628E+02  0.00000000000E+00 0. -1.
<scales pt_clust_5="13000.00000" pt_clust_6="13000.00000" pt_clust_7="13000.00000" pt_clust_8="13000.00000" pt_clust_9="42.10056"></scales>
<clustering>
<clus scale="   42.101">  1  9  2 -1</clus>
<clus scale="   91.580">  5  6 -1 -1</clus>
<clus scale="  113.770">  7  8 -1 -1</clus>
<clus scale="  144.106">  2  5  1 -1</clus>
<clus scale="   42.101">  1  5  2 -1</clus>
</clustering>
</event>
<event>
 9    1  0.1464797E-005  0.1716135E+03  0.7546771E-02  0.1177593E+00
         21   -1    0    0  501  502  0.00000000000E+00  0.00000000000E+00  0.20222340041E+03  0.20222340041E+03  0.00000000000E+00 0. -1.
          4   -1    0    0  502    0 -0.00000000000E+00 -0.00000000000E+00 -0.27001177535E+03  0.27001177535E+03  0.00000000000E+00 0. -1.
         23    2    1    2    0    0  0.97512230936E+02  0.10510932920E+03 -0.16097762945E+03  0.23468314509E+03  0.92767317179E+02 0.  0.
         23    2    1    2    0    0 -0.69020853071E+02 -0.13644072523E+03  0.88594891270E+02  0.19495481054E+03  0.82330879604E+02 0.  0.
        -11    1    4    4    0    0  0.24074580067E+01 -0.82817709120E+02  0.55405720253E+02  0.99671272866E+02  0.00000000000E+00 0.  1.
         11    1    4    4    0    0 -0.71428311078E+02 -0.53623016106E+02  0.33189171017E+02  0.95283537679E+02  0.00000000000E+00 0. -1.
        -13    1    3    3    0    0  0.19666581470E+02  0.89146555291E+02 -0.84539926358E+02  0.12442219213E+03  0.00000000000E+00 0. -1.
         13    1    3    3    0    0  0.77845649466E+02  0.15962773911E+02 -0.76437703095E+02  0.11026095295E+03  0.00000000000E+00 0.  1.
          4    1    1    2  501    0 -0.28491377865E+02  0.31331396024E+02  0.45943632425E+01  0.42597220133E+02  0.00000000000E+00 0. -1.
<scales pt_clust_5="13000.00000" pt_clust_6="13000.00000" pt_clust_7="13000.00000" pt_clust_8="13000.00000" pt_clust_9="42.34873"></scales>
<clustering>
<clus scale="   42.349">  1  9  2 -1</clus>
<clus scale="   82.331">  5  6 -1 -1</clus>
<clus scale="   92.767">  7  8 -1 -1</clus>
<clus scale="  166.204">  1  5  2 -1</clus>
<clus scale="   42.349">  1  5  2 -1</clus>
</clustering>
</event>
<event>
 9    1  0.1464797E-005  0.1258996E+03  0.7546771E-02  0.1233922E+00
          1   -1    0    0  502    0 -0.00000000000E+00  0.00000000000E+00  0.44209612813E+03  0.44209612813E+03  0.00000000000E+00 0. -1.
         21   -1    0    0  501  502  0.00000000000E+00 -0.00000000000E+00 -0.72489172743E+02  0.72489172743E+02  0.00000000000E+00 0.  1.
         23    2    1    2    0    0 -0.79122235423E+02 -0.31120966397E+02  0.27227364582E+03  0.30032686498E+03  0.93991728006E+02 0.  0.
         23    2    1    2    0    0  0.87197062476E+02 -0.27390358712E+02  0.64221736041E+02  0.14654466846E+03  0.94854356886E+02 0.  0.
        -11    1    4    4    0    0  0.72983741002E+02 -0.68249899003E+01  0.86273711081E+02  0.11320936428E+03  0.00000000000E+00 0. -1.
         11    1    4    4    0    0  0.14213321474E+02 -0.20565368811E+02 -0.22051975040E+02  0.33335304181E+02  0.00000000000E+00 0.  1.
        -13    1    3    3    0    0 -0.55332412386E+02  0.28168670118E+02  0.11772969851E+03  0.13309933038E+03  0.00000000000E+00 0.  1.
         13    1    3    3    0    0 -0.23789823037E+02 -0.59289636515E+02  0.15454394731E+03  0.16722753460E+03  0.00000000000E+00 0. -1.
          1    1    1    2  501    0 -0.80748270530E+01  0.58511325109E+02  0.33111573525E+02  0.67713767427E+02  0.00000000000E+00 0. -1.
<scales pt_clust_5="13000.00000" pt_clust_6="13000.00000" pt_clust_7="13000.00000" pt_clust_8="13000.00000" pt_clust_9="59.06588"></scales>
<clustering>
<clus scale="   59.066">  2  9  1 -1</clus>
<clus scale="   93.992">  7  8 -1 -1</clus>
<clus scale="   94.854">  5  6 -1 -1</clus>
<clus scale="  125.251">  1  7  2 -1</clus>
<clus scale="   59.066">  2  5  1 -1</clus>
</clustering>
</event>
<event>
 9    1  0.1464797E-005  0.9174539E+02  0.7546771E-02  0.1299250E+00
          2   -1    0    0  502    0 -0.00000000000E+00  0.00000000000E+00  0.10367455546E+03  0.10367455546E+03  0.00000000000E+00 0. -1.
         21   -1    0    0  501  502  0.00000000000E+00 -0.00000000000E+00 -0.35871954950E+03  0.35871954950E+03  0.00000000000E+00 0. -1.
         23    2    1    2    0    0  0.46963282278E+01  0.79973161278E+00  0.20280736453E+02  0.90921194625E+02  0.88502318001E+02 0.  0.
         23    2    1    2    0    0 -0.33250410955E+02  0.33646109314E+02 -0.92309295134E+01  0.10164278839E+03  0.89489641137E+02 0.  0.
        -11    1    4    4    0    0 -0.46402393423E+01 -0.30374332738E+02 -0.68440381854E+01  0.31479719965E+02  0.00000000000E+00 0.  1.
         11    1    4    4    0    0 -0.28610171612E+02  0.64020442051E+02 -0.23868913279E+01  0.70163068422E+02  0.00000000000E+00 0. -1.
        -11    1    3    3    0    0  0.43433607094E+02 -0.11510268158E+02 -0.11981515818E+01  0.44948860558E+02  0.00000000000E+00 0.  1.
         11    1    3    3    0    0 -0.38737278866E+02  0.12309999771E+02  0.21478888035E+02  0.45972334067E+02  0.00000000000E+00 0. -1.
          2    1    1    2  501    0  0.28554082727E+02 -0.34445840926E+02 -0.26609480099E+03  0.26983012195E+03  0.00000000000E+00 0. -1.
<scales pt_clust_5="13000.00000" pt_clust_6="13000.00000" pt_clust_7="13000.00000" pt_clust_8="13000.00000" pt_clust_9="44.74206"></scales>
<clustering>
<clus scale="   44.742">  2  9  1 -1</clus>
<clus scale="   88.502">  7  8 -1 -1</clus>
<clus scale="   89.490">  5  6 -1 -1</clus>
<clus scale="   90.783">  1  7  2 -1</clus>
<clus scale="   44.742">  2  5  1 -1</clus>
</clustering>
</event>
<event>
 9    1  0.1464797E-005  0.9329926E+02  0.7546771E-02  0.1298881E+00
         21   -1    0    0  501  502  0.00000000000E+00  0.00000000000E+00  0.17865726452E+03  0.17865726452E+03  0.00000000000E+00 0.  1.
         -3   -1    0    0    0  501 -0.00000000000E+00 -0.00000000000E+00 -0.15921433433E+03  0.15921433433E+03  0.00000000000E+00 0.  1.
         23    2    1    2    0    0  0.27014210761E+02 -0.74473586972E+01 -0.50712278171E+02  0.10246724643E+03  0.84513730835E+02 0.  0.
         23    2    1    2    0    0 -0.44597972405E+00 -0.39429138396E+02 -0.44469147741E+02  0.10874725672E+03  0.91069231309E+02 0.  0.
        -11    1    4    4    0    0 -0.32454386387E+02 -0.41631526772E+02 -0.53761774530E+02  0.75344539402E+02  0.00000000000E+00 0.  1.
         11    1    4    4    0    0  0.32008406663E+02  0.22023883760E+01  0.92926267896E+01  0.33402717320E+02  0.00000000000E+00 0. -1.
        -13    1    3    3    0    0 -0.21621167772E+02 -0.28659047136E+02 -0.18364743538E+02  0.40324678347E+02  0.00000000000E+00 0.  1.
         13    1    3    3    0    0  0.48635378533E+02  0.21211688439E+02 -0.32347534634E+02  0.62142568087E+02  0.00000000000E+00 0. -1.
         -3    1    1    2    0  502 -0.26568231037E+02  0.46876497093E+02  0.11462435610E+03  0.12665709570E+03  0.00000000000E+00 0.  1.
<scales pt_clust_5="13000.00000" pt_clust_6="13000.00000" pt_clust_7="13000.00000" pt_clust_8="13000.00000" pt_clust_9="53.88206"></scales>
<clustering>
<clus scale="   53.882">  1  9  2 -1</clus>
<clus scale="   84.514">  7  8 -1 -1</clus>
<clus scale="   86.912">  2  7  1 -1</clus>
<clus scale="   91.069">  5  6 -1 -1</clus>
<clus scale="   53.882">  1  5  2 -1</clus>
</clustering>
</event>
<event>
 9    1  0.1464797E-005  0.1248276E+03  0.7546771E-02  0.1235528E+00
         -1   -1    0    0    0  501 -0.00000000000E+00  0.00000000000E+00  0.92277560837E+02  0.92277560837E+02  0.00000000000E+00 0.  1.
         21   -1    0    0  501  502  0.00000000000E+00 -0.00000000000E+00 -0.32402138253E+03  0.32402138253E+03  0.00000000000E+00 0. -1.
         23    2    1    2    0    0 -0.75589402909E+02 -0.31257770154E+02 -0.17343099856E+02  0.12335261268E+03  0.90687804660E+02 0.  0.
         23    2    1    2    0    0  0.64114894558E+02  0.72529939700E+02 -0.88194768458E+02  0.15966842934E+03  0.91347568587E+02 0.  0.
        -11    1    4    4    0    0  0.51664853016E+02 -0.65480569419E+01 -0.44303150447E+02  0.68373263973E+02  0.00000000000E+00 0.  1.
         11    1    4    4    0    0  0.12450041542E+02  0.79077996642E+02 -0.43891618011E+02  0.91295165365E+02  0.00000000000E+00 0. -1.
        -13    1    3    3    0    0 -0.29722716458E+02 -0.56455997820E+02 -0.28444232236E+02  0.69855521693E+02  0.00000000000E+00 0. -1.
         13    1    3    3    0    0 -0.45866686451E+02  0.25198227666E+02  0.11101132380E+02  0.53497090983E+02  0.00000000000E+00 0.  1.
         -1    1    1    2    0  502  0.11474508351E+02 -0.41272169547E+02 -0.12620595337E+03  0.13327790135E+03  0.00000000000E+00 0.  1.
<scales pt_clust_5="13000.00000" pt_clust_6="13000.00000" pt_clust_7="13000.00000" pt_clust_8="13000.00000" pt_clust_9="42.83756"></scales>
<clustering>
<clus scale="   42.838">  2  9  1 -1</clus>
<clus scale="   90.688">  7  8 -1 -1</clus>
<clus scale="   91.348">  5  6 -1 -1</clus>
<clus scale="  124.346">  1  7  2 -1</clus>
<clus scale="   42.838">  2  5  1 -1</clus>
</clustering>
</event>
<event>
 9    1  0.1464797E-005  0.9778089E+02  0.7546771E-02  0.1285576E+00
          1   -1    0    0  502    0 -0.00000000000E+00  0.00000000000E+00  0.46919596770E+02  0.46919596770E+02  0.00000000000E+00 0. -1.
         21   -1    0    0  501  502  0.00000000000E+00 -0.00000000000E+00 -0.51493073548E+03  0.51493073548E+03  0.00000000000E+00 0. -1.
         23    2    1    2    0    0  0.32261524594E+02  0.56076148036E+02 -0.13460226414E+03  0.17523188047E+03  0.91668435538E+02 0.  0.
         23    2    1    2    0    0  0.47237778455E+02 -0.75044723037E+01 -0.16789023672E+03  0.19668223526E+03  0.90603781731E+02 0.  0.
        -11    1    4    4    0    0  0.68480267551E+02 -0.14383204333E+02 -0.15689807325E+03  0.17179472926E+03  0.00000000000E+00 0.  1.
         11    1    4    4    0    0 -0.21242489097E+02  0.68787320289E+01 -0.10992163466E+02  0.24887506002E+02  0.00000000000E+00 0. -1.
        -13    1    3    3    0    0 -0.18401357205E+02  0.14930899955E+02  0.20584905933E+01  0.23786111577E+02  0.00000000000E+00 0. -1.
         13    1    3    3    0    0  0.50662881799E+02  0.41145248081E+02 -0.13666075473E+03  0.15144576889E+03  0.00000000000E+00 0.  1.
          1    1    1    2  501    0 -0.79499303049E+02 -0.48571675732E+02 -0.16551863785E+03  0.18993621652E+03  0.00000000000E+00 0. -1.
<scales pt_clust_5="13000.00000" pt_clust_6="13000.00000" pt_clust_7="13000.00000" pt_clust_8="13000.00000" pt_clust_9="93.16301"></scales>
<clustering>
<clus scale="   90.604">  5  6 -1 -1</clus>
<clus scale="   91.668">  7  8 -1 -1</clus>
<clus scale="   93.163">  2  9  1 -1</clus>
<clus scale="   96.783">  2  5  1 -1</clus>
<clus scale="   93.163">  2  5  1 -1</clus>
</clustering>
</event>
<event>
 9    1  0.1464797E-005  0.9983231E+02  0.7546771E-02  0.1281089E+00
          1   -1    0    0  502    0 -0.00000000000E+00  0.00000000000E+00  0.49651108792E+03  0.49651108792E+03  0.00000000000E+00 0. -1.
         21   -1    0    0  501  502  0.00000000000E+00 -0.00000000000E+00 -0.27628231050E+02  0.27628231050E+02  0.00000000000E+00 0.  1.
         23    2    1    2    0    0 -0.31913906974E+02  0.26387479535E+02  0.26190696632E+03  0.28027960145E+03  0.90810789285E+02 0.  0.
         23    2    1    2    0    0  0.12910555650E+02 -0.44314997661E+02  0.17919442143E+03  0.20572399549E+03  0.89895607150E+02 0.  0.
        -11    1    3    3    0    0 -0.27411662550E+02 -0.29174982372E+02  0.15009896110E+03  0.15534566927E+03  0.00000000000E+00 0.  1.
         11    1    3    3    0    0 -0.45022444243E+01  0.55562461907E+02  0.11180800522E+03  0.12493393218E+03  0.00000000000E+00 0. -1.
        -13    1    4    4    0    0 -0.35423883525E+02 -0.24643175511E+02  0.48073457550E+02  0.64600270464E+02  0.00000000000E+00 0.  1.
         13    1    4    4    0    0  0.48334439175E+02 -0.19671822150E+02  0.13112096388E+03  0.14112372503E+03  0.00000000000E+00 0. -1.
          1    1    1    2  501    0  0.19003351324E+02  0.17927518127E+02  0.27781469125E+02  0.38135722026E+02  0.00000000000E+00 0. -1.
<scales pt_clust_5="13000.00000" pt_clust_6="13000.00000" pt_clust_7="13000.00000" pt_clust_8="13000.00000" pt_clust_9="26.12515"></scales>
<clustering>
<clus scale="   26.125">  2  9  1 -1</clus>
<clus scale="   89.896">  7  8 -1 -1</clus>
<clus scale="   90.811">  5  6 -1 -1</clus>
<clus scale="   99.001">  2  7  1 -1</clus>
<clus scale="   26.125">  2  5  1 -1</clus>
</clustering>
</event>
<event>
 9    1  0.1464797E-005  0.9630929E+02  0.7546771E-02  0.1288987E+00
         -4   -1    0    0    0  501 -0.00000000000E+00  0.00000000000E+00  0.18800847013E+03  0.18800847013E+03  0.00000000000E+00 0.  1.
         21   -1    0    0  501  502  0.00000000000E+00 -0.00000000000E+00 -0.87927070488E+02  0.87927070488E+02  0.00000000000E+00 0. -1.
         23    2    1    2    0    0  0.21537300605E+02 -0.59151007371E+01  0.10762845035E+03  0.14247855277E+03  0.90649936247E+02 0.  0.
         23    2    1    2    0    0 -0.44600422982E+02  0.30721123770E+01  0.12101539821E+02  0.10302579815E+03  0.92028431555E+02 0.  0.
        -11    1    3    3    0    0  0.54352653465E+02  0.96505118447E+01  0.78260528284E+02  0.95770839011E+02  0.00000000000E+00 0.  1.
         11    1    3    3    0    0 -0.32815352860E+02 -0.15565612582E+02  0.29367922064E+02  0.46707713760E+02  0.00000000000E+00 0. -1.
        -13    1    4    4    0    0 -0.43567282925E+02  0.37639220812E+02 -0.14527280388E+02  0.59378960586E+02  0.00000000000E+00 0.  1.
         13    1    4    4    0    0 -0.10331400571E+01 -0.34567108435E+02  0.26628820209E+02  0.43646837567E+02  0.00000000000E+00 0. -1.
         -4    1    1    2    0  502  0.23063122377E+02  0.28429883601E+01 -0.19648590525E+02  0.30431189695E+02  0.00000000000E+00 0.  1.
<scales pt_clust_5="13000.00000" pt_clust_6="13000.00000" pt_clust_7="13000.00000" pt_clust_8="13000.00000" pt_clust_9="23.23769"></scales>
<clustering>
<clus scale="   23.238">  2  9  1 -1</clus>
<clus scale="   90.650">  5  6 -1 -1</clus>
<clus scale="   92.028">  7  8 -1 -1</clus>
<clus scale="   94.993">  1  5  2 -1</clus>
<clus scale="   23.238">  2  5  1 -1</clus>
</clustering>
</event>
<event>
 9    1  0.1464797E-005  0.9306837E+02  0.7546771E-02  0.1295638E+00
         -1   -1    0    0    0  501 -0.00000000000E+00  0.00000000000E+00  0.86240328919E+02  0.86240328919E+02  0.00000000000E+00 0.  1.
         21   -1    0    0  501  502  0.00000000000E+00 -0.00000000000E+00 -0.36112573204E+03  0.36112573204E+03  0.00000000000E+00 0. -1.
         23    2    1    2    0    0 -0.39381798097E+01  0.21806282949E+02  0.62609109864E+01  0.93374082539E+02  0.90490314660E+02 0.  0.
         23    2    1    2    0    0 -0.82805730547E+02  0.58752625820E+01 -0.14296402372E+03  0.18850747968E+03  0.90581731575E+02 0.  0.
        -11    1    3    3    0    0  0.10681371193E+02 -0.31097815807E+02  0.17648880815E+02  0.37318210468E+02  0.00000000000E+00 0. -1.
         11    1    3    3    0    0 -0.14619551003E+02  0.52904098757E+02 -0.11387969829E+02  0.56055872070E+02  0.00000000000E+00 0.  1.
        -13    1    4    4    0    0  0.18489106953E+02 -0.78371257705E+01 -0.30642748683E+02  0.36636671015E+02  0.00000000000E+00 0.  1.
         13    1    4    4    0    0 -0.10129483750E+03  0.13712388353E+02 -0.11232127504E+03  0.15187080867E+03  0.00000000000E+00 0. -1.
         -1    1    1    2    0  502  0.86743910356E+02 -0.27681545531E+02 -0.13818229038E+03  0.16548449874E+03  0.00000000000E+00 0.  1.
<scales pt_clust_5="13000.00000" pt_clust_6="13000.00000" pt_clust_7="13000.00000" pt_clust_8="13000.00000" pt_clust_9="91.05369"></scales>
<clustering>
<clus scale="   90.490">  5  6 -1 -1</clus>
<clus scale="   90.582">  7  8 -1 -1</clus>
<clus scale="   91.054">  2  9  1 -1</clus>
<clus scale="   92.979">  1  5  2 -1</clus>
<clus scale="   91.054">  2  5  1 -1</clus>
</clustering>
</event>
<event>
 9    1  0.1464797E-005  0.1140110E+03  0.7546771E-02  0.1254230E+00
         -1   -1    0    0    0  501 -0.00000000000E+00  0.00000000000E+00  0.34663536340E+03  0.34663536340E+03  0.00000000000E+00 0.  1.
         21   -1    0    0  501  502  0.00000000000E+00 -0.00000000000E+00 -0.12463845124E+03  0.12463845124E+03  0.00000000000E+00 0.  1.
         23    2    1    2    0    0 -0.37941270431E+02  0.47020172805E+02  0.26525561074E+03  0.28859548007E+03  0.96313942059E+02 0.  0.
         23    2    1    2    0    0  0.17203276992E+02 -0.66241889408E+02  0.15752361698E+02  0.11724253401E+03  0.93881490347E+02 0.  0.
        -11    1    4    4    0    0 -0.34816820316E+02 -0.30172557893E+02  0.26327876595E+02  0.53063653405E+02  0.00000000000E+00 0. -1.
         11    1    4    4    0    0  0.52020097308E+02 -0.36069331515E+02 -0.10575514897E+02  0.64178880601E+02  0.00000000000E+00 0.  1.
        -13    1    3    3    0    0  0.25684305242E+02  0.74200170329E+01  0.14081748447E+03  0.14333284384E+03  0.00000000000E+00 0. -1.
         13    1    3    3    0    0 -0.63625575672E+02  0.39600155773E+02  0.12443812627E+03  0.14526263623E+03  0.00000000000E+00 0.  1.
         -1    1    1    2    0  502  0.20737993438E+02  0.19221716602E+02 -0.59011060273E+02  0.65435800565E+02  0.00000000000E+00 0.  1.
<scales pt_clust_5="13000.00000" pt_clust_6="13000.00000" pt_clust_7="13000.00000" pt_clust_8="13000.00000" pt_clust_9="28.27612"></scales>
<clustering>
<clus scale="   28.276">  2  9  1 -1</clus>
<clus scale="   93.881">  5  6 -1 -1</clus>
<clus scale="   96.314">  7  8 -1 -1</clus>
<clus scale="  111.964">  2  5  1 -1</clus>
<clus scale="   28.276">  2  5  1 -1</clus>
</clustering>
</event>
<event>
 9    1  0.1464797E-005  0.1026080E+03  0.7546771E-02  0.1274940E+00
         21   -1    0    0  501  502  0.00000000000E+00  0.00000000000E+00  0.84954780657E+03  0.84954780657E+03  0.00000000000E+00 0. -1.
         -4   -1    0    0    0  501 -0.00000000000E+00 -0.00000000000E+00 -0.15712663181E+02  0.15712663181E+02  0.00000000000E+00 0.  1.
         23    2    1    2    0    0 -0.52357902498E+02 -0.36777380391E+01  0.32229645628E+03  0.33868177874E+03  0.89863595576E+02 0.  0.
         23    2    1    2    0    0  0.42894537356E+02  0.22171589372E+02  0.38128472887E+03  0.39467845806E+03  0.89785968120E+02 0.  0.
        -11    1    4    4    0    0  0.35298738252E+01 -0.33493706701E+02  0.11841306053E+03  0.12310946877E+03  0.00000000000E+00 0.  1.
         11    1    4    4    0    0  0.39364663531E+02  0.55665296074E+02  0.26287166835E+03  0.27156898929E+03  0.00000000000E+00 0. -1.
        -13    1    3    3    0    0  0.20990971418E+02  0.15355562701E+02  0.54791947907E+02  0.60651230345E+02  0.00000000000E+00 0.  1.
         13    1    3    3    0    0 -0.73348873916E+02 -0.19033300740E+02  0.26750450837E+03  0.27803054840E+03  0.00000000000E+00 0. -1.
         -4    1    1    2    0  502  0.94633651424E+01 -0.18493851333E+02  0.13025395823E+03  0.13190023295E+03  0.00000000000E+00 0.  1.
<scales pt_clust_5="13000.00000" pt_clust_6="13000.00000" pt_clust_7="13000.00000" pt_clust_8="13000.00000" pt_clust_9="20.77445"></scales>
<clustering>
<clus scale="   20.774">  1  9  2 -1</clus>
<clus scale="   89.786">  5  6 -1 -1</clus>
<clus scale="   89.864">  7  8 -1 -1</clus>
<clus scale="  102.540">  1  5  2 -1</clus>
<clus scale="   20.774">  1  5  2 -1</clus>
</clustering>
</event>
<event>
 9    1  0.1464797E-005  0.1822502E+03  0.7546771E-02  0.1190005E+00
         21   -1    0    0  501  502  0.00000000000E+00  0.00000000000E+00  0.14646656879E+03  0.14646656879E+03  0.00000000000E+00 0. -1.
          1   -1    0    0  502    0 -0.00000000000E+00 -0.00000000000E+00 -0.65401912020E+03  0.65401912020E+03  0.00000000000E+00 0. -1.
         23    2    1    2    0    0 -0.38140318449E+02 -0.33592879710E+02 -0.41151688266E+03  0.42474404667E+03  0.92077114452E+02 0.  0.
         23    2    1    2    0    0 -0.14155374075E+03  0.31329602170E+02 -0.64417721634E+00  0.17228497865E+03  0.93073591367E+02 0.  0.
        -11    1    3    3    0    0 -0.13780226155E+01  0.30182404229E+02 -0.15280340010E+03  0.15576185526E+03  0.00000000000E+00 0.  1.
         11    1    3    3    0    0 -0.36762295833E+02 -0.63775283939E+02 -0.25871348256E+03  0.26898219141E+03  0.00000000000E+00 0. -1.
        -13    1    4    4    0    0 -0.13889173607E+02  0.14947845679E+02  0.33407062388E+02  0.39145613436E+02  0.00000000000E+00 0.  1.
         13    1    4    4    0    0 -0.12766456714E+03  0.16381756491E+02 -0.34051239604E+02  0.13313936521E+03  0.00000000000E+00 0. -1.
          1    1    1    2  501    0  0.17969405920E+03  0.22632775403E+01 -0.95391491523E+02  0.20345666367E+03  0.00000000000E+00 0. -1.
<scales pt_clust_5="13000.00000" pt_clust_6="13000.00000" pt_clust_7="13000.00000" pt_clust_8="13000.00000" pt_clust_9="156.69227"></scales>
<clustering>
<clus scale="   92.077">  5  6 -1 -1</clus>
<clus scale="   93.074">  7  8 -1 -1</clus>
<clus scale="  105.173">  2  5  1 -1</clus>
<clus scale="  156.692">  1  9  2 -1</clus>
<clus scale="  156.692">  1  5  2 -1</clus>
</clustering>
</event>
<event>
 9    1  0.1464797E-005  0.1020643E+03  0.7546771E-02  0.1277068E+00
         -1   -1    0    0    0  501 -0.00000000000E+00  0.00000000000E+00  0.63108807189E+03  0.63108807189E+03  0.00000000000E+00 0.  1.
         21   -1    0    0  501  502  0.00000000000E+00 -0.00000000000E+00 -0.23738826012E+02  0.23738826012E+02  0.00000000000E+00 0. -1.
         23    2    1    2    0    0  0.44499397208E+02  0.27591546503E+02  0.32638843696E+03  0.34291686248E+03  0.91219915621E+02 0.  0.
         23    2    1    2    0    0 -0.28537039320E+02 -0.82184089851E+01  0.26398191997E+03  0.28160495339E+03  0.93450472675E+02 0.  0.
        -11    1    3    3    0    0  0.53956536513E+02 -0.17418609540E+02  0.14253714395E+03  0.15339997782E+03  0.00000000000E+00 0. -1.
         11    1    3    3    0    0 -0.94571393049E+01  0.45010156043E+02  0.18385129301E+03  0.18951688466E+03  0.00000000000E+00 0.  1.
        -13    1    4    4    0    0  0.19808065420E+01  0.21863202885E+02  0.10157508203E+02  0.24188803356E+02  0.00000000000E+00 0. -1.
         13    1    4    4    0    0 -0.30517845862E+02 -0.30081611870E+02  0.25382441177E+03  0.25741615004E+03  0.00000000000E+00 0.  1.
         -1    1    1    2    0  502 -0.15962357888E+02 -0.19373137518E+02  0.16978888946E+02  0.30305082024E+02  0.00000000000E+00 0.  1.
<scales pt_clust_5="13000.00000" pt_clust_6="13000.00000" pt_clust_7="13000.00000" pt_clust_8="13000.00000" pt_clust_9="25.10210"></scales>
<clustering>
<clus scale="   25.102">  2  9  1 -1</clus>
<clus scale="   91.220">  5  6 -1 -1</clus>
<clus scale="   93.450">  7  8 -1 -1</clus>
<clus scale="  100.026">  1  5  2 -1</clus>
<clus scale="   25.102">  2  5  1 -1</clus>
</clustering>
</event>
<event>
 9    1  0.1464797E-005  0.1007170E+03  0.7546771E-02  0.1280549E+00
         21   -1    0    0  501  502  0.00000000000E+00  0.00000000000E+00  0.87398613557E+03  0.87398613557E+03  0.00000000000E+00 0.  1.
          2   -1    0    0  502    0 -0.00000000000E+00 -0.00000000000E+00 -0.24154129263E+02  0.24154129263E+02  0.00000000000E+00 0. -1.
         23    2    1    2    0    0 -0.83294993669E+01 -0.28212111585E+02  0.27238395754E+03  0.29094233638E+03  0.97924046979E+02 0.  0.
         23    2    1    2    0    0 -0.57573479759E+02 -0.10683336548E+02  0.34632802265E+03  0.36373843487E+03  0.94518307611E+02 0.  0.
        -11    1    3    3    0    0  0.18982276456E+02  0.30625435221E+02  0.75698704932E+02  0.83836376533E+02  0.00000000000E+00 0. -1.
         11    1    3    3    0    0 -0.27311775823E+02 -0.58837546806E+02  0.19668525261E+03  0.20710595985E+03  0.00000000000E+00 0.  1.
        -13    1    4    4    0    0  0.20499553477E+01 -0.35835272225E+02  0.20734342042E+03  0.21042733436E+03  0.00000000000E+00 0.  1.
         13    1    4    4    0    0 -0.59623435107E+02  0.25151935678E+02  0.13898460223E+03  0.15331110051E+03  0.00000000000E+00 0. -1.
          2    1    1    2  501    0  0.65902979126E+02  0.38895448132E+02  0.23112002612E+03  0.24345949358E+03  0.00000000000E+00 0. -1.
<scales pt_clust_5="13000.00000" pt_clust_6="13000.00000" pt_clust_7="13000.00000" pt_clust_8="13000.00000" pt_clust_9="76.52489"></scales>
<clustering>
<clus scale="   76.525">  1  9  2 -1</clus>
<clus scale="   94.518">  7  8 -1 -1</clus>
<clus scale="   97.409">  1  7  2 -1</clus>
<clus scale="   97.924">  5  6 -1 -1</clus>
<clus scale="   76.525">  1  5  2 -1</clus>
</clustering>
</event>
<event>
 9    1  0.1464797E-005  0.1187979E+03  0.7546771E-02  0.1247728E+00
         21   -1    0    0  501  502  0.00000000000E+00  0.00000000000E+00  0.32018227169E+03  0.32018227169E+03  0.00000000000E+00 0. -1.
          2   -1    0    0  502    0 -0.00000000000E+00 -0.00000000000E+00 -0.10800084202E+03  0.10800084202E+03  0.00000000000E+00 0. -1.
         23    2    1    2    0    0  0.71693971880E+02  0.27431516355E+02 -0.57068147097E+02  0.12789006916E+03  0.84891593715E+02 0.  0.
         23    2    1    2    0    0 -0.49514929442E+02 -0.24171450165E+02  0.24205910084E+03  0.26505301139E+03  0.92868203970E+02 0.  0.
        -11    1    3    3    0    0  0.57076733715E+02  0.12449916507E+02  0.85256596175E+01  0.59037622110E+02  0.00000000000E+00 0.  1.
         11    1    3    3    0    0  0.14617238166E+02  0.14981599849E+02 -0.65593806714E+02  0.68852447051E+02  0.00000000000E+00 0. -1.
        -13    1    4    4    0    0 -0.59881331665E+02  0.22468886366E+01  0.76987792195E+02  0.97559943305E+02  0.00000000000E+00 0.  1.
         13    1    4    4    0    0  0.10366402223E+02 -0.26418338802E+02  0.16507130865E+03  0.16749306809E+03  0.00000000000E+00 0. -1.
          2    1    1    2  501    0 -0.22179042438E+02 -0.32600661903E+01  0.27190475930E+02  0.35240033149E+02  0.00000000000E+00 0. -1.
<scales pt_clust_5="13000.00000" pt_clust_6="13000.00000" pt_clust_7="13000.00000" pt_clust_8="13000.00000" pt_clust_9="22.41736"></scales>
<clustering>
<clus scale="   22.417">  1  9  2 -1</clus>
<clus scale="   84.892">  5  6 -1 -1</clus>
<clus scale="   92.868">  7  8 -1 -1</clus>
<clus scale="  112.672">  2  5  1 -1</clus>
<clus scale="   22.417">  1  5  2 -1</clus>
</clustering>
</event>
<event>
 9    1  0.1464797E-005  0.1386950E+03  0.7546771E-02  0.1215276E+00
         -1   -1    0    0    0  501 -0.00000000000E+00  0.00000000000E+00  0.71799815249E+03  0.71799815249E+03  0.00000000000E+00 0.  1.
         21   -1    0    0  501  502  0.00000000000E+00 -0.00000000000E+00 -0.67958122042E+02  0.67958122042E+02  0.00000000000E+00 0.  1.
         23    2    1    2    0    0  0.77702347488E+02  0.67465903961E+02  0.41299988530E+03  0.43543496658E+03  0.91898867534E+02 0.  0.
         23    2    1    2    0    0 -0.62857613143E+02 -0.84115006124E+02  0.27378677027E+03  0.30753441230E+03  0.92691992043E+02 0.  0.
        -11    1    4    4    0    0 -0.86861687921E+02 -0.73203016683E+02  0.22669417628E+03  0.25356238688E+03  0.00000000000E+00 0.  1.
         11    1    4    4    0    0  0.24004074778E+02 -0.10911989441E+02  0.47092593990E+02  0.53972025422E+02  0.00000000000E+00 0. -1.
        -11    1    3    3    0    0  0.98603099871E+02  0.49421535924E+02  0.32512052498E+03  0.34331969836E+03  0.00000000000E+00 0.  1.
         11    1    3    3    0    0 -0.20900752383E+02  0.18044368036E+02  0.87879360325E+02  0.92115268219E+02  0.00000000000E+00 0. -1.
         -1    1    1    2    0  502 -0.14844734345E+02  0.16649102163E+02 -0.36746625122E+02  0.42986895660E+02  0.00000000000E+00 0.  1.
<scales pt_clust_5="13000.00000" pt_clust_6="13000.00000" pt_clust_7="13000.00000" pt_clust_8="13000.00000" pt_clust_9="22.30602"></scales>
<clustering>
<clus scale="   22.306">  2  9  1 -1</clus>
<clus scale="   91.899">  7  8 -1 -1</clus>
<clus scale="   92.692">  5  6 -1 -1</clus>
<clus scale="  138.166">  1  7  2 -1</clus>
<clus scale="   22.306">  2  5  1 -1</clus>
</clustering>
</event>
<event>
 9    1  0.1464797E-005  0.1379919E+03  0.7546771E-02  0.1218733E+00
          3   -1    0    0  502    0 -0.00000000000E+00  0.00000000000E+00  0.51944412779E+03  0.51944412779E+03  0.00000000000E+00 0. -1.
         21   -1    0    0  501  502  0.00000000000E+00 -0.00000000000E+00 -0.17398513252E+03  0.17398513252E+03  0.00000000000E+00 0.  1.
         23    2    1    2    0    0 -0.70148211342E+02  0.70764638257E+02  0.43403921529E+03  0.45261608671E+03  0.80888045807E+02 0.  0.
         23    2    1    2    0    0  0.10594979677E+03 -0.97610079161E+02 -0.94623621207E+02  0.19565839629E+03  0.92603948944E+02 0.  0.
        -11    1    3    3    0    0 -0.56276999150E+02  0.37554742151E+00  0.20677458301E+03  0.21429645319E+03  0.00000000000E+00 0.  1.
         11    1    3    3    0    0 -0.13871212193E+02  0.70389090835E+02  0.22726463228E+03  0.23831963352E+03  0.00000000000E+00 0. -1.
        -13    1    4    4    0    0 -0.77102339253E+01 -0.42113460822E+02 -0.37329013689E+02  0.56801818215E+02  0.00000000000E+00 0. -1.
         13    1    4    4    0    0  0.11366003069E+03 -0.55496618339E+02 -0.57294607518E+02  0.13885657808E+03  0.00000000000E+00 0.  1.
          3    1    1    2  501    0 -0.35801585427E+02  0.26845440905E+02  0.60434011865E+01  0.45154777315E+02  0.00000000000E+00 0. -1.
<scales pt_clust_5="13000.00000" pt_clust_6="13000.00000" pt_clust_7="13000.00000" pt_clust_8="13000.00000" pt_clust_9="44.74853"></scales>
<clustering>
<clus scale="   44.749">  2  9  1 -1</clus>
<clus scale="   80.888">  5  6 -1 -1</clus>
<clus scale="   92.604">  7  8 -1 -1</clus>
<clus scale="  130.419">  1  5  2 -1</clus>
<clus scale="   44.749">  2  5  1 -1</clus>
</clustering>
</event>
<event>
 9    1  0.1464797E-005  0.1076495E+03  0.7546771E-02  0.1270869E+00
          1   -1    0    0  502    0 -0.00000000000E+00  0.00000000000E+00  0.81531280323E+03  0.81531280323E+03  0.00000000000E+00 0. -1.
         21   -1    0    0  501  502  0.00000000000E+00 -0.00000000000E+00 -0.35085458477E+02  0.35085458477E+02  0.00000000000E+00 0. -1.
         23    2    1    2    0    0  0.62391211900E+02 -0.29541019147E+02  0.63043530343E+03  0.64090198489E+03  0.92419409647E+02 0.  0.
         23    2    1    2    0    0 -0.27501945266E+02 -0.10778386360E+02  0.12528902528E+03  0.15081652579E+03  0.78585965602E+02 0.  0.
        -13    1    3    3    0    0  0.71883953154E+02 -0.52616888746E+02  0.52862599407E+03  0.53607954756E+03  0.00000000000E+00 0. -1.
         13    1    3    3    0    0 -0.94927412549E+01  0.23075869599E+02  0.10180930937E+03  0.10482243733E+03  0.00000000000E+00 0.  1.
        -13    1    4    4    0    0  0.41414802272E+01 -0.39802361280E+02  0.48902156941E+02  0.63188612704E+02  0.00000000000E+00 0. -1.
         13    1    4    4    0    0 -0.31643425493E+02  0.29023974921E+02  0.76386868334E+02  0.87627913081E+02  0.00000000000E+00 0.  1.
          1    1    1    2  501    0 -0.34889266634E+02  0.40319405506E+02  0.24503016048E+02  0.58679751040E+02  0.00000000000E+00 0. -1.
<scales pt_clust_5="13000.00000" pt_clust_6="13000.00000" pt_clust_7="13000.00000" pt_clust_8="13000.00000" pt_clust_9="53.31900"></scales>
<clustering>
<clus scale="   53.319">  2  9  1 -1</clus>
<clus scale="   78.586">  7  8 -1 -1</clus>
<clus scale="   92.419">  5  6 -1 -1</clus>
<clus scale="   96.035">  2  7  1 -1</clus>
<clus scale="   53.319">  2  5  1 -1</clus>
</clustering>
</event>
<event>
 9    1  0.1464797E-005  0.9496799E+02  0.7546771E-02  0.1291650E+00
         -3   -1    0    0    0  501 -0.00000000000E+00  0.00000000000E+00  0.38796831838E+03  0.38796831838E+03  0.00000000000E+00 0.  1.
         21   -1    0    0  501  502  0.00000000000E+00 -0.00000000000E+00 -0.66510989855E+02  0.66510989855E+02  0.00000000000E+00 0. -1.
         23    2    1    2    0    0  0.22017875840E+02  0.18786396460E+02  0.31708451319E+03  0.33119151325E+03  0.91145567058E+02 0.  0.
         23    2    1    2    0    0 -0.23387130755E+02  0.10277217592E+02  0.60771755607E+01  0.94142068641E+02  0.90405851242E+02 0.  0.
        -11    1    3    3    0    0  0.26956640401E+02  0.49914083483E+02  0.25866578053E+03  0.26481325912E+03  0.00000000000E+00 0.  1.
         11    1    3    3    0    0 -0.49387645613E+01 -0.31127687023E+02  0.58418732662E+02  0.66378254125E+02  0.00000000000E+00 0. -1.
        -13    1    4    4    0    0 -0.58175588750E+02  0.88856621774E+01  0.30821157735E+00  0.58851075717E+02  0.00000000000E+00 0. -1.
         13    1    4    4    0    0  0.34788457994E+02  0.13915554148E+01  0.57689639834E+01  0.35290992924E+02  0.00000000000E+00 0.  1.
         -3    1    1    2    0  502  0.13692549159E+01 -0.29063614052E+02 -0.17043602206E+01  0.29145726351E+02  0.00000000000E+00 0.  1.
<scales pt_clust_5="13000.00000" pt_clust_6="13000.00000" pt_clust_7="13000.00000" pt_clust_8="13000.00000" pt_clust_9="29.09585"></scales>
<clustering>
<clus scale="   29.096">  2  9  1 -1</clus>
<clus scale="   90.406">  7  8 -1 -1</clus>
<clus scale="   91.146">  5  6 -1 -1</clus>
<clus scale="   94.258">  2  7  1 -1</clus>
<clus scale="   29.096">  2  5  1 -1</clus>
</clustering>
</event>
<event>
 9    1  0.1464797E-005  0.1357530E+03  0.7546771E-02  0.1219283E+00
         21   -1    0    0  501  502  0.00000000000E+00  0.00000000000E+00  0.33435320535E+03  0.33435320535E+03  0.00000000000E+00 0. -1.
         -1   -1    0    0    0  501 -0.00000000000E+00 -0.00000000000E+00 -0.12950027179E+03  0.12950027179E+03  0.00000000000E+00 0.  1.
         23    2    1    2    0    0 -0.26030619188E+02 -0.10246214745E+03 -0.51151240948E+02  0.14743086707E+03  0.89125340503E+02 0.  0.
         23    2    1    2    0    0 -0.92910329496E+01  0.93911649727E+02  0.12498471661E+03  0.18045633312E+03  0.89652593540E+02 0.  0.
        -13    1    3    3    0    0  0.24505941779E+00 -0.10605955281E+03 -0.56804952902E+02  0.12031413662E+03  0.00000000000E+00 0.  1.
         13    1    3    3    0    0 -0.26275678606E+02  0.35974053615E+01  0.56537119536E+01  0.27116730452E+02  0.00000000000E+00 0. -1.
        -13    1    4    4    0    0  0.24564580142E+02  0.57040677065E+01  0.18996379683E+01  0.25289594904E+02  0.00000000000E+00 0.  1.
         13    1    4    4    0    0 -0.33855613092E+02  0.88207582021E+02  0.12308507864E+03  0.15516673821E+03  0.00000000000E+00 0. -1.
         -1    1    1    2    0  502  0.35321652138E+02  0.85504977191E+01  0.13101945789E+03  0.13596627695E+03  0.00000000000E+00 0.  1.
<scales pt_clust_5="13000.00000" pt_clust_6="13000.00000" pt_clust_7="13000.00000" pt_clust_8="13000.00000" pt_clust_9="36.34185"></scales>
<clustering>
<clus scale="   36.342">  1  9  2 -1</clus>
<clus scale="   89.125">  5  6 -1 -1</clus>
<clus scale="   89.653">  7  8 -1 -1</clus>
<clus scale="  135.405">  2  5  1 -1</clus>
<clus scale="   36.342">  1  5  2 -1</clus>
</clustering>
</event>
<event>
 9    1  0.1464797E-005  0.1373489E+03  0.7546771E-02  0.1216963E+00
         21   -1    0    0  501  502  0.00000000000E+00  0.00000000000E+00  0.95162353143E+02  0.95162353143E+02  0.00000000000E+00 0. -1.
          2   -1    0    0  502    0 -0.00000000000E+00 -0.00000000000E+00 -0.46617463970E+03  0.46617463970E+03  0.00000000000E+00 0. -1.
         23    2    1    2    0    0  0.10209662147E+03 -0.46201540353E+02 -0.37310368919E+03  0.39990250804E+03  0.90318052506E+02 0.  0.
         23    2    1    2    0    0 -0.61087609091E+02  0.37213097560E+02 -0.14989363770E+02  0.11611027734E+03  0.90224192234E+02 0.  0.
        -11    1    4    4    0    0 -0.55173393205E+02 -0.72565914916E+01 -0.36303396274E+02  0.66443193924E+02  0.00000000000E+00 0.  1.
         11    1    4    4    0    0 -0.59142158859E+01  0.44469689051E+02  0.21314032504E+02  0.49667083420E+02  0.00000000000E+00 0. -1.
        -11    1    3    3    0    0  0.57486022071E+02  0.79274367434E+01 -0.81929731144E+02  0.10039904298E+03  0.00000000000E+00 0.  1.
         11    1    3    3    0    0  0.44610599399E+02 -0.54128977096E+02 -0.29117395804E+03  0.29950346506E+03  0.00000000000E+00 0. -1.
          2    1    1    2  501    0 -0.41009012379E+02  0.89884427929E+01  0.17080766404E+02  0.45324207451E+02  0.00000000000E+00 0. -1.
<scales pt_clust_5="13000.00000" pt_clust_6="13000.00000" pt_clust_7="13000.00000" pt_clust_8="13000.00000" pt_clust_9="41.98251"></scales>
<clustering>
<clus scale="   41.983">  1  9  2 -1</clus>
<clus scale="   90.224">  5  6 -1 -1</clus>
<clus scale="   90.318">  7  8 -1 -1</clus>
<clus scale="  137.287">  1  5  2 -1</clus>
<clus scale="   41.983">  1  5  2 -1</clus>
</clustering>
</event>
<event>
 9    1  0.1464797E-005  0.1129930E+03  0.7546771E-02  0.1258758E+00
         21   -1    0    0  501  502  0.00000000000E+00  0.00000000000E+00  0.13079342194E+03  0.13079342194E+03  0.00000000000E+00 0. -1.
          1   -1    0    0  502    0 -0.00000000000E+00 -0.00000000000E+00 -0.24602483679E+03  0.24602483679E+03  0.00000000000E+00 0. -1.
         23    2    1    2    0    0  0.22137269181E+02 -0.52762892098E+02 -0.16044454944E+03  0.19825579665E+03  0.10143434325E+03 0.  0.
         23    2    1    2    0    0 -0.13211583708E+02  0.32365839698E+02 -0.27297775338E+02  0.10271037135E+03  0.92639939128E+02 0.  0.
        -11    1    4    4    0    0  0.25090538725E+02 -0.18804312761E+02  0.38802885456E+01  0.31594207557E+02  0.00000000000E+00 0.  1.
         11    1    4    4    0    0 -0.38302122433E+02  0.51170152459E+02 -0.31178063884E+02  0.71116163796E+02  0.00000000000E+00 0. -1.
        -11    1    3    3    0    0  0.56394494895E+02 -0.58151831993E+01 -0.62634913288E+02  0.84482470210E+02  0.00000000000E+00 0.  1.
         11    1    3    3    0    0 -0.34257225714E+02 -0.46947708899E+02 -0.97809636156E+02  0.11377332644E+03  0.00000000000E+00 0. -1.
          1    1    1    2  501    0 -0.89256854734E+01  0.20397052400E+02  0.72510909937E+02  0.75852090727E+02  0.00000000000E+00 0. -1.
<scales pt_clust_5="13000.00000" pt_clust_6="13000.00000" pt_clust_7="13000.00000" pt_clust_8="13000.00000" pt_clust_9="22.26449"></scales>
<clustering>
<clus scale="   22.264">  1  9  2 -1</clus>
<clus scale="   92.640">  5  6 -1 -1</clus>
<clus scale="  101.434">  7  8 -1 -1</clus>
<clus scale="  105.170">  1  5  2 -1</clus>
<clus scale="   22.264">  1  5  2 -1</clus>
</clustering>
</event>
<event>
 9    1  0.1464797E-005  0.1250968E+03  0.7546771E-02  0.1235730E+00
          1   -1    0    0  502    0 -0.00000000000E+00  0.00000000000E+00  0.27915558868E+03  0.27915558868E+03  0.00000000000E+00 0. -1.
         21   -1    0    0  501  502  0.00000000000E+00 -0.00000000000E+00 -0.11394363361E+03  0.11394363361E+03  0.00000000000E+00 0.  1.
         23    2    1    2    0    0  0.70354611129E+02 -0.25070748669E+02  0.17275531731E+03  0.21104303732E+03  0.95480103670E+02 0.  0.
         23    2    1    2    0    0 -0.92414755245E+02  0.33497595125E+02  0.29298386533E+02  0.13829574447E+03  0.92761746527E+02 0.  0.
        -13    1    3    3    0    0  0.61557447713E+02 -0.59234810351E+02  0.11311808358E+03  0.14175254128E+03  0.00000000000E+00 0. -1.
         13    1    3    3    0    0  0.87971634167E+01  0.34164061682E+02  0.59637233733E+02  0.69290496045E+02  0.00000000000E+00 0.  1.
        -13    1    4    4    0    0 -0.98681899822E+02 -0.23344646991E+01  0.19411502211E+02  0.10060006708E+03  0.00000000000E+00 0.  1.
         13    1    4    4    0    0  0.62671445774E+01  0.35832059824E+02  0.98868843224E+01  0.37695677392E+02  0.00000000000E+00 0. -1.
          1    1    1    2  501    0  0.22060144115E+02 -0.84268464565E+01 -0.36841748771E+02  0.43760440493E+02  0.00000000000E+00 0. -1.
<scales pt_clust_5="13000.00000" pt_clust_6="13000.00000" pt_clust_7="13000.00000" pt_clust_8="13000.00000" pt_clust_9="23.61486"></scales>
<clustering>
<clus scale="   23.615">  2  9  1 -1</clus>
<clus scale="   92.762">  7  8 -1 -1</clus>
<clus scale="   95.480">  5  6 -1 -1</clus>
<clus scale="  123.035">  2  7  1 -1</clus>
<clus scale="   23.615">  2  5  1 -1</clus>
</clustering>
</event>
<event>
 9    1  0.1464797E-005  0.9460746E+02  0.7546771E-02  0.1303527E+00
          1   -1    0    0  502    0 -0.00000000000E+00  0.00000000000E+00  0.95971736634E+02  0.95971736634E+02  0.00000000000E+00 0. -1.
         21   -1    0    0  501  502  0.00000000000E+00 -0.00000000000E+00 -0.14003716093E+03  0.14003716093E+03  0.00000000000E+00 0.  1.
         23    2    1    2    0    0 -0.73179015137E+01  0.18310698065E+02  0.43987232779E+02  0.88685505113E+02  0.74440639596E+02 0.  0.
         23    2    1    2    0    0 -0.15156018006E+02 -0.13915965036E+02 -0.72400093168E+02  0.11958544923E+03  0.92927645041E+02 0.  0.
        -11    1    3    3    0    0  0.20883737846E+02 -0.12340314916E+02 -0.45995539880E+01  0.24689466894E+02  0.00000000000E+00 0.  1.
         11    1    3    3    0    0 -0.28201639360E+02  0.30651012981E+02  0.48586786767E+02  0.63996038219E+02  0.00000000000E+00 0. -1.
        -13    1    4    4    0    0 -0.37457420853E+02  0.27515603534E+02 -0.47064616325E+02  0.66145634207E+02  0.00000000000E+00 0. -1.
         13    1    4    4    0    0  0.22301402847E+02 -0.41431568571E+02 -0.25335476843E+02  0.53439815026E+02  0.00000000000E+00 0.  1.
          1    1    1    2  501    0  0.22473919520E+02 -0.43947330285E+01 -0.15652563902E+02  0.27737943213E+02  0.00000000000E+00 0. -1.
<scales pt_clust_5="13000.00000" pt_clust_6="13000.00000" pt_clust_7="13000.00000" pt_clust_8="13000.00000" pt_clust_9="22.89958"></scales>
<clustering>
<clus scale="   22.900">  2  9  1 -1</clus>
<clus scale="   74.441">  5  6 -1 -1</clus>
<clus scale="   76.527">  1  5  2 -1</clus>
<clus scale="   92.928">  7  8 -1 -1</clus>
<clus scale="   22.900">  2  5  1 -1</clus>
</clustering>
</event>
<event>
 9    1  0.1464797E-005  0.1225475E+03  0.7546771E-02  0.1239057E+00
         21   -1    0    0  501  502  0.00000000000E+00  0.00000000000E+00  0.58133583837E+03  0.58133583837E+03  0.00000000000E+00 0. -1.
          1   -1    0    0  502    0 -0.00000000000E+00 -0.00000000000E+00 -0.50970784339E+02  0.50970784339E+02  0.00000000000E+00 0. -1.
         23    2    1    2    0    0  0.68735238111E+02  0.10449419130E+02  0.97028112365E+02  0.15039414658E+03  0.91488914181E+02 0.  0.
         23    2    1    2    0    0 -0.11819838753E+03 -0.19359974163E+02  0.37953042677E+03  0.40828407002E+03  0.91142029669E+02 0.  0.
        -11    1    3    3    0    0  0.65476238422E+02  0.44127885700E+02  0.54008545987E+02  0.95662590044E+02  0.00000000000E+00 0.  1.
         11    1    3    3    0    0  0.32589996893E+01 -0.33678466571E+02  0.43019566377E+02  0.54731556536E+02  0.00000000000E+00 0. -1.
        -11    1    4    4    0    0 -0.70612764683E+02 -0.14565944795E+02  0.33588500367E+03  0.34353611888E+03  0.00000000000E+00 0. -1.
         11    1    4    4    0    0 -0.47585622844E+02 -0.47940293679E+01  0.43645423100E+02  0.64747951138E+02  0.00000000000E+00 0.  1.
          1    1    1    2  501    0  0.49463149416E+02  0.89105550332E+01  0.53806514892E+02  0.73628406107E+02  0.00000000000E+00 0. -1.
<scales pt_clust_5="13000.00000" pt_clust_6="13000.00000" pt_clust_7="13000.00000" pt_clust_8="13000.00000" pt_clust_9="50.25936"></scales>
<clustering>
<clus scale="   50.259">  1  9  2 -1</clus>
<clus scale="   91.142">  7  8 -1 -1</clus>
<clus scale="   91.489">  5  6 -1 -1</clus>
<clus scale="  122.289">  1  7  2 -1</clus>
<clus scale="   50.259">  1  5  2 -1</clus>
</clustering>
</event>
<event>
 9    1  0.1464797E-005  0.1003072E+03  0.7546771E-02  0.1282150E+00
         -3   -1    0    0    0  501 -0.00000000000E+00  0.00000000000E+00  0.11378635536E+03  0.11378635536E+03  0.00000000000E+00 0.  1.
         21   -1    0    0  501  502  0.00000000000E+00 -0.00000000000E+00 -0.17733649120E+03  0.17733649120E+03  0.00000000000E+00 0. -1.
         23    2    1    2    0    0 -0.12112675743E+01 -0.23289033292E+02  0.50709483739E+02  0.11322456792E+03  0.98511445014E+02 0.  0.
         23    2    1    2    0    0 -0.26885497991E+02  0.23606116325E+01 -0.64224015860E+02  0.11681645886E+03  0.93770775610E+02 0.  0.
        -11    1    3    3    0    0 -0.37809875647E+02  0.17040221993E+02  0.43413248206E+01  0.41698956380E+02  0.00000000000E+00 0. -1.
         11    1    3    3    0    0  0.36598608072E+02 -0.40329255285E+02  0.46368158919E+02  0.71525611540E+02  0.00000000000E+00 0.  1.
        -13    1    4    4    0    0 -0.81048256034E+01  0.47752288123E+02 -0.33030708578E+02  0.58625906630E+02  0.00000000000E+00 0.  1.
         13    1    4    4    0    0 -0.18780672387E+02 -0.45391676490E+02 -0.31193307282E+02  0.58190552232E+02  0.00000000000E+00 0. -1.
         -3    1    1    2    0  502  0.28096765565E+02  0.20928421660E+02 -0.50035603716E+02  0.61081819780E+02  0.00000000000E+00 0.  1.
<scales pt_clust_5="13000.00000" pt_clust_6="13000.00000" pt_clust_7="13000.00000" pt_clust_8="13000.00000" pt_clust_9="35.03466"></scales>
<clustering>
<clus scale="   35.035">  2  9  1 -1</clus>
<clus scale="   93.771">  7  8 -1 -1</clus>
<clus scale="   95.656">  2  7  1 -1</clus>
<clus scale="   98.511">  5  6 -1 -1</clus>
<clus scale="   35.035">  2  5  1 -1</clus>
</clustering>
</event>
<event>
 9    1  0.1464797E-005  0.1211813E+03  0.7546771E-02  0.1255442E+00
         21   -1    0    0  501  502  0.00000000000E+00  0.00000000000E+00  0.29253021051E+02  0.29253021051E+02  0.00000000000E+00 0.  1.
          2   -1    0    0  502    0 -0.00000000000E+00 -0.00000000000E+00 -0.96768381112E+03  0.96768381112E+03  0.00000000000E+00 0. -1.
         23    2    1    2    0    0  0.74466196451E+01  0.77278751663E+01 -0.67339440416E+03  0.68426117329E+03  0.12098825367E+03 0.  0.
         23    2    1    2    0    0 -0.57224589414E+01  0.13634098148E+02 -0.27431540530E+03  0.28932171200E+03  0.90771560962E+02 0.  0.
        -11    1    4    4    0    0  0.91095918657E+01 -0.34584199042E+02 -0.16635749741E+03  0.17015836281E+03  0.00000000000E+00 0. -1.
         11    1    4    4    0    0 -0.14832050807E+02  0.48218297190E+02 -0.10795790789E+03  0.11916334919E+03  0.00000000000E+00 0.  1.
        -13    1    3    3    0    0  0.22422315948E+02  0.61462893569E+02 -0.34126741639E+03  0.34748222549E+03  0.00000000000E+00 0. -1.
         13    1    3    3    0    0 -0.14975696303E+02 -0.53735018402E+02 -0.33212698776E+03  0.33677894780E+03  0.00000000000E+00 0.  1.
          2    1    1    2  501    0 -0.17241607036E+01 -0.21361973314E+02  0.92790193912E+01  0.23353946880E+02  0.00000000000E+00 0. -1.
<scales pt_clust_5="13000.00000" pt_clust_6="13000.00000" pt_clust_7="13000.00000" pt_clust_8="13000.00000" pt_clust_9="21.43144"></scales>
<clustering>
<clus scale="   21.431">  1  9  2 -1</clus>
<clus scale="   90.772">  5  6 -1 -1</clus>
<clus scale="   91.029">  1  5  2 -1</clus>
<clus scale="  120.988">  7  8 -1 -1</clus>
<clus scale="   21.431">  1  5  2 -1</clus>
</clustering>
</event>
<event>
 9    1  0.1464797E-005  0.1347490E+03  0.7546771E-02  0.1221010E+00
         21   -1    0    0  501  502  0.00000000000E+00  0.00000000000E+00  0.23685077753E+03  0.23685077753E+03  0.00000000000E+00 0. -1.
         -1   -1    0    0    0  501 -0.00000000000E+00 -0.00000000000E+00 -0.41199180034E+03  0.41199180034E+03  0.00000000000E+00 0.  1.
         23    2    1    2    0    0  0.45608707484E+02  0.84585108467E+02 -0.34677256540E+03  0.37087953812E+03  0.89808824243E+02 0.  0.
         23    2    1    2    0    0 -0.46062144319E+02 -0.11834544112E+03  0.71224998849E+02  0.17203174271E+03  0.91621806725E+02 0.  0.
        -11    1    4    4    0    0 -0.45364218344E+02 -0.64231165908E+02  0.85398097366E+02  0.11608785472E+03  0.00000000000E+00 0. -1.
         11    1    4    4    0    0 -0.69792597469E+00 -0.54114275211E+02 -0.14173098518E+02  0.55943887994E+02  0.00000000000E+00 0.  1.
        -13    1    3    3    0    0  0.69740709886E+02  0.40169880789E+02 -0.22844471193E+03  0.24220729210E+03  0.00000000000E+00 0. -1.
         13    1    3    3    0    0 -0.24132002403E+02  0.44415227678E+02 -0.11832785346E+03  0.12867224601E+03  0.00000000000E+00 0.  1.
         -1    1    1    2    0  502  0.45343683539E+00  0.33760332651E+02  0.10040654374E+03  0.10593129704E+03  0.00000000000E+00 0.  1.
<scales pt_clust_5="13000.00000" pt_clust_6="13000.00000" pt_clust_7="13000.00000" pt_clust_8="13000.00000" pt_clust_9="33.76338"></scales>
<clustering>
<clus scale="   33.763">  1  9  2 -1</clus>
<clus scale="   89.809">  7  8 -1 -1</clus>
<clus scale="   91.622">  5  6 -1 -1</clus>
<clus scale="  133.523">  2  7  1 -1</clus>
<clus scale="   33.763">  1  5  2 -1</clus>
</clustering>
</event>
<event>
 9    1  0.1464797E-005  0.3220476E+03  0.7546771E-02  0.1074781E+00
         21   -1    0    0  501  502  0.00000000000E+00  0.00000000000E+00  0.38525205475E+03  0.38525205475E+03  0.00000000000E+00 0. -1.
          1   -1    0    0  502    0 -0.00000000000E+00 -0.00000000000E+00 -0.53245465006E+03  0.53245465006E+03  0.00000000000E+00 0. -1.
         23    2    1    2    0    0 -0.22066975964E+03  0.15181021400E+03 -0.14385469976E+03  0.31717697566E+03  0.90363573154E+02 0.  0.
         23    2    1    2    0    0  0.38969794328E+03 -0.11411917211E+03 -0.54325384817E+02  0.42000314963E+03  0.92540401004E+02 0.  0.
        -11    1    3    3    0    0 -0.39670390128E+02  0.30553011402E+02  0.92200767282E+01  0.50914007636E+02  0.00000000000E+00 0.  1.
         11    1    3    3    0    0 -0.18099936951E+03  0.12125720260E+03 -0.15307477649E+03  0.26626296802E+03  0.00000000000E+00 0. -1.
        -11    1    4    4    0    0  0.19096030601E+03 -0.53429769923E+02 -0.73146013447E+02  0.21135495752E+03  0.00000000000E+00 0. -1.
         11    1    4    4    0    0  0.19873763728E+03 -0.60689402186E+02  0.18820628629E+02  0.20864819211E+03  0.00000000000E+00 0.  1.
          1    1    1    2  501    0 -0.16902818365E+03 -0.37691041889E+02  0.50977489266E+02  0.18052657953E+03  0.00000000000E+00 0. -1.
<scales pt_clust_5="13000.00000" pt_clust_6="13000.00000" pt_clust_7="13000.00000" pt_clust_8="13000.00000" pt_clust_9="173.17951"></scales>
<clustering>
<clus scale="   90.364">  5  6 -1 -1</clus>
<clus scale="   92.540">  7  8 -1 -1</clus>
<clus scale="  173.180">  1  9  2 -1</clus>
<clus scale="  321.429">  2  5  1 -1</clus>
<clus scale="  173.180">  1  5  2 -1</clus>
</clustering>
</event>
<event>
 9    1  0.1464797E-005  0.1109983E+03  0.7546771E-02  0.1264424E+00
          2   -1    0    0  502    0 -0.00000000000E+00  0.00000000000E+00  0.79177286029E+03  0.79177286029E+03  0.00000000000E+00 0. -1.
         21   -1    0    0  501  502  0.00000000000E+00 -0.00000000000E+00 -0.10872705027E+03  0.10872705027E+03  0.00000000000E+00 0. -1.
         23    2    1    2    0    0  0.10577558053E+02 -0.28644362919E+02  0.39207691203E+03  0.40525107860E+03  0.97835308036E+02 0.  0.
         23    2    1    2    0    0 -0.22437596685E+02 -0.23131571531E+02  0.37710082600E+03  0.39405536910E+03  0.10970909532E+03 0.  0.
        -11    1    4    4    0    0 -0.95131483375E+01  0.44263342310E+02  0.16723965355E+03  0.17325947357E+03  0.00000000000E+00 0.  1.
         11    1    4    4    0    0 -0.12924448348E+02 -0.67394913841E+02  0.20986117245E+03  0.22079589552E+03  0.00000000000E+00 0. -1.
        -13    1    3    3    0    0  0.21397696968E+02 -0.59692727488E+02  0.31715145713E+03  0.32342870916E+03  0.00000000000E+00 0. -1.
         13    1    3    3    0    0 -0.10820138915E+02  0.31048364569E+02  0.74925454903E+02  0.81822369441E+02  0.00000000000E+00 0.  1.
          2    1    1    2  501    0  0.11860038632E+02  0.51775934450E+02 -0.86131928010E+02  0.10119346287E+03  0.00000000000E+00 0. -1.
<scales pt_clust_5="13000.00000" pt_clust_6="13000.00000" pt_clust_7="13000.00000" pt_clust_8="13000.00000" pt_clust_9="53.11693"></scales>
<clustering>
<clus scale="   53.117">  2  9  1 -1</clus>
<clus scale="   97.835">  7  8 -1 -1</clus>
<clus scale="   99.279">  1  7  2 -1</clus>
<clus scale="  109.709">  5  6 -1 -1</clus>
<clus scale="   53.117">  2  5  1 -1</clus>
</clustering>
</event>
<event>
 9    1  0.1464797E-005  0.2309302E+03  0.7546771E-02  0.1126131E+00
         21   -1    0    0  501  502  0.00000000000E+00  0.00000000000E+00  0.29150604705E+03  0.29150604705E+03  0.00000000000E+00 0. -1.
         -1   -1    0    0    0  501 -0.00000000000E+00 -0.00000000000E+00 -0.24270984764E+03  0.24270984764E+03  0.00000000000E+00 0.  1.
         23    2    1    2    0    0 -0.11130510734E+03  0.16611064565E+03 -0.29413073379E+02  0.22170875724E+03  0.91148618369E+02 0.  0.
         23    2    1    2    0    0  0.15184065801E+03 -0.17411881320E+03  0.30615663759E+02  0.24948005410E+03  0.89050727074E+02 0.  0.
        -11    1    4    4    0    0  0.13201866588E+03 -0.14623200644E+03 -0.89005344454E+01  0.19721041393E+03  0.00000000000E+00 0. -1.
         11    1    4    4    0    0  0.19821992129E+02 -0.27886806752E+02  0.39516198205E+02  0.52269640169E+02  0.00000000000E+00 0.  1.
        -11    1    3    3    0    0 -0.72910414786E+02  0.90543490838E+02 -0.60963685616E+02  0.13126546873E+03  0.00000000000E+00 0.  1.
         11    1    3    3    0    0 -0.38394692558E+02  0.75567154811E+02  0.31550612237E+02  0.90443288504E+02  0.00000000000E+00 0. -1.
         -1    1    1    2    0  502 -0.40535550662E+02  0.80081675470E+01  0.47593609030E+02  0.63027083349E+02  0.00000000000E+00 0.  1.
<scales pt_clust_5="13000.00000" pt_clust_6="13000.00000" pt_clust_7="13000.00000" pt_clust_8="13000.00000" pt_clust_9="41.31902"></scales>
<clustering>
<clus scale="   41.319">  1  9  2 -1</clus>
<clus scale="   89.051">  5  6 -1 -1</clus>
<clus scale="   91.149">  7  8 -1 -1</clus>
<clus scale="  230.110">  1  5  2 -1</clus>
<clus scale="   41.319">  1  5  2 -1</clus>
</clustering>
</event>
<event>
 9    1  0.1464797E-005  0.9625500E+02  0.7546771E-02  0.1289892E+00
          1   -1    0    0  502    0 -0.00000000000E+00  0.00000000000E+00  0.50857006929E+03  0.50857006929E+03  0.00000000000E+00 0. -1.
         21   -1    0    0  501  502  0.00000000000E+00 -0.00000000000E+00 -0.24451282096E+02  0.24451282096E+02  0.00000000000E+00 0. -1.
         23    2    1    2    0    0  0.16595089121E+02 -0.15012657384E+02  0.21714528468E+03  0.23717510751E+03  0.92731764241E+02 0.  0.
         23    2    1    2    0    0 -0.20058339881E+01 -0.37491664406E+01  0.16081512655E+03  0.18705997091E+03  0.95456001227E+02 0.  0.
        -11    1    3    3    0    0  0.25343034023E+02  0.18904182622E+02  0.21066983008E+02  0.37992831787E+02  0.00000000000E+00 0. -1.
         11    1    3    3    0    0 -0.87479449022E+01 -0.33916840006E+02  0.19607830167E+03  0.19918227572E+03  0.00000000000E+00 0.  1.
        -13    1    4    4    0    0 -0.44783746608E+00 -0.38256325741E+02  0.14332216161E+03  0.14834078679E+03  0.00000000000E+00 0.  1.
         13    1    4    4    0    0 -0.15579965220E+01  0.34507159300E+02  0.17492964935E+02  0.38719184113E+02  0.00000000000E+00 0. -1.
          1    1    1    2  501    0 -0.14589255133E+02  0.18761823824E+02  0.10615837596E+03  0.10878627297E+03  0.00000000000E+00 0. -1.
<scales pt_clust_5="13000.00000" pt_clust_6="13000.00000" pt_clust_7="13000.00000" pt_clust_8="13000.00000" pt_clust_9="23.76664"></scales>
<clustering>
<clus scale="   23.767">  2  9  1 -1</clus>
<clus scale="   92.732">  5  6 -1 -1</clus>
<clus scale="   93.554">  1  5  2 -1</clus>
<clus scale="   95.456">  7  8 -1 -1</clus>
<clus scale="   23.767">  2  5  1 -1</clus>
</clustering>
</event>
<event>
 9    1  0.1464797E-005  0.9547648E+02  0.7546771E-02  0.1293229E+00
          3   -1    0    0  502    0 -0.00000000000E+00  0.00000000000E+00  0.45362537650E+03  0.45362537650E+03  0.00000000000E+00 0. -1.
         21   -1    0    0  501  502  0.00000000000E+00 -0.00000000000E+00 -0.63768490333E+02  0.63768490333E+02  0.00000000000E+00 0.  1.
         23    2    1    2    0    0  0.22259877446E+02  0.91283897405E+00  0.21216613065E+03  0.23134651678E+03  0.89500884976E+02 0.  0.
         23    2    1    2    0    0  0.27345404578E+02  0.23921818973E+02  0.20149058390E+03  0.22568282346E+03  0.94943440174E+02 0.  0.
        -13    1    4    4    0    0  0.12952105781E+02 -0.30741630730E+02  0.13176698826E+03  0.13592403798E+03  0.00000000000E+00 0. -1.
         13    1    4    4    0    0  0.14393298797E+02  0.54663449703E+02  0.69723595636E+02  0.89758785487E+02  0.00000000000E+00 0.  1.
        -13    1    3    3    0    0  0.54695799046E+02 -0.26157448015E+01  0.94278218694E+02  0.10902685483E+03  0.00000000000E+00 0. -1.
         13    1    3    3    0    0 -0.32435921600E+02  0.35285837755E+01  0.11788791196E+03  0.12231966195E+03  0.00000000000E+00 0.  1.
          3    1    1    2  501    0 -0.49605282024E+02 -0.24834657947E+02 -0.23799828379E+02  0.60364526594E+02  0.00000000000E+00 0. -1.
<scales pt_clust_5="13000.00000" pt_clust_6="13000.00000" pt_clust_7="13000.00000" pt_clust_8="13000.00000" pt_clust_9="55.47472"></scales>
<clustering>
<clus scale="   55.475">  2  9  1 -1</clus>
<clus scale="   89.501">  7  8 -1 -1</clus>
<clus scale="   90.066">  1  7  2 -1</clus>
<clus scale="   94.943">  5  6 -1 -1</clus>
<clus scale="   55.475">  2  5  1 -1</clus>
</clustering>
</event>
<event>
 9    1  0.1464797E-005  0.2543901E+03  0.7546771E-02  0.1110659E+00
         21   -1    0    0  501  502  0.00000000000E+00  0.00000000000E+00  0.19565075256E+03  0.19565075256E+03  0.00000000000E+00 0. -1.
          1   -1    0    0  502    0 -0.00000000000E+00 -0.00000000000E+00 -0.14671154771E+04  0.14671154771E+04  0.00000000000E+00 0. -1.
         23    2    1    2    0    0  0.12937330495E+03 -0.22229316098E+03 -0.86325204780E+03  0.90562271501E+03  0.93790737646E+02 0.  0.
         23    2    1    2    0    0 -0.11338886492E+03  0.18111086149E+03 -0.55609342274E+03  0.60280557652E+03  0.92067852364E+02 0.  0.
        -11    1    4    4    0    0 -0.90953999979E+02  0.18802051565E+03 -0.48959287392E+03  0.53228331424E+03  0.00000000000E+00 0.  1.
         11    1    4    4    0    0 -0.22434864941E+02 -0.69096541614E+01 -0.66500548812E+02  0.70522262286E+02  0.00000000000E+00 0. -1.
        -11    1    3    3    0    0  0.10279575963E+03 -0.10508234357E+03 -0.57109096483E+03  0.58970684009E+03  0.00000000000E+00 0. -1.
         11    1    3    3    0    0  0.26577545315E+02 -0.11721081740E+03 -0.29216108297E+03  0.31591587493E+03  0.00000000000E+00 0.  1.
          1    1    1    2  501    0 -0.15984440026E+02  0.41182299483E+02  0.14788074598E+03  0.15433793813E+03  0.00000000000E+00 0. -1.
<scales pt_clust_5="13000.00000" pt_clust_6="13000.00000" pt_clust_7="13000.00000" pt_clust_8="13000.00000" pt_clust_9="44.17561"></scales>
<clustering>
<clus scale="   44.176">  1  9  2 -1</clus>
<clus scale="   92.068">  5  6 -1 -1</clus>
<clus scale="   93.791">  7  8 -1 -1</clus>
<clus scale="  253.760">  1  5  2 -1</clus>
<clus scale="   44.176">  1  5  2 -1</clus>
</clustering>
</event>
<event>
 9    1  0.1464797E-005  0.1116736E+03  0.7546771E-02  0.1257805E+00
         21   -1    0    0  501  502  0.00000000000E+00  0.00000000000E+00  0.29739329350E+03  0.29739329350E+03  0.00000000000E+00 0. -1.
          1   -1    0    0  502    0 -0.00000000000E+00 -0.00000000000E+00 -0.10282504021E+03  0.10282504021E+03  0.00000000000E+00 0. -1.
         23    2    1    2    0    0  0.10611730468E+02 -0.47845580186E+02  0.11476009476E+02  0.10348058824E+03  0.90414185735E+02 0.  0.
         23    2    1    2    0    0  0.47025022694E+02  0.89961168967E+02  0.49337207085E+02  0.14512597818E+03  0.91230613602E+02 0.  0.
        -11    1    4    4    0    0  0.23334317877E+02  0.10475612775E+03  0.30990598654E+02  0.11170834300E+03  0.00000000000E+00 0.  1.
         11    1    4    4    0    0  0.23690704817E+02 -0.14794958779E+02  0.18346608431E+02  0.33417635178E+02  0.00000000000E+00 0. -1.
        -11    1    3    3    0    0  0.67749762396E+01  0.21719001991E+02  0.23580391451E+02  0.32766602075E+02  0.00000000000E+00 0.  1.
         11    1    3    3    0    0  0.38367542281E+01 -0.69564582176E+02 -0.12104381975E+02  0.70713986165E+02  0.00000000000E+00 0. -1.
          1    1    1    2  501    0 -0.57636753161E+02 -0.42115588781E+02  0.13375503673E+03  0.15161176730E+03  0.00000000000E+00 0. -1.
<scales pt_clust_5="13000.00000" pt_clust_6="13000.00000" pt_clust_7="13000.00000" pt_clust_8="13000.00000" pt_clust_9="71.38430"></scales>
<clustering>
<clus scale="   71.384">  1  9  2 -1</clus>
<clus scale="   90.414">  7  8 -1 -1</clus>
<clus scale="   91.231">  5  6 -1 -1</clus>
<clus scale="  111.008">  2  7  1 -1</clus>
<clus scale="   71.384">  1  5  2 -1</clus>
</clustering>
</event>
<event>
 9    1  0.1464797E-005  0.1221695E+03  0.7546771E-02  0.1240254E+00
         21   -1    0    0  501  502  0.00000000000E+00  0.00000000000E+00  0.47088151161E+03  0.47088151161E+03  0.00000000000E+00 0.  1.
         -1   -1    0    0    0  501 -0.00000000000E+00 -0.00000000000E+00 -0.87230487280E+02  0.87230487280E+02  0.00000000000E+00 0.  1.
         23    2    1    2    0    0  0.11331236489E+00  0.10863607630E+03  0.26857198081E+02  0.14408511038E+03  0.90760123568E+02 0.  0.
         23    2    1    2    0    0  0.10026019214E+02 -0.42024655925E+02  0.82633444537E+02  0.13170827016E+03  0.93017146292E+02 0.  0.
        -11    1    4    4    0    0  0.31812836530E+02 -0.61322206781E+02  0.39214110886E+02  0.79436868677E+02  0.00000000000E+00 0. -1.
         11    1    4    4    0    0 -0.21786817316E+02  0.19297550856E+02  0.43419333651E+02  0.52271401479E+02  0.00000000000E+00 0.  1.
        -11    1    3    3    0    0 -0.10631473739E+02  0.88262004690E+02 -0.20669209284E+02  0.91271166960E+02  0.00000000000E+00 0.  1.
         11    1    3    3    0    0  0.10744786104E+02  0.20374071613E+02  0.47526407365E+02  0.52813943420E+02  0.00000000000E+00 0. -1.
         -1    1    1    2    0  502 -0.10139331579E+02 -0.66611420378E+02  0.27416038171E+03  0.28231861835E+03  0.00000000000E+00 0.  1.
<scales pt_clust_5="13000.00000" pt_clust_6="13000.00000" pt_clust_7="13000.00000" pt_clust_8="13000.00000" pt_clust_9="67.37869"></scales>
<clustering>
<clus scale="   67.379">  1  9  2 -1</clus>
<clus scale="   90.760">  7  8 -1 -1</clus>
<clus scale="   93.017">  5  6 -1 -1</clus>
<clus scale="  120.460">  2  7  1 -1</clus>
<clus scale="   67.379">  1  5  2 -1</clus>
</clustering>
</event>
<event>
 9    1  0.1464797E-005  0.1116006E+03  0.7546771E-02  0.1259976E+00
          1   -1    0    0  502    0 -0.00000000000E+00  0.00000000000E+00  0.41202415093E+03  0.41202415093E+03  0.00000000000E+00 0. -1.
         21   -1    0    0  501  502  0.00000000000E+00 -0.00000000000E+00 -0.15106433984E+03  0.15106433984E+03  0.00000000000E+00 0. -1.
         23    2    1    2    0    0 -0.38586499827E+02  0.54293568753E+02  0.37330422321E+03  0.38862423459E+03  0.85064934388E+02 0.  0.
         23    2    1    2    0    0  0.24799061854E+02 -0.25667939504E+02 -0.65598190250E+02  0.11794231924E+03  0.91287630688E+02 0.  0.
        -11    1    4    4    0    0  0.34472729518E+02  0.13237299825E+02 -0.68424592120E+02  0.77752942027E+02  0.00000000000E+00 0.  1.
         11    1    4    4    0    0 -0.96736676639E+01 -0.38905239329E+02  0.28264018701E+01  0.40189377214E+02  0.00000000000E+00 0. -1.
        -13    1    3    3    0    0  0.18263038264E+02  0.24340218077E+02  0.46564596732E+02  0.55625951241E+02  0.00000000000E+00 0.  1.
         13    1    3    3    0    0 -0.56849538091E+02  0.29953350676E+02  0.32673962648E+03  0.33299828334E+03  0.00000000000E+00 0. -1.
          1    1    1    2  501    0  0.13787437973E+02 -0.28625629249E+02 -0.46746221877E+02  0.56521936941E+02  0.00000000000E+00 0. -1.
<scales pt_clust_5="13000.00000" pt_clust_6="13000.00000" pt_clust_7="13000.00000" pt_clust_8="13000.00000" pt_clust_9="31.77295"></scales>
<clustering>
<clus scale="   31.773">  2  9  1 -1</clus>
<clus scale="   85.065">  7  8 -1 -1</clus>
<clus scale="   91.288">  5  6 -1 -1</clus>
<clus scale="  106.571">  1  7  2 -1</clus>
<clus scale="   31.773">  2  5  1 -1</clus>
</clustering>
</event>
<event>
 9    1  0.1464797E-005  0.1037654E+03  0.7546771E-02  0.1273038E+00
          2   -1    0    0  502    0 -0.00000000000E+00  0.00000000000E+00  0.45495426354E+03  0.45495426354E+03  0.00000000000E+00 0. -1.
         21   -1    0    0  501  502  0.00000000000E+00 -0.00000000000E+00 -0.40219508805E+02  0.40219508805E+02  0.00000000000E+00 0.  1.
         23    2    1    2    0    0 -0.37688071626E+02 -0.21464206800E+02  0.26349441038E+03  0.28185698110E+03  0.90182872958E+02 0.  0.
         23    2    1    2    0    0  0.48477643117E+02  0.53339057409E+02  0.13094324523E+03  0.17401802298E+03  0.89112299510E+02 0.  0.
        -13    1    3    3    0    0 -0.21023508324E+02 -0.53660823701E+02  0.11050520767E+03  0.12463094649E+03  0.00000000000E+00 0. -1.
         13    1    3    3    0    0 -0.16664563303E+02  0.32196616901E+02  0.15298920272E+03  0.15722603461E+03  0.00000000000E+00 0.  1.
        -13    1    4    4    0    0  0.58700935066E+02  0.71067969347E+02  0.11826600141E+03  0.14994433345E+03  0.00000000000E+00 0.  1.
         13    1    4    4    0    0 -0.10223291949E+02 -0.17728911937E+02  0.12677243819E+02  0.24073689530E+02  0.00000000000E+00 0. -1.
          2    1    1    2  501    0 -0.10789571490E+02 -0.31874850610E+02  0.20297099127E+02  0.39298768267E+02  0.00000000000E+00 0. -1.
<scales pt_clust_5="13000.00000" pt_clust_6="13000.00000" pt_clust_7="13000.00000" pt_clust_8="13000.00000" pt_clust_9="33.65146"></scales>
<clustering>
<clus scale="   33.651">  2  9  1 -1</clus>
<clus scale="   89.112">  7  8 -1 -1</clus>
<clus scale="   90.183">  5  6 -1 -1</clus>
<clus scale="  102.836">  2  7  1 -1</clus>
<clus scale="   33.651">  2  5  1 -1</clus>
</clustering>
</event>
<event>
 9    1  0.1464797E-005  0.1166649E+03  0.7546771E-02  0.1249327E+00
         21   -1    0    0  501  502  0.00000000000E+00  0.00000000000E+00  0.62744583292E+02  0.62744583292E+02  0.00000000000E+00 0.  1.
          2   -1    0    0  502    0 -0.00000000000E+00 -0.00000000000E+00 -0.48292252388E+03  0.48292252388E+03  0.00000000000E+00 0. -1.
         23    2    1    2    0    0  0.75426351178E+02  0.14152940233E+02 -0.34156918229E+03  0.36171612817E+03  0.90992367378E+02 0.  0.
         23    2    1    2    0    0 -0.46967813435E+02 -0.45033417855E+02 -0.20474718439E+02  0.11223585606E+03  0.89127375519E+02 0.  0.
        -11    1    4    4    0    0 -0.21404590352E+02 -0.55483634658E+02  0.20430489861E+02  0.62880800877E+02  0.00000000000E+00 0.  1.
         11    1    4    4    0    0 -0.25563223083E+02  0.10450216803E+02 -0.40905208300E+02  0.49355055179E+02  0.00000000000E+00 0. -1.
        -13    1    3    3    0    0  0.77011179340E+02 -0.23548419435E+02 -0.21264937514E+03  0.22738734914E+03  0.00000000000E+00 0. -1.
         13    1    3    3    0    0 -0.15848281619E+01  0.37701359668E+02 -0.12891980715E+03  0.13432877903E+03  0.00000000000E+00 0.  1.
          2    1    1    2  501    0 -0.28458537743E+02  0.30880477622E+02 -0.58134039860E+02  0.71715122946E+02  0.00000000000E+00 0. -1.
<scales pt_clust_5="13000.00000" pt_clust_6="13000.00000" pt_clust_7="13000.00000" pt_clust_8="13000.00000" pt_clust_9="41.99398"></scales>
<clustering>
<clus scale="   41.994">  1  9  2 -1</clus>
<clus scale="   89.127">  5  6 -1 -1</clus>
<clus scale="   90.992">  7  8 -1 -1</clus>
<clus scale="  115.216">  1  5  2 -1</clus>
<clus scale="   41.994">  1  5  2 -1</clus>
</clustering>
</event>
<event>
 9    1  0.1464797E-005  0.1816973E+03  0.7546771E-02  0.1166560E+00
         21   -1    0    0  501  502  0.00000000000E+00  0.00000000000E+00  0.98506830685E+02  0.98506830685E+02  0.00000000000E+00 0. -1.
          2   -1    0    0  502    0 -0.00000000000E+00 -0.00000000000E+00 -0.75434655921E+03  0.75434655921E+03  0.00000000000E+00 0. -1.
         23    2    1    2    0    0 -0.20940752747E+02  0.14304253408E+03 -0.38564921972E+03  0.42170562498E+03  0.90612536592E+02 0.  0.
         23    2    1    2    0    0 -0.58706535608E+02 -0.20014687024E+03 -0.13983674103E+03  0.26806281612E+03  0.93798359564E+02 0.  0.
        -11    1    3    3    0    0 -0.46806051915E+02  0.13441018727E+03 -0.30505655947E+03  0.33662502791E+03  0.00000000000E+00 0.  1.
         11    1    3    3    0    0  0.25865299169E+02  0.86323468186E+01 -0.80592660246E+02  0.85080597072E+02  0.00000000000E+00 0. -1.
        -13    1    4    4    0    0 -0.57386560734E+02 -0.73173868076E+02 -0.23659583619E+02  0.95955240707E+02  0.00000000000E+00 0. -1.
         13    1    4    4    0    0 -0.13199748740E+01 -0.12697300216E+03 -0.11617715741E+03  0.17210757541E+03  0.00000000000E+00 0.  1.
          2    1    1    2  501    0  0.79647288355E+02  0.57104336151E+02 -0.13035376778E+03  0.16308494879E+03  0.00000000000E+00 0. -1.
<scales pt_clust_5="13000.00000" pt_clust_6="13000.00000" pt_clust_7="13000.00000" pt_clust_8="13000.00000" pt_clust_9="98.00309"></scales>
<clustering>
<clus scale="   90.613">  5  6 -1 -1</clus>
<clus scale="   93.798">  7  8 -1 -1</clus>
<clus scale="   98.003">  1  9  2 -1</clus>
<clus scale="  180.073">  2  5  1 -1</clus>
<clus scale="   98.003">  1  5  2 -1</clus>
</clustering>
</event>
<event>
 9    1  0.1464797E-005  0.1014459E+03  0.7546771E-02  0.1278469E+00
          1   -1    0    0  502    0 -0.00000000000E+00  0.00000000000E+00  0.44130081656E+03  0.44130081656E+03  0.00000000000E+00 0. -1.
         21   -1    0    0  501  502  0.00000000000E+00 -0.00000000000E+00 -0.33171849904E+02  0.33171849904E+02  0.00000000000E+00 0.  1.
         23    2    1    2    0    0 -0.52938769292E+02  0.29281720419E+02  0.24973358493E+03  0.27122041481E+03  0.86796990299E+02 0.  0.
         23    2    1    2    0    0  0.25020185267E+02 -0.11547986073E+02  0.10681207772E+03  0.14197607422E+03  0.89381318249E+02 0.  0.
        -11    1    3    3    0    0  0.76317743208E+01 -0.19145720592E+02  0.19875527944E+02  0.28632834427E+02  0.00000000000E+00 0. -1.
         11    1    3    3    0    0 -0.60570543613E+02  0.48427441011E+02  0.22985805698E+03  0.24258758038E+03  0.00000000000E+00 0.  1.
        -13    1    4    4    0    0 -0.11106111582E+02  0.27184808700E+02  0.89489218306E+01  0.30699230291E+02  0.00000000000E+00 0.  1.
         13    1    4    4    0    0  0.36126296849E+02 -0.38732794773E+02  0.97863155888E+02  0.11127684393E+03  0.00000000000E+00 0. -1.
          1    1    1    2  501    0  0.27918584025E+02 -0.17733734346E+02  0.51583304006E+02  0.61276177427E+02  0.00000000000E+00 0. -1.
<scales pt_clust_5="13000.00000" pt_clust_6="13000.00000" pt_clust_7="13000.00000" pt_clust_8="13000.00000" pt_clust_9="33.07465"></scales>
<clustering>
<clus scale="   33.075">  2  9  1 -1</clus>
<clus scale="   86.797">  5  6 -1 -1</clus>
<clus scale="   89.381">  7  8 -1 -1</clus>
<clus scale="   99.176">  1  5  2 -1</clus>
<clus scale="   33.075">  2  5  1 -1</clus>
</clustering>
</event>
<event>
 9    1  0.1464797E-005  0.1523675E+03  0.7546771E-02  0.1220477E+00
         21   -1    0    0  501  502  0.00000000000E+00  0.00000000000E+00  0.59032960196E+02  0.59032960196E+02  0.00000000000E+00 0.  1.
          1   -1    0    0  502    0 -0.00000000000E+00 -0.00000000000E+00 -0.75173445304E+03  0.75173445304E+03  0.00000000000E+00 0. -1.
         23    2    1    2    0    0 -0.67340125029E+01 -0.17464499762E+02 -0.37402164349E+02  0.10060388998E+03  0.91497896725E+02 0.  0.
         23    2    1    2    0    0 -0.43348952781E+02  0.11740967658E+03 -0.32075947567E+03  0.35743947402E+03  0.95980063009E+02 0.  0.
        -11    1    4    4    0    0 -0.61978762435E+02  0.48049563923E+02 -0.11243534960E+03  0.13708331563E+03  0.00000000000E+00 0. -1.
         11    1    4    4    0    0  0.18629809654E+02  0.69360112653E+02 -0.20832412607E+03  0.22035615838E+03  0.00000000000E+00 0.  1.
        -13    1    3    3    0    0 -0.18573479728E+01  0.36784103810E+02 -0.48459524988E+01  0.37148395527E+02  0.00000000000E+00 0.  1.
         13    1    3    3    0    0 -0.48766645301E+01 -0.54248603572E+02 -0.32556211850E+02  0.63455494454E+02  0.00000000000E+00 0. -1.
          1    1    1    2  501    0  0.50082965284E+02 -0.99945176813E+02 -0.33453985283E+03  0.35272404924E+03  0.00000000000E+00 0. -1.
<scales pt_clust_5="13000.00000" pt_clust_6="13000.00000" pt_clust_7="13000.00000" pt_clust_8="13000.00000" pt_clust_9="118.33720"></scales>
<clustering>
<clus scale="   91.498">  7  8 -1 -1</clus>
<clus scale="   93.393">  2  7  1 -1</clus>
<clus scale="   95.980">  5  6 -1 -1</clus>
<clus scale="  118.337">  1  9  2 -1</clus>
<clus scale="  118.337">  1  5  2 -1</clus>
</clustering>
</event>
<event>
 9    1  0.1464797E-005  0.1096646E+03  0.7546771E-02  0.1262404E+00
          2   -1    0    0  502    0 -0.00000000000E+00  0.00000000000E+00  0.53925274644E+03  0.53925274644E+03  0.00000000000E+00 0. -1.
         21   -1    0    0  501  502  0.00000000000E+00 -0.00000000000E+00 -0.33173855975E+02  0.33173855975E+02  0.00000000000E+00 0. -1.
         23    2    1    2    0    0 -0.64479906845E+01  0.55655918204E+02  0.30509990098E+03  0.32359183610E+03  0.92122575962E+02 0.  0.
         23    2    1    2    0    0 -0.21065932868E+02 -0.67905521308E+02  0.13753080600E+03  0.17860129315E+03  0.89043618308E+02 0.  0.
        -11    1    4    4    0    0  0.87804619198E+01  0.19591060077E+02  0.27551643030E+02  0.34928486656E+02  0.00000000000E+00 0.  1.
         11    1    4    4    0    0 -0.29846394788E+02 -0.87496581385E+02  0.10997916297E+03  0.14367280649E+03  0.00000000000E+00 0. -1.
        -11    1    3    3    0    0  0.32887348804E+02 -0.65239346829E+01  0.78965992770E+02  0.85789087006E+02  0.00000000000E+00 0.  1.
         11    1    3    3    0    0 -0.39335339489E+02  0.62179852887E+02  0.22613390821E+03  0.23780274910E+03  0.00000000000E+00 0. -1.
          2    1    1    2  501    0  0.27513923553E+02  0.12249603104E+02  0.63448183487E+02  0.70233473168E+02  0.00000000000E+00 0. -1.
<scales pt_clust_5="13000.00000" pt_clust_6="13000.00000" pt_clust_7="13000.00000" pt_clust_8="13000.00000" pt_clust_9="30.11760"></scales>
<clustering>
<clus scale="   30.118">  2  9  1 -1</clus>
<clus scale="   89.044">  5  6 -1 -1</clus>
<clus scale="   92.123">  7  8 -1 -1</clus>
<clus scale="  107.091">  2  5  1 -1</clus>
<clus scale="   30.118">  2  5  1 -1</clus>
</clustering>
</event>
<event>
 9    1  0.1464797E-005  0.9552677E+02  0.7546771E-02  0.1290489E+00
         21   -1    0    0  501  502  0.00000000000E+00  0.00000000000E+00  0.34436366721E+02  0.34436366721E+02  0.00000000000E+00 0. -1.
          1   -1    0    0  502    0 -0.00000000000E+00 -0.00000000000E+00 -0.65147263973E+03  0.65147263973E+03  0.00000000000E+00 0. -1.
         23    2    1    2    0    0 -0.22373761714E+02 -0.22421128126E+02 -0.46963439255E+03  0.47898530787E+03  0.88697070361E+02 0.  0.
         23    2    1    2    0    0  0.50763127945E+02 -0.29967834960E+01 -0.12747437813E+03  0.16392216727E+03  0.89637514314E+02 0.  0.
        -11    1    4    4    0    0  0.63972046024E+02  0.26913112253E+02 -0.75811482477E+02  0.10278190093E+03  0.00000000000E+00 0.  1.
         11    1    4    4    0    0 -0.13208918080E+02 -0.29909895749E+02 -0.51662895649E+02  0.61140266334E+02  0.00000000000E+00 0. -1.
        -11    1    3    3    0    0 -0.54351298189E+02  0.11971331529E+01 -0.27997990472E+03  0.28520912291E+03  0.00000000000E+00 0.  1.
         11    1    3    3    0    0  0.31977536475E+02 -0.23618261279E+02 -0.18965448783E+03  0.19377618496E+03  0.00000000000E+00 0. -1.
          1    1    1    2  501    0 -0.28389366231E+02  0.25417911622E+02 -0.19927502335E+02  0.43001531316E+02  0.00000000000E+00 0. -1.
<scales pt_clust_5="13000.00000" pt_clust_6="13000.00000" pt_clust_7="13000.00000" pt_clust_8="13000.00000" pt_clust_9="38.10546"></scales>
<clustering>
<clus scale="   38.105">  1  9  2 -1</clus>
<clus scale="   88.697">  7  8 -1 -1</clus>
<clus scale="   89.638">  5  6 -1 -1</clus>
<clus scale="   94.645">  2  7  1 -1</clus>
<clus scale="   38.105">  1  5  2 -1</clus>
</clustering>
</event>
<event>
 9    1  0.1464797E-005  0.8900718E+02  0.7546771E-02  0.1306137E+00
         21   -1    0    0  501  502  0.00000000000E+00  0.00000000000E+00  0.11703813340E+03  0.11703813340E+03  0.00000000000E+00 0.  1.
          1   -1    0    0  502    0 -0.00000000000E+00 -0.00000000000E+00 -0.37374383463E+03  0.37374383463E+03  0.00000000000E+00 0. -1.
         23    2    1    2    0    0  0.11247599716E+02 -0.15141631753E+02 -0.16700295884E+03  0.18731442261E+03  0.82709897520E+02 0.  0.
         23    2    1    2    0    0 -0.39939595678E+02  0.29536347989E+02 -0.18219309801E+03  0.20556502058E+03  0.81210132155E+02 0.  0.
        -13    1    3    3    0    0  0.40659767700E+02  0.13804770158E+02 -0.96498854789E+02  0.10562110284E+03  0.00000000000E+00 0. -1.
         13    1    3    3    0    0 -0.29412167984E+02 -0.28946401910E+02 -0.70504104047E+02  0.81693319779E+02  0.00000000000E+00 0.  1.
        -13    1    4    4    0    0 -0.23799949181E+02 -0.21591997078E+02 -0.29091807966E+02  0.43347263000E+02  0.00000000000E+00 0.  1.
         13    1    4    4    0    0 -0.16139646497E+02  0.51128345067E+02 -0.15310129005E+03  0.16221775758E+03  0.00000000000E+00 0. -1.
          1    1    1    2  501    0  0.28691995962E+02 -0.14394716236E+02  0.92490355620E+02  0.97902524842E+02  0.00000000000E+00 0. -1.
<scales pt_clust_5="13000.00000" pt_clust_6="13000.00000" pt_clust_7="13000.00000" pt_clust_8="13000.00000" pt_clust_9="32.10044"></scales>
<clustering>
<clus scale="   32.100">  1  9  2 -1</clus>
<clus scale="   81.210">  7  8 -1 -1</clus>
<clus scale="   82.710">  5  6 -1 -1</clus>
<clus scale="   87.615">  1  7  2 -1</clus>
<clus scale="   32.100">  1  5  2 -1</clus>
</clustering>
</event>
<event>
 9    1  0.1464797E-005  0.9719533E+02  0.7546771E-02  0.1287415E+00
         -1   -1    0    0    0  501 -0.00000000000E+00  0.00000000000E+00  0.72119342243E+02  0.72119342243E+02  0.00000000000E+00 0.  1.
         21   -1    0    0  501  502  0.00000000000E+00 -0.00000000000E+00 -0.17528180025E+03  0.17528180025E+03  0.00000000000E+00 0. -1.
         23    2    1    2    0    0 -0.97139322687E+01  0.17959663933E+02 -0.46302170492E+02  0.10196808092E+03  0.88525072866E+02 0.  0.
         23    2    1    2    0    0  0.17775659254E+02 -0.46974669176E+02 -0.41904268981E+02  0.11180949154E+03  0.90679661631E+02 0.  0.
        -11    1    3    3    0    0 -0.66799475447E+01  0.41518668914E+02  0.79011450566E+01  0.42788429053E+02  0.00000000000E+00 0.  1.
         11    1    3    3    0    0 -0.30339847240E+01 -0.23559004980E+02 -0.54203315548E+02  0.59179651870E+02  0.00000000000E+00 0. -1.
        -13    1    4    4    0    0 -0.20219078036E+02  0.17782037524E+02 -0.20182238257E+02  0.33650181518E+02  0.00000000000E+00 0.  1.
         13    1    4    4    0    0  0.37994737290E+02 -0.64756706700E+02 -0.21722030724E+02  0.78159310022E+02  0.00000000000E+00 0. -1.
         -1    1    1    2    0  502 -0.80617269855E+01  0.29015005243E+02 -0.14956018536E+02  0.33623570032E+02  0.00000000000E+00 0.  1.
<scales pt_clust_5="13000.00000" pt_clust_6="13000.00000" pt_clust_7="13000.00000" pt_clust_8="13000.00000" pt_clust_9="30.11415"></scales>
<clustering>
<clus scale="   30.114">  2  9  1 -1</clus>
<clus scale="   88.525">  5  6 -1 -1</clus>
<clus scale="   90.680">  7  8 -1 -1</clus>
<clus scale="   95.188">  1  5  2 -1</clus>
<clus scale="   30.114">  2  5  1 -1</clus>
</clustering>
</event>
<event>
 9    1  0.1464797E-005  0.1036287E+03  0.7546771E-02  0.1275938E+00
          1   -1    0    0  502    0 -0.00000000000E+00  0.00000000000E+00  0.69781230696E+03  0.69781230696E+03  0.00000000000E+00 0. -1.
         21   -1    0    0  501  502  0.00000000000E+00 -0.00000000000E+00 -0.30294871937E+02  0.30294871937E+02  0.00000000000E+00 0. -1.
         23    2    1    2    0    0 -0.13378642507E+02 -0.20703869681E+02  0.39874933609E+03  0.41166802138E+03  0.99307041554E+02 0.  0.
         23    2    1    2    0    0 -0.20303333399E+02  0.55000929099E+02  0.13401218625E+03  0.17336603009E+03  0.93054751514E+02 0.  0.
        -11    1    3    3    0    0 -0.46787080377E+00  0.39500479760E+02  0.18814355893E+03  0.19224595072E+03  0.00000000000E+00 0. -1.
         11    1    3    3    0    0 -0.12910771704E+02 -0.60204349441E+02  0.21060577716E+03  0.21942207065E+03  0.00000000000E+00 0.  1.
        -11    1    4    4    0    0  0.36207715399E+02  0.12191646121E+02  0.36779124662E+02  0.53031489706E+02  0.00000000000E+00 0.  1.
         11    1    4    4    0    0 -0.56511048798E+02  0.42809282978E+02  0.97233061585E+02  0.12033454039E+03  0.00000000000E+00 0. -1.
          1    1    1    2  501    0  0.33681975906E+02 -0.34297059418E+02  0.13475591269E+03  0.14307312742E+03  0.00000000000E+00 0. -1.
<scales pt_clust_5="13000.00000" pt_clust_6="13000.00000" pt_clust_7="13000.00000" pt_clust_8="13000.00000" pt_clust_9="48.07043"></scales>
<clustering>
<clus scale="   48.070">  2  9  1 -1</clus>
<clus scale="   93.055">  7  8 -1 -1</clus>
<clus scale="   97.654">  2  7  1 -1</clus>
<clus scale="   99.307">  5  6 -1 -1</clus>
<clus scale="   48.070">  2  5  1 -1</clus>
</clustering>
</event>
<event>
 9    1  0.1464797E-005  0.1159466E+03  0.7546771E-02  0.1251827E+00
         21   -1    0    0  501  502  0.00000000000E+00  0.00000000000E+00  0.66133169140E+02  0.66133169140E+02  0.00000000000E+00 0.  1.
         -4   -1    0    0    0  501 -0.00000000000E+00 -0.00000000000E+00 -0.42240906831E+03  0.42240906831E+03  0.00000000000E+00 0.  1.
         23    2    1    2    0    0 -0.78254365624E+02 -0.18538705249E+02 -0.20226237977E+03  0.23456777091E+03  0.87433057507E+02 0.  0.
         23    2    1    2    0    0  0.59707965607E+02 -0.27595912851E+02 -0.16746446408E+03  0.20246427481E+03  0.92848587931E+02 0.  0.
        -11    1    3    3    0    0 -0.51070871590E+02 -0.51334533852E+02 -0.15413396583E+03  0.17029605901E+03  0.00000000000E+00 0.  1.
         11    1    3    3    0    0 -0.27183494034E+02  0.32795828604E+02 -0.48128413939E+02  0.64271711896E+02  0.00000000000E+00 0. -1.
        -11    1    4    4    0    0  0.90421905100E+01  0.33330994954E+02 -0.49588902328E+02  0.60429923613E+02  0.00000000000E+00 0.  1.
         11    1    4    4    0    0  0.50665775096E+02 -0.60926907805E+02 -0.11787556175E+03  0.14203435119E+03  0.00000000000E+00 0. -1.
         -4    1    1    2    0  502  0.18546400017E+02  0.46134618099E+02  0.13450944675E+02  0.51510191743E+02  0.00000000000E+00 0.  1.
<scales pt_clust_5="13000.00000" pt_clust_6="13000.00000" pt_clust_7="13000.00000" pt_clust_8="13000.00000" pt_clust_9="49.72295"></scales>
<clustering>
<clus scale="   49.723">  1  9  2 -1</clus>
<clus scale="   87.433">  5  6 -1 -1</clus>
<clus scale="   92.849">  7  8 -1 -1</clus>
<clus scale="  111.657">  2  5  1 -1</clus>
<clus scale="   49.723">  1  5  2 -1</clus>
</clustering>
</event>
<event>
 9    1  0.1464797E-005  0.1079566E+03  0.7546771E-02  0.1264641E+00
          2   -1    0    0  502    0 -0.00000000000E+00  0.00000000000E+00  0.50432389825E+03  0.50432389825E+03  0.00000000000E+00 0. -1.
         21   -1    0    0  501  502  0.00000000000E+00 -0.00000000000E+00 -0.77729919277E+02  0.77729919277E+02  0.00000000000E+00 0. -1.
         23    2    1    2    0    0 -0.59885071225E+01  0.50035841786E+02  0.31253588931E+03  0.32951616502E+03  0.91448199669E+02 0.  0.
         23    2    1    2    0    0 -0.58279324493E+02 -0.80761017435E+02  0.12076205875E+03  0.18098813259E+03  0.90853770988E+02 0.  0.
        -13    1    4    4    0    0  0.17192906210E+02 -0.23427200991E+02  0.21208558556E+01  0.29136365590E+02  0.00000000000E+00 0.  1.
         13    1    4    4    0    0 -0.75472230703E+02 -0.57333816445E+02  0.11864120290E+03  0.15185176700E+03  0.00000000000E+00 0. -1.
        -13    1    3    3    0    0  0.24630484740E+02 -0.11488963178E+02  0.15894021915E+03  0.16124717150E+03  0.00000000000E+00 0.  1.
         13    1    3    3    0    0 -0.30618991863E+02  0.61524804964E+02  0.15359567016E+03  0.16826899352E+03  0.00000000000E+00 0. -1.
          2    1    1    2  501    0  0.64267831615E+02  0.30725175650E+02 -0.67039690890E+01  0.71549519920E+02  0.00000000000E+00 0. -1.
<scales pt_clust_5="13000.00000" pt_clust_6="13000.00000" pt_clust_7="13000.00000" pt_clust_8="13000.00000" pt_clust_9="71.23476"></scales>
<clustering>
<clus scale="   71.235">  2  9  1 -1</clus>
<clus scale="   90.854">  5  6 -1 -1</clus>
<clus scale="   91.448">  7  8 -1 -1</clus>
<clus scale="  107.453">  2  5  1 -1</clus>
<clus scale="   71.235">  2  5  1 -1</clus>
</clustering>
</event>
<event>
 9    1  0.1464797E-005  0.1165997E+03  0.7546771E-02  0.1249808E+00
          3   -1    0    0  502    0 -0.00000000000E+00  0.00000000000E+00  0.42666773295E+02  0.42666773295E+02  0.00000000000E+00 0. -1.
         21   -1    0    0  501  502  0.00000000000E+00 -0.00000000000E+00 -0.54622602445E+03  0.54622602445E+03  0.00000000000E+00 0.  1.
         23    2    1    2    0    0  0.74083832761E+02 -0.95685622267E+01 -0.75203825308E+02  0.13901739593E+03  0.89945813532E+02 0.  0.
         23    2    1    2    0    0 -0.59454838708E+02 -0.67096922228E+01 -0.30042376346E+03  0.32008518925E+03  0.92844993999E+02 0.  0.
        -13    1    4    4    0    0 -0.73416011232E+02 -0.30686178371E+02 -0.25213905940E+03  0.26439678047E+03  0.00000000000E+00 0.  1.
         13    1    4    4    0    0  0.13961172524E+02  0.23976486148E+02 -0.48284704059E+02  0.55688408779E+02  0.00000000000E+00 0. -1.
        -13    1    3    3    0    0  0.33829576639E+02 -0.45915522222E+02 -0.59801429304E+02  0.82637076323E+02  0.00000000000E+00 0.  1.
         13    1    3    3    0    0  0.40254256122E+02  0.36346959995E+02 -0.15402396004E+02  0.56380319611E+02  0.00000000000E+00 0. -1.
          3    1    1    2  501    0 -0.14628994052E+02  0.16278254449E+02 -0.12793166239E+03  0.12979021256E+03  0.00000000000E+00 0. -1.
<scales pt_clust_5="13000.00000" pt_clust_6="13000.00000" pt_clust_7="13000.00000" pt_clust_8="13000.00000" pt_clust_9="21.88582"></scales>
<clustering>
<clus scale="   21.886">  2  9  1 -1</clus>
<clus scale="   89.946">  7  8 -1 -1</clus>
<clus scale="   92.845">  5  6 -1 -1</clus>
<clus scale="  114.305">  1  7  2 -1</clus>
<clus scale="   21.886">  2  5  1 -1</clus>
</clustering>
</event>
<event>
 9    1  0.1464797E-005  0.1028167E+03  0.7546771E-02  0.1275631E+00
         21   -1    0    0  501  502  0.00000000000E+00  0.00000000000E+00  0.12647439674E+03  0.12647439674E+03  0.00000000000E+00 0. -1.
          2   -1    0    0  502    0 -0.00000000000E+00 -0.00000000000E+00 -0.40575508390E+03  0.40575508390E+03  0.00000000000E+00 0. -1.
         23    2    1    2    0    0 -0.23356633348E+02 -0.23778161356E+02 -0.29832751885E+03  0.31507495708E+03  0.95718267841E+02 0.  0.
         23    2    1    2    0    0  0.27948187336E+02  0.45420405395E+02 -0.68107710454E+02  0.12723576406E+03  0.93306832712E+02 0.  0.
        -11    1    4    4    0    0 -0.13045760230E+02 -0.21528199964E+02 -0.32003236432E+01  0.25375132021E+02  0.00000000000E+00 0.  1.
         11    1    4    4    0    0  0.40993947566E+02  0.66948605359E+02 -0.64907386810E+02  0.10186063204E+03  0.00000000000E+00 0. -1.
        -11    1    3    3    0    0 -0.53984785924E+02 -0.39412232294E+02 -0.20433617884E+03  0.21499059316E+03  0.00000000000E+00 0.  1.
         11    1    3    3    0    0  0.30628152576E+02  0.15634070938E+02 -0.93991340011E+02  0.10008436392E+03  0.00000000000E+00 0. -1.
          2    1    1    2  501    0 -0.45915539881E+01 -0.21642244039E+02  0.87154542135E+02  0.89918759499E+02  0.00000000000E+00 0. -1.
<scales pt_clust_5="13000.00000" pt_clust_6="13000.00000" pt_clust_7="13000.00000" pt_clust_8="13000.00000" pt_clust_9="22.12395"></scales>
<clustering>
<clus scale="   22.124">  1  9  2 -1</clus>
<clus scale="   93.307">  5  6 -1 -1</clus>
<clus scale="   95.718">  7  8 -1 -1</clus>
<clus scale="  100.576">  1  5  2 -1</clus>
<clus scale="   22.124">  1  5  2 -1</clus>
</clustering>
</event>
<event>
 9    1  0.1464797E-005  0.1093788E+03  0.7546771E-02  0.1263038E+00
          1   -1    0    0  502    0 -0.00000000000E+00  0.00000000000E+00  0.22677430800E+03  0.22677430800E+03  0.00000000000E+00 0. -1.
         21   -1    0    0  501  502  0.00000000000E+00 -0.00000000000E+00 -0.70212198708E+02  0.70212198708E+02  0.00000000000E+00 0.  1.
         23    2    1    2    0    0 -0.12952915864E+02 -0.46160169662E+02  0.66455496190E+02  0.12608793061E+03  0.95829504745E+02 0.  0.
         23    2    1    2    0    0 -0.61133631668E+01  0.60548051856E+02  0.44558505954E+02  0.11946741614E+03  0.92647521676E+02 0.  0.
        -13    1    3    3    0    0  0.34030562737E+02 -0.37299213506E+01  0.50139662322E+02  0.60712249598E+02  0.00000000000E+00 0.  1.
         13    1    3    3    0    0 -0.46983478601E+02 -0.42430248312E+02  0.16315833868E+02  0.65375681014E+02  0.00000000000E+00 0. -1.
        -13    1    4    4    0    0  0.41389402800E+02  0.44305939280E+02  0.25290420196E+02  0.65694020073E+02  0.00000000000E+00 0.  1.
         13    1    4    4    0    0 -0.47502765967E+02  0.16242112576E+02  0.19268085758E+02  0.53773396064E+02  0.00000000000E+00 0. -1.
          1    1    1    2  501    0  0.19066279031E+02 -0.14387882194E+02  0.45548107152E+02  0.51431159964E+02  0.00000000000E+00 0. -1.
<scales pt_clust_5="13000.00000" pt_clust_6="13000.00000" pt_clust_7="13000.00000" pt_clust_8="13000.00000" pt_clust_9="23.88587"></scales>
<clustering>
<clus scale="   23.886">  2  9  1 -1</clus>
<clus scale="   92.648">  7  8 -1 -1</clus>
<clus scale="   95.830">  5  6 -1 -1</clus>
<clus scale="  106.602">  2  7  1 -1</clus>
<clus scale="   23.886">  2  5  1 -1</clus>
</clustering>
</event>
<event>
 9    1  0.1464797E-005  0.1107770E+03  0.7546771E-02  0.1259303E+00
          2   -1    0    0  502    0 -0.00000000000E+00  0.00000000000E+00  0.31515508118E+03  0.31515508118E+03  0.00000000000E+00 0.  1.
         21   -1    0    0  501  502  0.00000000000E+00 -0.00000000000E+00 -0.50708598519E+02  0.50708598519E+02  0.00000000000E+00 0. -1.
         23    2    1    2    0    0  0.60984913979E+02 -0.13714821442E+02  0.16606418601E+03  0.20002012565E+03  0.92322698899E+02 0.  0.
         23    2    1    2    0    0 -0.51938577737E+02  0.32824138316E+02  0.91835148875E+02  0.14371060723E+03  0.91891262626E+02 0.  0.
        -13    1    3    3    0    0 -0.18819317566E+02  0.17538566770E+02  0.41210718182E+02  0.48580771207E+02  0.00000000000E+00 0. -1.
         13    1    3    3    0    0  0.79804231545E+02 -0.31253388212E+02  0.12485346783E+03  0.15143935445E+03  0.00000000000E+00 0.  1.
        -13    1    4    4    0    0 -0.21852241802E+02  0.21470990701E+02 -0.13572243679E+02  0.33507159115E+02  0.00000000000E+00 0. -1.
         13    1    4    4    0    0 -0.30086335935E+02  0.11353147615E+02  0.10540739255E+03  0.11020344811E+03  0.00000000000E+00 0.  1.
          2    1    1    2  501    0 -0.90463362422E+01 -0.19109316874E+02  0.65471477771E+01  0.22132946817E+02  0.00000000000E+00 0.  1.
<scales pt_clust_5="13000.00000" pt_clust_6="13000.00000" pt_clust_7="13000.00000" pt_clust_8="13000.00000" pt_clust_9="21.14243"></scales>
<clustering>
<clus scale="   21.142">  2  9  1 -1</clus>
<clus scale="   91.891">  7  8 -1 -1</clus>
<clus scale="   92.323">  5  6 -1 -1</clus>
<clus scale="  110.418">  2  7  1 -1</clus>
<clus scale="   21.142">  2  5  1 -1</clus>
</clustering>
</event>
<event>
 9    1  0.1464797E-005  0.1758737E+03  0.7546771E-02  0.1195955E+00
         21   -1    0    0  501  502  0.00000000000E+00  0.00000000000E+00  0.14113042401E+03  0.14113042401E+03  0.00000000000E+00 0. -1.
          1   -1    0    0  502    0 -0.00000000000E+00 -0.00000000000E+00 -0.35622936490E+03  0.35622936490E+03  0.00000000000E+00 0. -1.
         23    2    1    2    0    0  0.89003973390E+01  0.48192314275E+02 -0.52431096811E+02  0.11529567292E+03  0.90235004596E+02 0.  0.
         23    2    1    2    0    0 -0.74481040561E+02  0.10523357551E+03 -0.14857552782E+03  0.21461586188E+03  0.85812294490E+02 0.  0.
        -11    1    3    3    0    0 -0.18143125386E+02  0.12115863964E+02  0.20249533525E+02  0.29765932983E+02  0.00000000000E+00 0. -1.
         11    1    3    3    0    0  0.27043522725E+02  0.36076450310E+02 -0.72680630336E+02  0.85529739942E+02  0.00000000000E+00 0.  1.
        -11    1    4    4    0    0 -0.71568493205E+02  0.31629550651E+02 -0.55560676083E+02  0.95965964908E+02  0.00000000000E+00 0.  1.
         11    1    4    4    0    0 -0.29125473567E+01  0.73604024862E+02 -0.93014851738E+02  0.11864989697E+03  0.00000000000E+00 0. -1.
          1    1    1    2  501    0  0.65580643222E+02 -0.15342588979E+03 -0.14092316259E+02  0.16744825410E+03  0.00000000000E+00 0. -1.
<scales pt_clust_5="13000.00000" pt_clust_6="13000.00000" pt_clust_7="13000.00000" pt_clust_8="13000.00000" pt_clust_9="153.51815"></scales>
<clustering>
<clus scale="   85.812">  7  8 -1 -1</clus>
<clus scale="   90.235">  5  6 -1 -1</clus>
<clus scale="  102.684">  2  5  1 -1</clus>
<clus scale="  153.518">  1  9  2 -1</clus>
<clus scale="  153.518">  1  5  2 -1</clus>
</clustering>
</event>
<event>
 9    1  0.1464797E-005  0.2374309E+03  0.7546771E-02  0.1121543E+00
         21   -1    0    0  501  502  0.00000000000E+00  0.00000000000E+00  0.26252394141E+03  0.26252394141E+03  0.00000000000E+00 0. -1.
          2   -1    0    0  502    0 -0.00000000000E+00 -0.00000000000E+00 -0.10422359694E+04  0.10422359694E+04  0.00000000000E+00 0. -1.
         23    2    1    2    0    0  0.20519515453E+03 -0.55701651208E+02 -0.68574941871E+03  0.72364052584E+03  0.90529663586E+02 0.  0.
         23    2    1    2    0    0 -0.23706953139E+03  0.28945054356E+02 -0.28674011690E+03  0.38390108251E+03  0.90113082442E+02 0.  0.
        -11    1    3    3    0    0  0.75480896544E+02  0.19594167181E+02 -0.29383751296E+03  0.30400950833E+03  0.00000000000E+00 0. -1.
         11    1    3    3    0    0  0.12971425798E+03 -0.75295818389E+02 -0.39191190575E+03  0.41963101751E+03  0.00000000000E+00 0.  1.
        -13    1    4    4    0    0 -0.14665378323E+03  0.27054641434E+02 -0.10980237422E+03  0.18519137977E+03  0.00000000000E+00 0.  1.
         13    1    4    4    0    0 -0.90415748166E+02  0.18904129215E+01 -0.17693774268E+03  0.19870970274E+03  0.00000000000E+00 0. -1.
          2    1    1    2  501    0  0.31874376865E+02  0.26756596852E+02  0.19277750762E+03  0.19721830245E+03  0.00000000000E+00 0. -1.
<scales pt_clust_5="13000.00000" pt_clust_6="13000.00000" pt_clust_7="13000.00000" pt_clust_8="13000.00000" pt_clust_9="41.61600"></scales>
<clustering>
<clus scale="   41.616">  1  9  2 -1</clus>
<clus scale="   90.113">  7  8 -1 -1</clus>
<clus scale="   90.530">  5  6 -1 -1</clus>
<clus scale="  237.272">  1  7  2 -1</clus>
<clus scale="   41.616">  1  5  2 -1</clus>
</clustering>
</event>
<event>
 9    1  0.1464797E-005  0.1064897E+03  0.7546771E-02  0.1267368E+00
          1   -1    0    0  502    0 -0.00000000000E+00  0.00000000000E+00  0.91490024473E+02  0.91490024473E+02  0.00000000000E+00 0. -1.
         21   -1    0    0  501  502  0.00000000000E+00 -0.00000000000E+00 -0.18584950656E+03  0.18584950656E+03  0.00000000000E+00 0. -1.
         23    2    1    2    0    0 -0.10251340013E+02  0.60023965698E+02 -0.20289097093E+02  0.10881842098E+03  0.87873971428E+02 0.  0.
         23    2    1    2    0    0 -0.30743940878E+02 -0.57901386933E+02 -0.48575827126E+02  0.12019833202E+03  0.88262492200E+02 0.  0.
        -11    1    3    3    0    0  0.22357804924E+02 -0.12402501079E+02 -0.13978626004E+02  0.29139242595E+02  0.00000000000E+00 0.  1.
         11    1    3    3    0    0 -0.32609144937E+02  0.72426466778E+02 -0.63104710893E+01  0.79679178389E+02  0.00000000000E+00 0. -1.
        -11    1    4    4    0    0  0.98938676526E+01 -0.64692148475E+02 -0.15228541702E+02  0.67192791085E+02  0.00000000000E+00 0.  1.
         11    1    4    4    0    0 -0.40637808530E+02  0.67907615413E+01 -0.33347285424E+02  0.53005540933E+02  0.00000000000E+00 0. -1.
          1    1    1    2  501    0  0.40995280891E+02 -0.21225787652E+01 -0.25494557870E+02  0.48322778034E+02  0.00000000000E+00 0. -1.
<scales pt_clust_5="13000.00000" pt_clust_6="13000.00000" pt_clust_7="13000.00000" pt_clust_8="13000.00000" pt_clust_9="41.05019"></scales>
<clustering>
<clus scale="   41.050">  2  9  1 -1</clus>
<clus scale="   87.874">  5  6 -1 -1</clus>
<clus scale="   88.262">  7  8 -1 -1</clus>
<clus scale="  106.168">  1  5  2 -1</clus>
<clus scale="   41.050">  2  5  1 -1</clus>
</clustering>
</event>
<event>
 9    1  0.1464797E-005  0.1728436E+03  0.7546771E-02  0.1175340E+00
         21   -1    0    0  501  502  0.00000000000E+00  0.00000000000E+00  0.21885540603E+03  0.21885540603E+03  0.00000000000E+00 0.  1.
         -1   -1    0    0    0  501 -0.00000000000E+00 -0.00000000000E+00 -0.55352392471E+03  0.55352392471E+03  0.00000000000E+00 0.  1.
         23    2    1    2    0    0  0.14804890080E+02 -0.14334883451E+03 -0.40672660715E+03  0.44135674407E+03  0.92742489967E+02 0.  0.
         23    2    1    2    0    0 -0.35615330801E+02  0.14883145732E+03 -0.67546385691E+02  0.18976911662E+03  0.89613330057E+02 0.  0.
        -11    1    4    4    0    0 -0.83010475079E+01  0.51096886668E+02  0.20245047562E+02  0.55584720631E+02  0.00000000000E+00 0. -1.
         11    1    4    4    0    0 -0.27314283293E+02  0.97734570656E+02 -0.87791433253E+02  0.13418439598E+03  0.00000000000E+00 0.  1.
        -11    1    3    3    0    0 -0.23182580609E+02 -0.12846421404E+03 -0.31367662462E+03  0.33975507526E+03  0.00000000000E+00 0.  1.
         11    1    3    3    0    0  0.37987470688E+02 -0.14884620475E+02 -0.93049982529E+02  0.10160166881E+03  0.00000000000E+00 0. -1.
         -1    1    1    2    0  502  0.20810440721E+02 -0.54826228123E+01  0.13960447416E+03  0.14125347005E+03  0.00000000000E+00 0.  1.
<scales pt_clust_5="13000.00000" pt_clust_6="13000.00000" pt_clust_7="13000.00000" pt_clust_8="13000.00000" pt_clust_9="21.52054"></scales>
<clustering>
<clus scale="   21.521">  1  9  2 -1</clus>
<clus scale="   89.613">  5  6 -1 -1</clus>
<clus scale="   92.742">  7  8 -1 -1</clus>
<clus scale="  171.185">  1  5  2 -1</clus>
<clus scale="   21.521">  1  5  2 -1</clus>
</clustering>
</event>
<event>
 9    1  0.1464797E-005  0.2581663E+03  0.7546771E-02  0.1108346E+00
         21   -1    0    0  501  502  0.00000000000E+00  0.00000000000E+00  0.11512565488E+03  0.11512565488E+03  0.00000000000E+00 0.  1.
          2   -1    0    0  502    0 -0.00000000000E+00 -0.00000000000E+00 -0.14426516126E+04  0.14426516126E+04  0.00000000000E+00 0. -1.
         23    2    1    2    0    0 -0.23574496654E+03  0.36474402865E+02 -0.12041118237E+04  0.12309007467E+04  0.91243043661E+02 0.  0.
         23    2    1    2    0    0  0.26041205302E+03 -0.33001741786E+02 -0.10812825497E+03  0.29765011780E+03  0.89444512307E+02 0.  0.
        -11    1    4    4    0    0  0.16035968049E+03 -0.61872604974E+02 -0.53258757484E+02  0.17994427365E+03  0.00000000000E+00 0.  1.
         11    1    4    4    0    0  0.10005237254E+03  0.28870863188E+02 -0.54869497488E+02  0.11770584414E+03  0.00000000000E+00 0. -1.
        -11    1    3    3    0    0 -0.19382936413E+03  0.56739399178E+02 -0.10711435081E+04  0.10900172461E+04  0.00000000000E+00 0. -1.
         11    1    3    3    0    0 -0.41915602410E+02 -0.20264996314E+02 -0.13296831561E+03  0.14088350066E+03  0.00000000000E+00 0.  1.
          2    1    1    2  501    0 -0.24667086478E+02 -0.34726610784E+01 -0.15285879028E+02  0.29226402925E+02  0.00000000000E+00 0. -1.
<scales pt_clust_5="13000.00000" pt_clust_6="13000.00000" pt_clust_7="13000.00000" pt_clust_8="13000.00000" pt_clust_9="24.91033"></scales>
<clustering>
<clus scale="   24.910">  1  9  2 -1</clus>
<clus scale="   89.445">  5  6 -1 -1</clus>
<clus scale="   91.243">  7  8 -1 -1</clus>
<clus scale="  257.536">  1  5  2 -1</clus>
<clus scale="   24.910">  1  5  2 -1</clus>
</clustering>
</event>
<event>
 9    1  0.1464797E-005  0.1866846E+03  0.7546771E-02  0.1180797E+00
          1   -1    0    0  502    0 -0.00000000000E+00  0.00000000000E+00  0.13703603719E+04  0.13703603719E+04  0.00000000000E+00 0. -1.
         21   -1    0    0  501  502  0.00000000000E+00 -0.00000000000E+00 -0.46845930458E+02  0.46845930458E+02  0.00000000000E+00 0. -1.
         23    2    1    2    0    0 -0.24704300543E+02  0.72740894495E+02  0.21817332686E+03  0.24905930950E+03  0.92354744853E+02 0.  0.
         23    2    1    2    0    0 -0.14530494554E+03 -0.49511599128E+02  0.78080796946E+03  0.80104413779E+03  0.91900489013E+02 0.  0.
        -13    1    3    3    0    0 -0.34616408493E+02  0.91274654247E+02  0.16270716818E+03  0.18974451460E+03  0.00000000000E+00 0. -1.
         13    1    3    3    0    0  0.99121079501E+01 -0.18533759752E+02  0.55466158686E+02  0.59314794899E+02  0.00000000000E+00 0.  1.
        -13    1    4    4    0    0 -0.11218965258E+03  0.72934015291E+01  0.52686193875E+03  0.53872369017E+03  0.00000000000E+00 0. -1.
         13    1    4    4    0    0 -0.33115292954E+02 -0.56805000657E+02  0.25394603071E+03  0.26232044762E+03  0.00000000000E+00 0.  1.
          1    1    1    2  501    0  0.17000924608E+03 -0.23229295367E+02  0.32453314514E+03  0.36710285509E+03  0.00000000000E+00 0. -1.
<scales pt_clust_5="13000.00000" pt_clust_6="13000.00000" pt_clust_7="13000.00000" pt_clust_8="13000.00000" pt_clust_9="162.49748"></scales>
<clustering>
<clus scale="   91.900">  7  8 -1 -1</clus>
<clus scale="   92.355">  5  6 -1 -1</clus>
<clus scale="  120.129">  1  5  2 -1</clus>
<clus scale="  162.497">  2  9  1 -1</clus>
<clus scale="  162.497">  2  5  1 -1</clus>
</clustering>
</event>
<event>
 9    1  0.1464797E-005  0.9450951E+02  0.7546771E-02  0.1292979E+00
         21   -1    0    0  501  502  0.00000000000E+00  0.00000000000E+00  0.19193638822E+03  0.19193638822E+03  0.00000000000E+00 0.  1.
         -3   -1    0    0    0  501 -0.00000000000E+00 -0.00000000000E+00 -0.75027387458E+02  0.75027387458E+02  0.00000000000E+00 0.  1.
         23    2    1    2    0    0 -0.10157881467E+02 -0.39532897590E+01  0.38879813570E+02  0.10054727780E+03  0.92083136973E+02 0.  0.
         23    2    1    2    0    0 -0.27990425040E+02  0.26546108962E+02  0.65447740956E+02  0.12032938950E+03  0.93314497188E+02 0.  0.
        -11    1    4    4    0    0 -0.49422415619E+02 -0.15805613547E+02  0.44857799707E+02  0.68590194487E+02  0.00000000000E+00 0.  1.
         11    1    4    4    0    0  0.21431990579E+02  0.42351722508E+02  0.20589941249E+02  0.51739195010E+02  0.00000000000E+00 0. -1.
        -11    1    3    3    0    0 -0.32413696052E+02  0.32451121670E+02  0.51452554900E+01  0.46154053380E+02  0.00000000000E+00 0.  1.
         11    1    3    3    0    0  0.22255814585E+02 -0.36404411429E+02  0.33734558080E+02  0.54393224424E+02  0.00000000000E+00 0. -1.
         -3    1    1    2    0  502  0.38148306506E+02 -0.22592819203E+02  0.12581446232E+02  0.46087108372E+02  0.00000000000E+00 0.  1.
<scales pt_clust_5="13000.00000" pt_clust_6="13000.00000" pt_clust_7="13000.00000" pt_clust_8="13000.00000" pt_clust_9="44.33656"></scales>
<clustering>
<clus scale="   44.337">  1  9  2 -1</clus>
<clus scale="   92.083">  7  8 -1 -1</clus>
<clus scale="   93.294">  2  7  1 -1</clus>
<clus scale="   93.314">  5  6 -1 -1</clus>
<clus scale="   44.337">  1  5  2 -1</clus>
</clustering>
</event>
<event>
 9    1  0.1464797E-005  0.1106264E+03  0.7546771E-02  0.1259656E+00
         21   -1    0    0  501  502  0.00000000000E+00  0.00000000000E+00  0.43927663216E+02  0.43927663216E+02  0.00000000000E+00 0. -1.
         -3   -1    0    0    0  501 -0.00000000000E+00 -0.00000000000E+00 -0.48860177920E+03  0.48860177920E+03  0.00000000000E+00 0.  1.
         23    2    1    2    0    0  0.17259349366E+02 -0.47523116472E+02 -0.21948362467E+03  0.24269717717E+03  0.90402027450E+02 0.  0.
         23    2    1    2    0    0 -0.52744736657E+02  0.62915208542E+02 -0.21855228003E+03  0.25058694631E+03  0.91040583479E+02 0.  0.
        -11    1    4    4    0    0 -0.31660974338E+02  0.81000019465E+02 -0.19728367259E+03  0.21560210556E+03  0.00000000000E+00 0.  1.
         11    1    4    4    0    0 -0.21083762319E+02 -0.18084810924E+02 -0.21268607441E+02  0.34984840748E+02  0.00000000000E+00 0. -1.
        -11    1    3    3    0    0  0.34823823889E+01  0.27284214785E+02 -0.56863680728E+02  0.63166712353E+02  0.00000000000E+00 0.  1.
         11    1    3    3    0    0  0.13776966978E+02 -0.74807331257E+02 -0.16261994395E+03  0.17953046482E+03  0.00000000000E+00 0. -1.
         -3    1    1    2    0  502  0.35485387290E+02 -0.15392092069E+02 -0.66382112718E+01  0.39245318935E+02  0.00000000000E+00 0.  1.
<scales pt_clust_5="13000.00000" pt_clust_6="13000.00000" pt_clust_7="13000.00000" pt_clust_8="13000.00000" pt_clust_9="38.67983"></scales>
<clustering>
<clus scale="   38.680">  1  9  2 -1</clus>
<clus scale="   90.402">  7  8 -1 -1</clus>
<clus scale="   91.041">  5  6 -1 -1</clus>
<clus scale="  110.102">  2  7  1 -1</clus>
<clus scale="   38.680">  1  5  2 -1</clus>
</clustering>
</event>
<event>
 9    1  0.1464797E-005  0.1300669E+03  0.7546771E-02  0.1241445E+00
         21   -1    0    0  501  502  0.00000000000E+00  0.00000000000E+00  0.26632446483E+02  0.26632446483E+02  0.00000000000E+00 0. -1.
          1   -1    0    0  502    0 -0.00000000000E+00 -0.00000000000E+00 -0.10635158915E+04  0.10635158915E+04  0.00000000000E+00 0. -1.
         23    2    1    2    0    0  0.13717385661E+02 -0.24962382589E+02 -0.29880490822E+03  0.31429144437E+03  0.93185039629E+02 0.  0.
         23    2    1    2    0    0  0.82856173117E+02 -0.41686499837E+02 -0.34665795066E+03  0.36722674172E+03  0.77979711408E+02 0.  0.
        -11    1    3    3    0    0  0.12132497076E+02  0.35071176466E+02 -0.12581060292E+03  0.13116970958E+03  0.00000000000E+00 0.  1.
         11    1    3    3    0    0  0.15848885851E+01 -0.60033559055E+02 -0.17299430530E+03  0.18312173479E+03  0.00000000000E+00 0. -1.
        -13    1    4    4    0    0  0.58655379508E+00 -0.30001281149E+02 -0.43210914100E+02  0.52608022328E+02  0.00000000000E+00 0.  1.
         13    1    4    4    0    0  0.82269619322E+02 -0.11685218689E+02 -0.30344703656E+03  0.31461871939E+03  0.00000000000E+00 0. -1.
          1    1    1    2  501    0 -0.96573558779E+02  0.66648882427E+02 -0.39142058618E+03  0.40863015193E+03  0.00000000000E+00 0. -1.
<scales pt_clust_5="13000.00000" pt_clust_6="13000.00000" pt_clust_7="13000.00000" pt_clust_8="13000.00000" pt_clust_9="104.09881"></scales>
<clustering>
<clus scale="   77.980">  7  8 -1 -1</clus>
<clus scale="   93.185">  5  6 -1 -1</clus>
<clus scale="   97.441">  2  5  1 -1</clus>
<clus scale="  104.099">  1  9  2 -1</clus>
<clus scale="  104.099">  1  5  2 -1</clus>
</clustering>
</event>
<event>
 9    1  0.1464797E-005  0.1628144E+03  0.7546771E-02  0.1186278E+00
          1   -1    0    0  502    0 -0.00000000000E+00  0.00000000000E+00  0.89014966098E+03  0.89014966098E+03  0.00000000000E+00 0. -1.
         21   -1    0    0  501  502  0.00000000000E+00 -0.00000000000E+00 -0.54718034465E+02  0.54718034465E+02  0.00000000000E+00 0. -1.
         23    2    1    2    0    0 -0.12921948976E+03 -0.63760287837E+02  0.59853194661E+03  0.62144658941E+03  0.84807555939E+02 0.  0.
         23    2    1    2    0    0  0.12005399760E+03  0.25880487191E+02  0.24024156485E+03  0.28430520468E+03  0.89614050081E+02 0.  0.
        -11    1    3    3    0    0 -0.54004875647E+02  0.32977178843E+01  0.10946413694E+03  0.12210568706E+03  0.00000000000E+00 0.  1.
         11    1    3    3    0    0 -0.75214614112E+02 -0.67058005721E+02  0.48906780967E+03  0.49934090235E+03  0.00000000000E+00 0. -1.
        -13    1    4    4    0    0  0.63112297497E+02  0.53280703387E+02  0.17481496400E+03  0.19334494326E+03  0.00000000000E+00 0.  1.
         13    1    4    4    0    0  0.56941700106E+02 -0.27400216196E+02  0.65426600853E+02  0.90960261421E+02  0.00000000000E+00 0. -1.
          1    1    1    2  501    0  0.91654921564E+01  0.37879800646E+02 -0.33418849395E+01  0.39115901350E+02  0.00000000000E+00 0. -1.
<scales pt_clust_5="13000.00000" pt_clust_6="13000.00000" pt_clust_7="13000.00000" pt_clust_8="13000.00000" pt_clust_9="38.97288"></scales>
<clustering>
<clus scale="   38.973">  2  9  1 -1</clus>
<clus scale="   84.808">  5  6 -1 -1</clus>
<clus scale="   89.614">  7  8 -1 -1</clus>
<clus scale="  160.219">  1  5  2 -1</clus>
<clus scale="   38.973">  2  5  1 -1</clus>
</clustering>
</event>
<event>
 9    1  0.1464797E-005  0.1217247E+03  0.7546771E-02  0.1244460E+00
          1   -1    0    0  502    0 -0.00000000000E+00  0.00000000000E+00  0.50141226791E+03  0.50141226791E+03  0.00000000000E+00 0. -1.
         21   -1    0    0  501  502  0.00000000000E+00 -0.00000000000E+00 -0.11302643156E+03  0.11302643156E+03  0.00000000000E+00 0. -1.
         23    2    1    2    0    0 -0.36664179836E+02  0.59953023851E+02  0.40712538794E+03  0.42568308461E+03  0.10254940209E+03 0.  0.
         23    2    1    2    0    0  0.15648157647E+02 -0.47820778730E+02  0.50568544589E+02  0.11532212962E+03  0.90610839100E+02 0.  0.
        -11    1    3    3    0    0 -0.30389710336E+02 -0.45914314691E+01  0.29744316630E+02  0.42770785696E+02  0.00000000000E+00 0.  1.
         11    1    3    3    0    0 -0.62744694998E+01  0.64544455320E+02  0.37738107130E+03  0.38291229891E+03  0.00000000000E+00 0. -1.
        -13    1    4    4    0    0  0.21941611784E+02 -0.18027249371E+02 -0.22455686108E+02  0.36203230327E+02  0.00000000000E+00 0.  1.
         13    1    4    4    0    0 -0.62934541372E+01 -0.29793529360E+02  0.73024230696E+02  0.79118899294E+02  0.00000000000E+00 0. -1.
          1    1    1    2  501    0  0.21016022189E+02 -0.12132245120E+02 -0.69308096170E+02  0.73433485244E+02  0.00000000000E+00 0. -1.
<scales pt_clust_5="13000.00000" pt_clust_6="13000.00000" pt_clust_7="13000.00000" pt_clust_8="13000.00000" pt_clust_9="24.26653"></scales>
<clustering>
<clus scale="   24.267">  2  9  1 -1</clus>
<clus scale="   90.611">  7  8 -1 -1</clus>
<clus scale="  102.549">  5  6 -1 -1</clus>
<clus scale="  111.852">  2  7  1 -1</clus>
<clus scale="   24.267">  2  5  1 -1</clus>
</clustering>
</event>
<event>
 9    1  0.1464797E-005  0.1021577E+03  0.7546771E-02  0.1276618E+00
         21   -1    0    0  501  502  0.00000000000E+00  0.00000000000E+00  0.90848267055E+02  0.90848267055E+02  0.00000000000E+00 0. -1.
         -1   -1    0    0    0  501 -0.00000000000E+00 -0.00000000000E+00 -0.28820580298E+03  0.28820580298E+03  0.00000000000E+00 0.  1.
         23    2    1    2    0    0 -0.34588356260E+02 -0.35670274125E+02 -0.18781152233E+03  0.21415333720E+03  0.90109716838E+02 0.  0.
         23    2    1    2    0    0  0.32863527381E+02  0.14693210556E+02 -0.56340461296E+02  0.11359057239E+03  0.91829563258E+02 0.  0.
        -13    1    3    3    0    0 -0.19385063555E+02 -0.56028683309E+02 -0.17677327396E+03  0.18645048787E+03  0.00000000000E+00 0.  1.
         13    1    3    3    0    0 -0.15203292705E+02  0.20358409184E+02 -0.11038248370E+02  0.27702849324E+02  0.00000000000E+00 0. -1.
        -13    1    4    4    0    0  0.57234332017E+02 -0.84545049395E+01 -0.55192602239E+02  0.79959181818E+02  0.00000000000E+00 0.  1.
         13    1    4    4    0    0 -0.24370804636E+02  0.23147715495E+02 -0.11478590570E+01  0.33631390570E+02  0.00000000000E+00 0. -1.
         -1    1    1    2    0  502  0.17248288790E+01  0.20977063569E+02  0.46794447695E+02  0.51310160453E+02  0.00000000000E+00 0.  1.
<scales pt_clust_5="13000.00000" pt_clust_6="13000.00000" pt_clust_7="13000.00000" pt_clust_8="13000.00000" pt_clust_9="21.04786"></scales>
<clustering>
<clus scale="   21.048">  1  9  2 -1</clus>
<clus scale="   90.110">  5  6 -1 -1</clus>
<clus scale="   91.830">  7  8 -1 -1</clus>
<clus scale="  100.615">  2  5  1 -1</clus>
<clus scale="   21.048">  1  5  2 -1</clus>
</clustering>
</event>
<event>
 9    1  0.1464797E-005  0.1024641E+03  0.7546771E-02  0.1275397E+00
         -2   -1    0    0    0  501 -0.00000000000E+00  0.00000000000E+00  0.15786394005E+03  0.15786394005E+03  0.00000000000E+00 0.  1.
         21   -1    0    0  501  502  0.00000000000E+00 -0.00000000000E+00 -0.13111927795E+03  0.13111927795E+03  0.00000000000E+00 0. -1.
         23    2    1    2    0    0  0.34742297283E+01 -0.57271159173E+02  0.49512539746E+02  0.11946395788E+03  0.92347656679E+02 0.  0.
         23    2    1    2    0    0 -0.30382789562E+02  0.23886982421E+02  0.27515888109E+02  0.10343574517E+03  0.91913695657E+02 0.  0.
        -11    1    4    4    0    0 -0.34743842756E+02  0.37193997496E+01 -0.27636168124E+02  0.44550267480E+02  0.00000000000E+00 0.  1.
         11    1    4    4    0    0  0.43610531946E+01  0.20167582671E+02  0.55152056233E+02  0.58885477687E+02  0.00000000000E+00 0. -1.
        -11    1    3    3    0    0  0.31437196662E+02  0.12044503887E+02  0.19612747352E+02  0.38961869392E+02  0.00000000000E+00 0.  1.
         11    1    3    3    0    0 -0.27962966933E+02 -0.69315663060E+02  0.29899792394E+02  0.80502088484E+02  0.00000000000E+00 0. -1.
         -2    1    1    2    0  502  0.26908559834E+02  0.33384176753E+02 -0.50283765753E+02  0.66083514949E+02  0.00000000000E+00 0.  1.
<scales pt_clust_5="13000.00000" pt_clust_6="13000.00000" pt_clust_7="13000.00000" pt_clust_8="13000.00000" pt_clust_9="42.87859"></scales>
<clustering>
<clus scale="   42.879">  2  9  1 -1</clus>
<clus scale="   91.914">  5  6 -1 -1</clus>
<clus scale="   92.348">  7  8 -1 -1</clus>
<clus scale="  102.073">  2  5  1 -1</clus>
<clus scale="   42.879">  2  5  1 -1</clus>
</clustering>
</event>
<event>
 9    1  0.1464797E-005  0.9655228E+02  0.7546771E-02  0.1288122E+00
          2   -1    0    0  502    0 -0.00000000000E+00  0.00000000000E+00  0.17640871566E+03  0.17640871566E+03  0.00000000000E+00 0. -1.
         21   -1    0    0  501  502  0.00000000000E+00 -0.00000000000E+00 -0.15709034007E+03  0.15709034007E+03  0.00000000000E+00 0.  1.
         23    2    1    2    0    0 -0.28693263932E+02  0.22639942993E+02  0.12709792229E+03  0.16057175991E+03  0.91068863042E+02 0.  0.
         23    2    1    2    0    0 -0.11358769975E+01  0.40952143174E+01 -0.56701569942E+02  0.10801577146E+03  0.91838324533E+02 0.  0.
        -11    1    4    4    0    0  0.40357395804E+02 -0.17741798578E+02 -0.19702795267E+02  0.48287585922E+02  0.00000000000E+00 0. -1.
         11    1    4    4    0    0 -0.41493272801E+02  0.21837012896E+02 -0.36998774675E+02  0.59728185536E+02  0.00000000000E+00 0.  1.
        -13    1    3    3    0    0 -0.57087806938E+02 -0.63493882691E+01  0.78217195190E+02  0.97042578571E+02  0.00000000000E+00 0.  1.
         13    1    3    3    0    0  0.28394543006E+02  0.28989331262E+02  0.48880727101E+02  0.63529181337E+02  0.00000000000E+00 0. -1.
          2    1    1    2  501    0  0.29829140929E+02 -0.26735157310E+02 -0.51077976765E+02  0.64911524365E+02  0.00000000000E+00 0. -1.
<scales pt_clust_5="13000.00000" pt_clust_6="13000.00000" pt_clust_7="13000.00000" pt_clust_8="13000.00000" pt_clust_9="40.05679"></scales>
<clustering>
<clus scale="   40.057">  2  9  1 -1</clus>
<clus scale="   91.069">  7  8 -1 -1</clus>
<clus scale="   91.838">  5  6 -1 -1</clus>
<clus scale="   95.821">  1  7  2 -1</clus>
<clus scale="   40.057">  2  5  1 -1</clus>
</clustering>
</event>
<event>
 9    1  0.1464797E-005  0.1284924E+03  0.7546771E-02  0.1231307E+00
         -1   -1    0    0    0  501 -0.00000000000E+00  0.00000000000E+00  0.40196676058E+03  0.40196676058E+03  0.00000000000E+00 0.  1.
         21   -1    0    0  501  502  0.00000000000E+00 -0.00000000000E+00 -0.13032778792E+03  0.13032778792E+03  0.00000000000E+00 0. -1.
         23    2    1    2    0    0 -0.46485112123E+02 -0.65557457537E+02  0.24225507843E+03  0.27054408208E+03  0.89710263824E+02 0.  0.
         23    2    1    2    0    0  0.55457775399E+02  0.11609227644E+03  0.93444098605E+02  0.17966522785E+03  0.83634998842E+02 0.  0.
        -11    1    3    3    0    0  0.21331021523E+02  0.55952524355E+01  0.40323752441E+02  0.45960029807E+02  0.00000000000E+00 0. -1.
         11    1    3    3    0    0 -0.67816133646E+02 -0.71152709973E+02  0.20193132599E+03  0.22458405227E+03  0.00000000000E+00 0.  1.
        -13    1    4    4    0    0  0.27348354465E+02  0.87168155001E+02  0.10354556414E+03  0.13808658005E+03  0.00000000000E+00 0.  1.
         13    1    4    4    0    0  0.28109420933E+02  0.28924121439E+02 -0.10101465533E+02  0.41578647792E+02  0.00000000000E+00 0. -1.
         -1    1    1    2    0  502 -0.89726632753E+01 -0.50534818903E+02 -0.64060204376E+02  0.82085238579E+02  0.00000000000E+00 0.  1.
<scales pt_clust_5="13000.00000" pt_clust_6="13000.00000" pt_clust_7="13000.00000" pt_clust_8="13000.00000" pt_clust_9="51.32520"></scales>
<clustering>
<clus scale="   51.325">  2  9  1 -1</clus>
<clus scale="   83.635">  7  8 -1 -1</clus>
<clus scale="   89.710">  5  6 -1 -1</clus>
<clus scale="  124.327">  2  7  1 -1</clus>
<clus scale="   51.325">  2  5  1 -1</clus>
</clustering>
</event>
<event>
 9    1  0.1464797E-005  0.1488227E+03  0.7546771E-02  0.1202309E+00
         21   -1    0    0  501  502  0.00000000000E+00  0.00000000000E+00  0.19397304923E+03  0.19397304923E+03  0.00000000000E+00 0.  1.
          2   -1    0    0  502    0 -0.00000000000E+00 -0.00000000000E+00 -0.29222618020E+03  0.29222618020E+03  0.00000000000E+00 0. -1.
         23    2    1    2    0    0 -0.98820886551E+02  0.72447574584E+02 -0.12364438975E+03  0.19694604592E+03  0.92117268782E+02 0.  0.
         23    2    1    2    0    0  0.78167327982E+02 -0.79691904871E+02 -0.91608674568E+02  0.17022363169E+03  0.90127713072E+02 0.  0.
        -13    1    4    4    0    0  0.33430869776E+01 -0.53006627790E+02 -0.70052895240E+02  0.87910675982E+02  0.00000000000E+00 0. -1.
         13    1    4    4    0    0  0.74824241004E+02 -0.26685277081E+02 -0.21555779328E+02  0.82312955707E+02  0.00000000000E+00 0.  1.
        -13    1    3    3    0    0 -0.85748258754E+02  0.89871696795E+02 -0.78831086868E+02  0.14711908789E+03  0.00000000000E+00 0.  1.
         13    1    3    3    0    0 -0.13072627797E+02 -0.17424122211E+02 -0.44813302879E+02  0.49826958037E+02  0.00000000000E+00 0. -1.
          2    1    1    2  501    0  0.20653558569E+02  0.72443302864E+01  0.11699993334E+03  0.11902955182E+03  0.00000000000E+00 0. -1.
<scales pt_clust_5="13000.00000" pt_clust_6="13000.00000" pt_clust_7="13000.00000" pt_clust_8="13000.00000" pt_clust_9="21.88721"></scales>
<clustering>
<clus scale="   21.887">  1  9  2 -1</clus>
<clus scale="   90.128">  5  6 -1 -1</clus>
<clus scale="   92.117">  7  8 -1 -1</clus>
<clus scale="  147.600">  1  5  2 -1</clus>
<clus scale="   21.887">  1  5  2 -1</clus>
</clustering>
</event>
<event>
 9    1  0.1464797E-005  0.1652008E+03  0.7546771E-02  0.1185702E+00
         21   -1    0    0  501  502  0.00000000000E+00  0.00000000000E+00  0.40537329774E+03  0.40537329774E+03  0.00000000000E+00 0. -1.
          3   -1    0    0  502    0 -0.00000000000E+00 -0.00000000000E+00 -0.40445542445E+03  0.40445542445E+03  0.00000000000E+00 0. -1.
         23    2    1    2    0    0 -0.34413746416E+01  0.14012958218E+03 -0.35226668759E+03  0.39078889664E+03  0.94741752647E+02 0.  0.
         23    2    1    2    0    0  0.73451633102E+02 -0.74821374936E+02  0.20952124117E+03  0.24639641370E+03  0.76280152274E+02 0.  0.
        -11    1    3    3    0    0 -0.40095447239E+02  0.12014268000E+03 -0.24790043812E+03  0.27838199594E+03  0.00000000000E+00 0. -1.
         11    1    3    3    0    0  0.36654072597E+02  0.19986902186E+02 -0.10436624947E+03  0.11240690070E+03  0.00000000000E+00 0.  1.
        -13    1    4    4    0    0  0.17323192612E+02 -0.11479048191E+02  0.38509648784E+00  0.20784846619E+02  0.00000000000E+00 0.  1.
         13    1    4    4    0    0  0.56128440489E+02 -0.63342326744E+02  0.20913614468E+03  0.22561156708E+03  0.00000000000E+00 0. -1.
          3    1    1    2  501    0 -0.70010258460E+02 -0.65308207249E+02  0.14366331971E+03  0.17264341185E+03  0.00000000000E+00 0. -1.
<scales pt_clust_5="13000.00000" pt_clust_6="13000.00000" pt_clust_7="13000.00000" pt_clust_8="13000.00000" pt_clust_9="95.74235"></scales>
<clustering>
<clus scale="   76.280">  7  8 -1 -1</clus>
<clus scale="   94.742">  5  6 -1 -1</clus>
<clus scale="   95.742">  1  9  2 -1</clus>
<clus scale="  155.351">  1  7  2 -1</clus>
<clus scale="   95.742">  1  5  2 -1</clus>
</clustering>
</event>
<event>
 9    1  0.1464797E-005  0.1220610E+03  0.7546771E-02  0.1242382E+00
          2   -1    0    0  502    0 -0.00000000000E+00  0.00000000000E+00  0.52239190758E+02  0.52239190758E+02  0.00000000000E+00 0. -1.
         21   -1    0    0  501  502  0.00000000000E+00 -0.00000000000E+00 -0.45328880212E+03  0.45328880212E+03  0.00000000000E+00 0.  1.
         23    2    1    2    0    0  0.62240997658E+02  0.22252201504E+02 -0.61090528418E+02  0.13417142406E+03  0.99502844731E+02 0.  0.
         23    2    1    2    0    0 -0.81822458349E+02 -0.17273632590E+02 -0.24887601670E+03  0.27805949112E+03  0.91567001921E+02 0.  0.
        -11    1    4    4    0    0 -0.23051485857E+02  0.14094445432E+02 -0.80550979532E+01  0.28194130511E+02  0.00000000000E+00 0. -1.
         11    1    4    4    0    0 -0.58770972492E+02 -0.31368078022E+02 -0.24082091875E+03  0.24986536061E+03  0.00000000000E+00 0.  1.
        -13    1    3    3    0    0  0.26869697882E+02 -0.87284558300E+01 -0.78965995393E+02  0.83867723433E+02  0.00000000000E+00 0.  1.
         13    1    3    3    0    0  0.35371299776E+02  0.30980657334E+02  0.17875466975E+02  0.50303700622E+02  0.00000000000E+00 0. -1.
          2    1    1    2  501    0  0.19581460691E+02 -0.49785689146E+01 -0.91083066247E+02  0.93297077704E+02  0.00000000000E+00 0. -1.
<scales pt_clust_5="13000.00000" pt_clust_6="13000.00000" pt_clust_7="13000.00000" pt_clust_8="13000.00000" pt_clust_9="20.20445"></scales>
<clustering>
<clus scale="   20.204">  2  9  1 -1</clus>
<clus scale="   91.567">  5  6 -1 -1</clus>
<clus scale="   99.503">  7  8 -1 -1</clus>
<clus scale="  115.683">  2  5  1 -1</clus>
<clus scale="   20.204">  2  5  1 -1</clus>
</clustering>
</event>
<event>
 9    1  0.1464797E-005  0.9823509E+02  0.7546771E-02  0.1286525E+00
          1   -1    0    0  502    0 -0.00000000000E+00  0.00000000000E+00  0.20039703569E+03  0.20039703569E+03  0.00000000000E+00 0. -1.
         21   -1    0    0  501  502  0.00000000000E+00 -0.00000000000E+00 -0.75444625852E+02  0.75444625852E+02  0.00000000000E+00 0.  1.
         23    2    1    2    0    0 -0.15761374038E+02 -0.25136025336E+01  0.10181002032E+03  0.13741626362E+03  0.90902201074E+02 0.  0.
         23    2    1    2    0    0  0.30838474864E+02  0.28320043786E+02  0.28378385806E+02  0.10808224324E+03  0.95516501770E+02 0.  0.
        -11    1    4    4    0    0 -0.97658402052E+01  0.25559052026E+02 -0.27606070402E+02  0.38868134743E+02  0.00000000000E+00 0.  1.
         11    1    4    4    0    0  0.40604315069E+02  0.27609917605E+01  0.55984456209E+02  0.69214108495E+02  0.00000000000E+00 0. -1.
        -13    1    3    3    0    0 -0.92703865514E+01 -0.35551703342E+02  0.96593440945E+02  0.10334484269E+03  0.00000000000E+00 0. -1.
         13    1    3    3    0    0 -0.64909874868E+01  0.33038100808E+02  0.52165793729E+01  0.34071420926E+02  0.00000000000E+00 0.  1.
          1    1    1    2  501    0 -0.15077100826E+02 -0.25806441252E+02 -0.52359962841E+01  0.30343154690E+02  0.00000000000E+00 0. -1.
<scales pt_clust_5="13000.00000" pt_clust_6="13000.00000" pt_clust_7="13000.00000" pt_clust_8="13000.00000" pt_clust_9="29.88798"></scales>
<clustering>
<clus scale="   29.888">  2  9  1 -1</clus>
<clus scale="   90.902">  7  8 -1 -1</clus>
<clus scale="   93.755">  1  7  2 -1</clus>
<clus scale="   95.517">  5  6 -1 -1</clus>
<clus scale="   29.888">  2  5  1 -1</clus>
</clustering>
</event>
<event>
 9    1  0.1464797E-005  0.1041460E+03  0.7546771E-02  0.1272203E+00
         21   -1    0    0  501  502  0.00000000000E+00  0.00000000000E+00  0.18502738671E+03  0.18502738671E+03  0.00000000000E+00 0.  1.
         -1   -1    0    0    0  501 -0.00000000000E+00 -0.00000000000E+00 -0.10281565450E+03  0.10281565450E+03  0.00000000000E+00 0.  1.
         23    2    1    2    0    0  0.11691847340E+02 -0.37110115312E+02  0.75309197750E+01  0.99758410768E+02  0.91548707328E+02 0.  0.
         23    2    1    2    0    0 -0.42226866381E+02  0.47315343681E+02  0.43363030954E+01  0.11072259796E+03  0.90657819207E+02 0.  0.
        -11    1    4    4    0    0 -0.30082138818E+02  0.25164514234E+02 -0.42299784847E+02  0.57684136906E+02  0.00000000000E+00 0.  1.
         11    1    4    4    0    0 -0.12144727563E+02  0.22150829447E+02  0.46636087943E+02  0.53038461058E+02  0.00000000000E+00 0. -1.
        -13    1    3    3    0    0 -0.22982072878E+02 -0.51872163972E+02 -0.10954666332E+02  0.57783230987E+02  0.00000000000E+00 0.  1.
         13    1    3    3    0    0  0.34673920217E+02  0.14762048660E+02  0.18485586107E+02  0.41975179780E+02  0.00000000000E+00 0. -1.
         -1    1    1    2    0  502  0.30535019042E+02 -0.10205228369E+02  0.70344509339E+02  0.77362032471E+02  0.00000000000E+00 0.  1.
<scales pt_clust_5="13000.00000" pt_clust_6="13000.00000" pt_clust_7="13000.00000" pt_clust_8="13000.00000" pt_clust_9="32.19525"></scales>
<clustering>
<clus scale="   32.195">  1  9  2 -1</clus>
<clus scale="   90.658">  5  6 -1 -1</clus>
<clus scale="   91.549">  7  8 -1 -1</clus>
<clus scale="  103.364">  1  5  2 -1</clus>
<clus scale="   32.195">  1  5  2 -1</clus>
</clustering>
</event>
<event>
 9    1  0.1464797E-005  0.1437320E+03  0.7546771E-02  0.1208466E+00
          4   -1    0    0  502    0 -0.00000000000E+00  0.00000000000E+00  0.10689654084E+03  0.10689654084E+03  0.00000000000E+00 0. -1.
         21   -1    0    0  501  502  0.00000000000E+00 -0.00000000000E+00 -0.25969535575E+03  0.25969535575E+03  0.00000000000E+00 0. -1.
         23    2    1    2    0    0  0.85942947750E+02 -0.60464953291E+02 -0.68247932078E+02  0.15577516891E+03  0.92552267237E+02 0.  0.
         23    2    1    2    0    0 -0.74777581992E+02  0.91442333893E+02 -0.93582213342E+02  0.17667249784E+03  0.92207123594E+02 0.  0.
        -13    1    4    4    0    0 -0.40004109243E+02  0.77718442139E+02 -0.10589739745E+03  0.13731257696E+03  0.00000000000E+00 0. -1.
         13    1    4    4    0    0 -0.34773472749E+02  0.13723891754E+02  0.12315184107E+02  0.39359920877E+02  0.00000000000E+00 0.  1.
        -13    1    3    3    0    0  0.44533013521E+01 -0.57321942630E+02 -0.37383833914E+02  0.68579793218E+02  0.00000000000E+00 0.  1.
         13    1    3    3    0    0  0.81489646398E+02 -0.31430106617E+01 -0.30864098164E+02  0.87195375689E+02  0.00000000000E+00 0. -1.
          4    1    1    2  501    0 -0.11165365758E+02 -0.30977380602E+02  0.90313305113E+01  0.34144229853E+02  0.00000000000E+00 0. -1.
<scales pt_clust_5="13000.00000" pt_clust_6="13000.00000" pt_clust_7="13000.00000" pt_clust_8="13000.00000" pt_clust_9="32.92817"></scales>
<clustering>
<clus scale="   32.928">  2  9  1 -1</clus>
<clus scale="   92.207">  5  6 -1 -1</clus>
<clus scale="   92.552">  7  8 -1 -1</clus>
<clus scale="  143.510">  2  5  1 -1</clus>
<clus scale="   32.928">  2  5  1 -1</clus>
</clustering>
</event>
<event>
 9    1  0.1464797E-005  0.9038267E+02  0.7546771E-02  0.1302170E+00
         21   -1    0    0  501  502  0.00000000000E+00  0.00000000000E+00  0.47488997082E+02  0.47488997082E+02  0.00000000000E+00 0.  1.
          2   -1    0    0  502    0 -0.00000000000E+00 -0.00000000000E+00 -0.34062576250E+03  0.34062576250E+03  0.00000000000E+00 0. -1.
         23    2    1    2    0    0 -0.10079002685E+01  0.46421026820E+01 -0.24841221183E+03  0.26423905575E+03  0.89950467561E+02 0.  0.
         23    2    1    2    0    0 -0.14298502139E+02  0.12724011412E+02 -0.36546893379E+02  0.99324899366E+02  0.90351605346E+02 0.  0.
        -11    1    4    4    0    0 -0.32776751615E+02  0.41113811902E+02 -0.38845921675E+02  0.65373286641E+02  0.00000000000E+00 0.  1.
         11    1    4    4    0    0  0.18478249475E+02 -0.28389800490E+02  0.22990282963E+01  0.33951612725E+02  0.00000000000E+00 0. -1.
        -13    1    3    3    0    0 -0.37359549396E+02  0.26303601618E+02 -0.10061602707E+03  0.11050429988E+03  0.00000000000E+00 0.  1.
         13    1    3    3    0    0  0.36351649128E+02 -0.21661498936E+02 -0.14779618477E+03  0.15373475587E+03  0.00000000000E+00 0. -1.
          2    1    1    2  501    0  0.15306402408E+02 -0.17366114094E+02 -0.81776602021E+01  0.24550804463E+02  0.00000000000E+00 0. -1.
<scales pt_clust_5="13000.00000" pt_clust_6="13000.00000" pt_clust_7="13000.00000" pt_clust_8="13000.00000" pt_clust_9="23.14882"></scales>
<clustering>
<clus scale="   23.149">  1  9  2 -1</clus>
<clus scale="   89.950">  7  8 -1 -1</clus>
<clus scale="   89.982">  2  7  1 -1</clus>
<clus scale="   90.352">  5  6 -1 -1</clus>
<clus scale="   23.149">  1  5  2 -1</clus>
</clustering>
</event>
<event>
 9    1  0.1464797E-005  0.1000973E+03  0.7546771E-02  0.1284189E+00
         -1   -1    0    0    0  501 -0.00000000000E+00  0.00000000000E+00  0.89586833690E+02  0.89586833690E+02  0.00000000000E+00 0.  1.
         21   -1    0    0  501  502  0.00000000000E+00 -0.00000000000E+00 -0.49110927203E+03  0.49110927203E+03  0.00000000000E+00 0.  1.
         23    2    1    2    0    0 -0.72411660739E+01  0.78284122903E+01  0.14120626386E+02  0.99737474658E+02  0.98155250683E+02 0.  0.
         23    2    1    2    0    0  0.44046498650E+02  0.31107523153E+02 -0.59880483168E+02  0.12118418226E+03  0.90510561403E+02 0.  0.
        -11    1    3    3    0    0 -0.21825692379E+01  0.35791941219E+02  0.45152983045E+02  0.57659505222E+02  0.00000000000E+00 0.  1.
         11    1    3    3    0    0 -0.50585968360E+01 -0.27963528928E+02 -0.31032356659E+02  0.42077969436E+02  0.00000000000E+00 0. -1.
        -13    1    4    4    0    0  0.16935167878E+02  0.36938341391E+02 -0.78075168593E+02  0.88016890008E+02  0.00000000000E+00 0.  1.
         13    1    4    4    0    0  0.27111330771E+02 -0.58308182386E+01  0.18194685426E+02  0.33167292251E+02  0.00000000000E+00 0. -1.
         -1    1    1    2    0  502 -0.36805332576E+02 -0.38935935443E+02 -0.35576258156E+03  0.35977444880E+03  0.00000000000E+00 0.  1.
<scales pt_clust_5="13000.00000" pt_clust_6="13000.00000" pt_clust_7="13000.00000" pt_clust_8="13000.00000" pt_clust_9="53.57835"></scales>
<clustering>
<clus scale="   53.578">  2  9  1 -1</clus>
<clus scale="   90.511">  7  8 -1 -1</clus>
<clus scale="   92.613">  2  7  1 -1</clus>
<clus scale="   98.155">  5  6 -1 -1</clus>
<clus scale="   53.578">  2  5  1 -1</clus>
</clustering>
</event>
<event>
 9    1  0.1464797E-005  0.1019851E+03  0.7546771E-02  0.1276436E+00
         21   -1    0    0  501  502  0.00000000000E+00  0.00000000000E+00  0.44089725341E+03  0.44089725341E+03  0.00000000000E+00 0. -1.
          2   -1    0    0  502    0 -0.00000000000E+00 -0.00000000000E+00 -0.39472713430E+02  0.39472713430E+02  0.00000000000E+00 0. -1.
         23    2    1    2    0    0  0.12918146457E+02 -0.35324609477E+02  0.12787303378E+03  0.16227897646E+03  0.92564825348E+02 0.  0.
         23    2    1    2    0    0 -0.54323418286E+02  0.19107669278E+02  0.13885999050E+03  0.17624885952E+03  0.92007753586E+02 0.  0.
        -13    1    4    4    0    0  0.14581141789E+02  0.33369998002E+02  0.63084311202E+02  0.72840900478E+02  0.00000000000E+00 0.  1.
         13    1    4    4    0    0 -0.68904560075E+02 -0.14262328723E+02  0.75775679302E+02  0.10340795904E+03  0.00000000000E+00 0. -1.
        -13    1    3    3    0    0  0.37817293674E+02  0.32174083629E+01  0.10367564468E+03  0.11040443251E+03  0.00000000000E+00 0.  1.
         13    1    3    3    0    0 -0.24899147217E+02 -0.38542017839E+02  0.24197389094E+02  0.51874543952E+02  0.00000000000E+00 0. -1.
          2    1    1    2  501    0  0.41405271829E+02  0.16216940198E+02  0.13469151570E+03  0.14184213086E+03  0.00000000000E+00 0. -1.
<scales pt_clust_5="13000.00000" pt_clust_6="13000.00000" pt_clust_7="13000.00000" pt_clust_8="13000.00000" pt_clust_9="44.46781"></scales>
<clustering>
<clus scale="   44.468">  1  9  2 -1</clus>
<clus scale="   92.008">  5  6 -1 -1</clus>
<clus scale="   92.565">  7  8 -1 -1</clus>
<clus scale="  101.480">  1  5  2 -1</clus>
<clus scale="   44.468">  1  5  2 -1</clus>
</clustering>
</event>
<event>
 9    1  0.1464797E-005  0.1006610E+03  0.7546771E-02  0.1281370E+00
         -3   -1    0    0    0  501 -0.00000000000E+00  0.00000000000E+00  0.37705372640E+03  0.37705372640E+03  0.00000000000E+00 0.  1.
         21   -1    0    0  501  502  0.00000000000E+00 -0.00000000000E+00 -0.98646318074E+02  0.98646318074E+02  0.00000000000E+00 0.  1.
         23    2    1    2    0    0  0.31219429168E+02 -0.18790518658E+02  0.20838328898E+03  0.23060103914E+03  0.91790564757E+02 0.  0.
         23    2    1    2    0    0 -0.23505300390E+02 -0.21383325847E+02  0.13457822411E+03  0.16867467671E+03  0.96592455133E+02 0.  0.
        -13    1    3    3    0    0  0.42689747029E+02 -0.49832273681E+02  0.14187301661E+03  0.15631258056E+03  0.00000000000E+00 0.  1.
         13    1    3    3    0    0 -0.11470317861E+02  0.31041755023E+02  0.66510272372E+02  0.74288458577E+02  0.00000000000E+00 0. -1.
        -13    1    4    4    0    0 -0.58661365832E+02 -0.25013288087E+02  0.10371750436E+03  0.12175442962E+03  0.00000000000E+00 0. -1.
         13    1    4    4    0    0  0.35156065443E+02  0.36299622406E+01  0.30860719745E+02  0.46920247084E+02  0.00000000000E+00 0.  1.
         -3    1    1    2    0  502 -0.77141287786E+01  0.40173844505E+02 -0.64554104756E+02  0.76424328626E+02  0.00000000000E+00 0.  1.
<scales pt_clust_5="13000.00000" pt_clust_6="13000.00000" pt_clust_7="13000.00000" pt_clust_8="13000.00000" pt_clust_9="40.90777"></scales>
<clustering>
<clus scale="   40.908">  2  9  1 -1</clus>
<clus scale="   91.791">  5  6 -1 -1</clus>
<clus scale="   96.063">  1  5  2 -1</clus>
<clus scale="   96.592">  7  8 -1 -1</clus>
<clus scale="   40.908">  2  5  1 -1</clus>
</clustering>
</event>
<event>
 9    1  0.1464797E-005  0.2478202E+03  0.7546771E-02  0.1131406E+00
          2   -1    0    0  502    0 -0.00000000000E+00  0.00000000000E+00  0.16596554392E+04  0.16596554392E+04  0.00000000000E+00 0. -1.
         21   -1    0    0  501  502  0.00000000000E+00 -0.00000000000E+00 -0.75521317590E+02  0.75521317590E+02  0.00000000000E+00 0.  1.
         23    2    1    2    0    0  0.77635169118E+01  0.13509577359E+03  0.64961855030E+03  0.66988343385E+03  0.91806393104E+02 0.  0.
         23    2    1    2    0    0 -0.21098387330E+03  0.17034751677E+02  0.61796388345E+03  0.65952592521E+03  0.91053320803E+02 0.  0.
        -11    1    4    4    0    0 -0.15864939879E+03 -0.15242956158E+02  0.34972649830E+03  0.38433137142E+03  0.00000000000E+00 0.  1.
         11    1    4    4    0    0 -0.52334474513E+02  0.32277707835E+02  0.26823738515E+03  0.27519455379E+03  0.00000000000E+00 0. -1.
        -11    1    3    3    0    0 -0.26893738216E+02  0.12410936493E+03  0.49172579594E+03  0.50785890365E+03  0.00000000000E+00 0. -1.
         11    1    3    3    0    0  0.34657255128E+02  0.10986408655E+02  0.15789275436E+03  0.16202453020E+03  0.00000000000E+00 0.  1.
          2    1    1    2  501    0  0.20322035639E+03 -0.15213052527E+03  0.31655168787E+03  0.40576739773E+03  0.00000000000E+00 0. -1.
<scales pt_clust_5="13000.00000" pt_clust_6="13000.00000" pt_clust_7="13000.00000" pt_clust_8="13000.00000" pt_clust_9="230.48679"></scales>
<clustering>
<clus scale="   91.053">  5  6 -1 -1</clus>
<clus scale="   91.806">  7  8 -1 -1</clus>
<clus scale="  163.522">  1  7  2 -1</clus>
<clus scale="  230.487">  2  9  1 -1</clus>
<clus scale="  230.487">  2  5  1 -1</clus>
</clustering>
</event>
<event>
 9    1  0.1464797E-005  0.1633416E+03  0.7546771E-02  0.1203403E+00
         21   -1    0    0  501  502  0.00000000000E+00  0.00000000000E+00  0.51172311324E+02  0.51172311324E+02  0.00000000000E+00 0. -1.
          1   -1    0    0  502    0 -0.00000000000E+00 -0.00000000000E+00 -0.87707344797E+03  0.87707344797E+03  0.00000000000E+00 0. -1.
         23    2    1    2    0    0  0.52609905551E+02  0.28786889116E+02 -0.20356137951E+03  0.23091910968E+03  0.91048958481E+02 0.  0.
         23    2    1    2    0    0  0.10171559702E+03 -0.44896632920E+02 -0.41503475223E+03  0.43838408909E+03  0.86976972175E+02 0.  0.
        -11    1    4    4    0    0  0.15965398142E+02 -0.52282760337E+02 -0.14485903600E+03  0.15483062125E+03  0.00000000000E+00 0.  1.
         11    1    4    4    0    0  0.85750198878E+02  0.73861274169E+01 -0.27017571623E+03  0.28355346784E+03  0.00000000000E+00 0. -1.
        -11    1    3    3    0    0 -0.38332495698E+01  0.46929135076E+02 -0.65513930973E+02  0.80679072087E+02  0.00000000000E+00 0.  1.
         11    1    3    3    0    0  0.56443155121E+02 -0.18142245961E+02 -0.13804744854E+03  0.15024003759E+03  0.00000000000E+00 0. -1.
          1    1    1    2  501    0 -0.15432550257E+03  0.16109743805E+02 -0.20730500492E+03  0.25894256053E+03  0.00000000000E+00 0. -1.
<scales pt_clust_5="13000.00000" pt_clust_6="13000.00000" pt_clust_7="13000.00000" pt_clust_8="13000.00000" pt_clust_9="138.25872"></scales>
<clustering>
<clus scale="   86.977">  5  6 -1 -1</clus>
<clus scale="   91.049">  7  8 -1 -1</clus>
<clus scale="  109.025">  2  7  1 -1</clus>
<clus scale="  138.259">  1  9  2 -1</clus>
<clus scale="  138.259">  1  5  2 -1</clus>
</clustering>
</event>
<event>
 9    1  0.1464797E-005  0.2297471E+03  0.7546771E-02  0.1127395E+00
         21   -1    0    0  501  502  0.00000000000E+00  0.00000000000E+00  0.41567349389E+03  0.41567349389E+03  0.00000000000E+00 0. -1.
         -1   -1    0    0    0  501 -0.00000000000E+00 -0.00000000000E+00 -0.21743916727E+03  0.21743916727E+03  0.00000000000E+00 0.  1.
         23    2    1    2    0    0  0.20683819370E+03 -0.66163158218E+02 -0.88053535686E+02  0.25199474450E+03  0.92673212052E+02 0.  0.
         23    2    1    2    0    0 -0.15875464127E+03  0.59169042379E+02  0.25911801549E+03  0.32544794048E+03  0.10035040764E+03 0.  0.
        -11    1    3    3    0    0  0.64964841691E+02 -0.67441900776E+02 -0.43759573774E+02  0.10336218328E+03  0.00000000000E+00 0.  1.
         11    1    3    3    0    0  0.14187335201E+03  0.12787425587E+01 -0.44293961913E+02  0.14863256122E+03  0.00000000000E+00 0. -1.
        -13    1    4    4    0    0 -0.13636479143E+03  0.33350941654E+02  0.12809686045E+03  0.19004327746E+03  0.00000000000E+00 0.  1.
         13    1    4    4    0    0 -0.22389849843E+02  0.25818100725E+02  0.13102115503E+03  0.13540466302E+03  0.00000000000E+00 0. -1.
         -1    1    1    2    0  502 -0.48083552427E+02  0.69941158383E+01  0.27169846819E+02  0.55669976168E+02  0.00000000000E+00 0.  1.
<scales pt_clust_5="13000.00000" pt_clust_6="13000.00000" pt_clust_7="13000.00000" pt_clust_8="13000.00000" pt_clust_9="48.58956"></scales>
<clustering>
<clus scale="   48.590">  1  9  2 -1</clus>
<clus scale="   92.673">  5  6 -1 -1</clus>
<clus scale="  100.350">  7  8 -1 -1</clus>
<clus scale="  226.499">  2  5  1 -1</clus>
<clus scale="   48.590">  1  5  2 -1</clus>
</clustering>
</event>
<event>
 9    1  0.1464797E-005  0.1015639E+03  0.7546771E-02  0.1277931E+00
         21   -1    0    0  501  502  0.00000000000E+00  0.00000000000E+00  0.15898879788E+03  0.15898879788E+03  0.00000000000E+00 0.  1.
          2   -1    0    0  502    0 -0.00000000000E+00 -0.00000000000E+00 -0.14757151480E+03  0.14757151480E+03  0.00000000000E+00 0. -1.
         23    2    1    2    0    0  0.28502044188E+02 -0.16806505421E+02 -0.51163517951E+02  0.11018514012E+03  0.91805415886E+02 0.  0.
         23    2    1    2    0    0 -0.47324603104E+02  0.35768252539E+02 -0.20021060139E+02  0.10955982804E+03  0.89908437436E+02 0.  0.
        -11    1    4    4    0    0 -0.18352880341E+02  0.11899668755E+02  0.36000718772E+02  0.42124601902E+02  0.00000000000E+00 0.  1.
         11    1    4    4    0    0 -0.28971722763E+02  0.23868583783E+02 -0.56021778911E+02  0.67435226136E+02  0.00000000000E+00 0. -1.
        -11    1    3    3    0    0  0.36514600194E+02 -0.46956332029E+02 -0.51955980947E+02  0.78978712961E+02  0.00000000000E+00 0. -1.
         11    1    3    3    0    0 -0.80125560059E+01  0.30149826607E+02  0.79246299631E+00  0.31206427155E+02  0.00000000000E+00 0.  1.
          2    1    1    2  501    0  0.18822558916E+02 -0.18961747117E+02  0.82601861167E+02  0.86815344531E+02  0.00000000000E+00 0. -1.
<scales pt_clust_5="13000.00000" pt_clust_6="13000.00000" pt_clust_7="13000.00000" pt_clust_8="13000.00000" pt_clust_9="26.71772"></scales>
<clustering>
<clus scale="   26.718">  1  9  2 -1</clus>
<clus scale="   89.908">  5  6 -1 -1</clus>
<clus scale="   91.805">  7  8 -1 -1</clus>
<clus scale="   99.852">  1  5  2 -1</clus>
<clus scale="   26.718">  1  5  2 -1</clus>
</clustering>
</event>
<event>
 9    1  0.1464797E-005  0.1188056E+03  0.7546771E-02  0.1245791E+00
          2   -1    0    0  502    0 -0.00000000000E+00  0.00000000000E+00  0.25892798168E+03  0.25892798168E+03  0.00000000000E+00 0. -1.
         21   -1    0    0  501  502  0.00000000000E+00 -0.00000000000E+00 -0.13295927191E+03  0.13295927191E+03  0.00000000000E+00 0.  1.
         23    2    1    2    0    0  0.38574619245E+02  0.56615279314E+02  0.18063098649E+03  0.21470140571E+03  0.93679502715E+02 0.  0.
         23    2    1    2    0    0 -0.68932743824E+02 -0.68013355066E+02 -0.30366471536E+02  0.13666649438E+03  0.91531789310E+02 0.  0.
        -11    1    4    4    0    0 -0.43427461400E+02 -0.60692837712E+02  0.22132809570E+02  0.77842316336E+02  0.00000000000E+00 0. -1.
         11    1    4    4    0    0 -0.25505282424E+02 -0.73205173544E+01 -0.52499281106E+02  0.58824178044E+02  0.00000000000E+00 0.  1.
        -13    1    3    3    0    0 -0.18071944245E+01 -0.24790495956E+02  0.32444147034E+02  0.40871228489E+02  0.00000000000E+00 0. -1.
         13    1    3    3    0    0  0.40381813670E+02  0.81405775270E+02  0.14818683946E+03  0.17383017722E+03  0.00000000000E+00 0.  1.
          2    1    1    2  501    0  0.30358124579E+02  0.11398075752E+02 -0.24295805181E+02  0.40519353502E+02  0.00000000000E+00 0. -1.
<scales pt_clust_5="13000.00000" pt_clust_6="13000.00000" pt_clust_7="13000.00000" pt_clust_8="13000.00000" pt_clust_9="32.42733"></scales>
<clustering>
<clus scale="   32.427">  2  9  1 -1</clus>
<clus scale="   91.532">  5  6 -1 -1</clus>
<clus scale="   93.680">  7  8 -1 -1</clus>
<clus scale="  117.120">  2  5  1 -1</clus>
<clus scale="   32.427">  2  5  1 -1</clus>
</clustering>
</event>
<event>
 9    1  0.1464797E-005  0.1806222E+03  0.7546771E-02  0.1167264E+00
          2   -1    0    0  502    0 -0.00000000000E+00  0.00000000000E+00  0.12128507620E+04  0.12128507620E+04  0.00000000000E+00 0. -1.
         21   -1    0    0  501  502  0.00000000000E+00 -0.00000000000E+00 -0.66707450069E+02  0.66707450069E+02  0.00000000000E+00 0.  1.
         23    2    1    2    0    0 -0.13944589669E+03  0.40705190620E+02  0.70110483937E+03  0.72168255407E+03  0.90419259049E+02 0.  0.
         23    2    1    2    0    0  0.16063811341E+03 -0.80686450764E+02  0.46624305382E+03  0.50790321079E+03  0.90929530251E+02 0.  0.
        -11    1    4    4    0    0  0.27553356090E+02 -0.29886165857E+02  0.34663936031E+02  0.53422455977E+02  0.00000000000E+00 0.  1.
         11    1    4    4    0    0  0.13308475732E+03 -0.50800284907E+02  0.43157911779E+03  0.45448075481E+03  0.00000000000E+00 0. -1.
        -13    1    3    3    0    0 -0.47962031438E+02  0.60605738266E+02  0.33431677276E+03  0.34313425437E+03  0.00000000000E+00 0.  1.
         13    1    3    3    0    0 -0.91483865250E+02 -0.19900547645E+02  0.36678806661E+03  0.37854829970E+03  0.00000000000E+00 0. -1.
          2    1    1    2  501    0 -0.21192216723E+02  0.39981260144E+02 -0.21204581277E+02  0.49972447203E+02  0.00000000000E+00 0. -1.
<scales pt_clust_5="13000.00000" pt_clust_6="13000.00000" pt_clust_7="13000.00000" pt_clust_8="13000.00000" pt_clust_9="45.25054"></scales>
<clustering>
<clus scale="   45.251">  2  9  1 -1</clus>
<clus scale="   90.419">  7  8 -1 -1</clus>
<clus scale="   90.930">  5  6 -1 -1</clus>
<clus scale="  180.366">  1  7  2 -1</clus>
<clus scale="   45.251">  2  5  1 -1</clus>
</clustering>
</event>
<event>
 9    1  0.1464797E-005  0.9334800E+02  0.7546771E-02  0.1296136E+00
          1   -1    0    0  502    0 -0.00000000000E+00  0.00000000000E+00  0.33775941794E+03  0.33775941794E+03  0.00000000000E+00 0. -1.
         21   -1    0    0  501  502  0.00000000000E+00 -0.00000000000E+00 -0.40513807299E+02  0.40513807299E+02  0.00000000000E+00 0.  1.
         23    2    1    2    0    0  0.73814302575E+01  0.13880376183E+02  0.16484146069E+03  0.18882040280E+03  0.90737461915E+02 0.  0.
         23    2    1    2    0    0  0.11385599853E+02 -0.32087801836E+02  0.13286419624E+03  0.16330089305E+03  0.88628596499E+02 0.  0.
        -11    1    4    4    0    0 -0.59386329816E+01 -0.48698783886E+02  0.13021958008E+03  0.13915451107E+03  0.00000000000E+00 0.  1.
         11    1    4    4    0    0  0.17324232835E+02  0.16610982050E+02  0.26446161528E+01  0.24146381977E+02  0.00000000000E+00 0. -1.
        -13    1    3    3    0    0 -0.28578226431E+02 -0.25413195370E+02  0.58608059976E+02  0.69981784909E+02  0.00000000000E+00 0.  1.
         13    1    3    3    0    0  0.35959656689E+02  0.39293571553E+02  0.10623340072E+03  0.11883861789E+03  0.00000000000E+00 0. -1.
          1    1    1    2  501    0 -0.18767030111E+02  0.18207425653E+02 -0.46004629450E+00  0.26151929388E+02  0.00000000000E+00 0. -1.
<scales pt_clust_5="13000.00000" pt_clust_6="13000.00000" pt_clust_7="13000.00000" pt_clust_8="13000.00000" pt_clust_9="26.14788"></scales>
<clustering>
<clus scale="   26.148">  2  9  1 -1</clus>
<clus scale="   88.629">  5  6 -1 -1</clus>
<clus scale="   90.737">  7  8 -1 -1</clus>
<clus scale="   91.299">  2  5  1 -1</clus>
<clus scale="   26.148">  2  5  1 -1</clus>
</clustering>
</event>
<event>
 9    1  0.1464797E-005  0.1219381E+03  0.7546771E-02  0.1241361E+00
         21   -1    0    0  501  502  0.00000000000E+00  0.00000000000E+00  0.30558283823E+03  0.30558283823E+03  0.00000000000E+00 0.  1.
         -1   -1    0    0    0  501 -0.00000000000E+00 -0.00000000000E+00 -0.14481980127E+03  0.14481980127E+03  0.00000000000E+00 0.  1.
         23    2    1    2    0    0  0.33074401154E+02  0.55674848578E+02 -0.49130372276E+02  0.12585622866E+03  0.96085337256E+02 0.  0.
         23    2    1    2    0    0 -0.53719216823E+02 -0.80064600166E+02  0.23052608760E+02  0.13499284817E+03  0.91627243935E+02 0.  0.
        -11    1    3    3    0    0  0.11738290616E+01 -0.25283899072E+02  0.11862730430E+01  0.25338916131E+02  0.00000000000E+00 0.  1.
         11    1    3    3    0    0  0.31900572093E+02  0.80958747650E+02 -0.50316645319E+02  0.10051731252E+03  0.00000000000E+00 0. -1.
        -11    1    4    4    0    0  0.98809651156E+01 -0.55111329494E+02  0.34433885356E+02  0.65731153732E+02  0.00000000000E+00 0. -1.
         11    1    4    4    0    0 -0.63600181938E+02 -0.24953270672E+02 -0.11381276595E+02  0.69261694440E+02  0.00000000000E+00 0.  1.
         -1    1    1    2    0  502  0.20644815668E+02  0.24389751588E+02  0.18684080048E+03  0.18955356267E+03  0.00000000000E+00 0.  1.
<scales pt_clust_5="13000.00000" pt_clust_6="13000.00000" pt_clust_7="13000.00000" pt_clust_8="13000.00000" pt_clust_9="31.95416"></scales>
<clustering>
<clus scale="   31.954">  1  9  2 -1</clus>
<clus scale="   91.627">  7  8 -1 -1</clus>
<clus scale="   96.085">  5  6 -1 -1</clus>
<clus scale="  118.457">  1  7  2 -1</clus>
<clus scale="   31.954">  1  5  2 -1</clus>
</clustering>
</event>
<event>
 9    1  0.1464797E-005  0.1568151E+03  0.7546771E-02  0.1197474E+00
          1   -1    0    0  502    0 -0.00000000000E+00  0.00000000000E+00  0.81665921257E+03  0.81665921257E+03  0.00000000000E+00 0. -1.
         21   -1    0    0  501  502  0.00000000000E+00 -0.00000000000E+00 -0.49074316699E+02  0.49074316699E+02  0.00000000000E+00 0. -1.
         23    2    1    2    0    0  0.56680151826E+02  0.10023634369E+03  0.53045635262E+03  0.55526101831E+03  0.11692259069E+03 0.  0.
         23    2    1    2    0    0 -0.20193901927E+02 -0.90280921941E+02  0.23883563280E+03  0.27261394510E+03  0.93367365981E+02 0.  0.
        -13    1    3    3    0    0 -0.29612279476E+02  0.49517454859E+02  0.27303472171E+03  0.27906419457E+03  0.00000000000E+00 0.  1.
         13    1    3    3    0    0  0.86292431302E+02  0.50718888828E+02  0.25742163092E+03  0.27619682375E+03  0.00000000000E+00 0. -1.
        -13    1    4    4    0    0 -0.53571650333E+02 -0.28891369098E+02  0.12524455489E+03  0.13925096573E+03  0.00000000000E+00 0. -1.
         13    1    4    4    0    0  0.33377748406E+02 -0.61389552842E+02  0.11359107791E+03  0.13336297937E+03  0.00000000000E+00 0.  1.
          1    1    1    2  501    0 -0.36486249899E+02 -0.99554217468E+01 -0.17070895464E+01  0.37858565855E+02  0.00000000000E+00 0. -1.
<scales pt_clust_5="13000.00000" pt_clust_6="13000.00000" pt_clust_7="13000.00000" pt_clust_8="13000.00000" pt_clust_9="37.82006"></scales>
<clustering>
<clus scale="   37.820">  2  9  1 -1</clus>
<clus scale="   93.367">  7  8 -1 -1</clus>
<clus scale="  116.923">  5  6 -1 -1</clus>
<clus scale="  140.134">  2  7  1 -1</clus>
<clus scale="   37.820">  2  5  1 -1</clus>
</clustering>
</event>
<event>
 9    1  0.1464797E-005  0.9696494E+02  0.7546771E-02  0.1287666E+00
         -3   -1    0    0    0  501 -0.00000000000E+00  0.00000000000E+00  0.23326581804E+03  0.23326581804E+03  0.00000000000E+00 0.  1.
         21   -1    0    0  501  502  0.00000000000E+00 -0.00000000000E+00 -0.20942875530E+03  0.20942875530E+03  0.00000000000E+00 0. -1.
         23    2    1    2    0    0 -0.32434761319E+02 -0.10260566902E+02  0.19747717686E+03  0.22029060782E+03  0.91506412568E+02 0.  0.
         23    2    1    2    0    0  0.20121535920E+02 -0.25305144155E+02 -0.92480577775E+02  0.13294221022E+03  0.89865162678E+02 0.  0.
        -11    1    3    3    0    0 -0.33856594322E+02 -0.41889322810E+02  0.66678765412E+02  0.85714888447E+02  0.00000000000E+00 0. -1.
         11    1    3    3    0    0  0.14218330022E+01  0.31628755909E+02  0.13079841144E+03  0.13457571938E+03  0.00000000000E+00 0.  1.
        -11    1    4    4    0    0 -0.48331879633E+01  0.31196415065E+02 -0.18590213504E+02  0.36635666459E+02  0.00000000000E+00 0.  1.
         11    1    4    4    0    0  0.24954723883E+02 -0.56501559220E+02 -0.73890364271E+02  0.96306543757E+02  0.00000000000E+00 0. -1.
         -3    1    1    2    0  502  0.12313225399E+02  0.35565711057E+02 -0.81159536339E+02  0.89461755301E+02  0.00000000000E+00 0.  1.
<scales pt_clust_5="13000.00000" pt_clust_6="13000.00000" pt_clust_7="13000.00000" pt_clust_8="13000.00000" pt_clust_9="37.63689"></scales>
<clustering>
<clus scale="   37.637">  2  9  1 -1</clus>
<clus scale="   89.865">  7  8 -1 -1</clus>
<clus scale="   91.506">  5  6 -1 -1</clus>
<clus scale="   95.418">  2  7  1 -1</clus>
<clus scale="   37.637">  2  5  1 -1</clus>
</clustering>
</event>
<event>
 9    1  0.1464797E-005  0.1052512E+03  0.7546771E-02  0.1270344E+00
         21   -1    0    0  501  502  0.00000000000E+00  0.00000000000E+00  0.36750521341E+02  0.36750521341E+02  0.00000000000E+00 0. -1.
          1   -1    0    0  502    0 -0.00000000000E+00 -0.00000000000E+00 -0.60395224963E+03  0.60395224963E+03  0.00000000000E+00 0. -1.
         23    2    1    2    0    0  0.13098370906E+02  0.38269122690E+02 -0.31777126986E+03  0.33311514527E+03  0.91383953655E+02 0.  0.
         23    2    1    2    0    0 -0.52582381077E+02 -0.45189736282E+02 -0.23975118140E+03  0.26634965346E+03  0.93029510632E+02 0.  0.
        -11    1    4    4    0    0  0.30237881283E+01 -0.40855831872E+02 -0.34202093841E+02  0.53367832218E+02  0.00000000000E+00 0.  1.
         11    1    4    4    0    0 -0.55606169205E+02 -0.43339044099E+01 -0.20554908756E+03  0.21298182124E+03  0.00000000000E+00 0. -1.
        -13    1    3    3    0    0  0.42857022626E+02  0.36375350603E+02 -0.27674960811E+03  0.28240084297E+03  0.00000000000E+00 0.  1.
         13    1    3    3    0    0 -0.29758651720E+02  0.18937720869E+01 -0.41021661750E+02  0.50714302298E+02  0.00000000000E+00 0. -1.
          1    1    1    2  501    0  0.39484010171E+02  0.69206135918E+01 -0.96792770332E+01  0.41237972253E+02  0.00000000000E+00 0. -1.
<scales pt_clust_5="13000.00000" pt_clust_6="13000.00000" pt_clust_7="13000.00000" pt_clust_8="13000.00000" pt_clust_9="40.08593"></scales>
<clustering>
<clus scale="   40.086">  1  9  2 -1</clus>
<clus scale="   91.384">  7  8 -1 -1</clus>
<clus scale="   93.030">  5  6 -1 -1</clus>
<clus scale="  103.800">  2  7  1 -1</clus>
<clus scale="   40.086">  1  5  2 -1</clus>
</clustering>
</event>
<event>
 9    1  0.1464797E-005  0.3025729E+03  0.7546771E-02  0.1084280E+00
         21   -1    0    0  501  502  0.00000000000E+00  0.00000000000E+00  0.20936813028E+03  0.20936813028E+03  0.00000000000E+00 0. -1.
          3   -1    0    0  502    0 -0.00000000000E+00 -0.00000000000E+00 -0.88710531395E+03  0.88710531395E+03  0.00000000000E+00 0. -1.
         23    2    1    2    0    0  0.17981274630E+03  0.21940272742E+03 -0.67755263234E+03  0.74076083790E+03  0.95806413358E+02 0.  0.
         23    2    1    2    0    0 -0.18280565627E+03 -0.24472362632E+03  0.26487369057E+02  0.31881414066E+03  0.87368840699E+02 0.  0.
        -11    1    3    3    0    0 -0.35075340290E+01  0.46417793256E+02 -0.12672175352E+03  0.13500117459E+03  0.00000000000E+00 0.  1.
         11    1    3    3    0    0  0.18332028033E+03  0.17298493416E+03 -0.55083087882E+03  0.60575966331E+03  0.00000000000E+00 0. -1.
        -11    1    4    4    0    0 -0.41943125906E+02 -0.12823245919E+03  0.11989138747E+02  0.13544935898E+03  0.00000000000E+00 0.  1.
         11    1    4    4    0    0 -0.14086253037E+03 -0.11649116713E+03  0.14498230309E+02  0.18336478169E+03  0.00000000000E+00 0. -1.
          3    1    1    2  501    0  0.29929099687E+01  0.25320898899E+02 -0.26671920389E+02  0.36898465664E+02  0.00000000000E+00 0. -1.
<scales pt_clust_5="13000.00000" pt_clust_6="13000.00000" pt_clust_7="13000.00000" pt_clust_8="13000.00000" pt_clust_9="25.49718"></scales>
<clustering>
<clus scale="   25.497">  1  9  2 -1</clus>
<clus scale="   87.369">  7  8 -1 -1</clus>
<clus scale="   95.806">  5  6 -1 -1</clus>
<clus scale="  300.008">  1  7  2 -1</clus>
<clus scale="   25.497">  1  5  2 -1</clus>
</clustering>
</event>
<event>
 9    1  0.1464797E-005  0.1030081E+03  0.7546771E-02  0.1275226E+00
         21   -1    0    0  501  502  0.00000000000E+00  0.00000000000E+00  0.13390484590E+03  0.13390484590E+03  0.00000000000E+00 0. -1.
          2   -1    0    0  502    0 -0.00000000000E+00 -0.00000000000E+00 -0.15131406731E+03  0.15131406731E+03  0.00000000000E+00 0. -1.
         23    2    1    2    0    0  0.80282252075E+01 -0.42777876078E+02 -0.81038253303E+02  0.13001138961E+03  0.91876895074E+02 0.  0.
         23    2    1    2    0    0 -0.29446491334E+02  0.29333104792E+02  0.20291688726E+02  0.10503154019E+03  0.94299230716E+02 0.  0.
        -11    1    4    4    0    0 -0.44880011342E+02  0.46864571231E+02 -0.11174916985E+02  0.65843619466E+02  0.00000000000E+00 0. -1.
         11    1    4    4    0    0  0.15433520008E+02 -0.17531466439E+02  0.31466605710E+02  0.39187920719E+02  0.00000000000E+00 0.  1.
        -13    1    3    3    0    0 -0.79097757096E+01 -0.69758717507E+02 -0.53043099089E+02  0.87990985794E+02  0.00000000000E+00 0. -1.
         13    1    3    3    0    0  0.15938000917E+02  0.26980841429E+02 -0.27995154213E+02  0.42020403816E+02  0.00000000000E+00 0.  1.
          2    1    1    2  501    0  0.21418266126E+02  0.13444771286E+02  0.43337343166E+02  0.50175983413E+02  0.00000000000E+00 0. -1.
<scales pt_clust_5="13000.00000" pt_clust_6="13000.00000" pt_clust_7="13000.00000" pt_clust_8="13000.00000" pt_clust_9="25.28842"></scales>
<clustering>
<clus scale="   25.288">  1  9  2 -1</clus>
<clus scale="   91.877">  7  8 -1 -1</clus>
<clus scale="   94.299">  5  6 -1 -1</clus>
<clus scale="  100.795">  2  7  1 -1</clus>
<clus scale="   25.288">  1  5  2 -1</clus>
</clustering>
</event>
<event>
 9    1  0.1464797E-005  0.1019578E+03  0.7546771E-02  0.1276978E+00
         -3   -1    0    0    0  501 -0.00000000000E+00  0.00000000000E+00  0.18488380160E+03  0.18488380160E+03  0.00000000000E+00 0.  1.
         21   -1    0    0  501  502  0.00000000000E+00 -0.00000000000E+00 -0.78462864697E+02  0.78462864697E+02  0.00000000000E+00 0. -1.
         23    2    1    2    0    0 -0.87049930352E+01  0.55124663781E+02  0.84157185258E+02  0.13464835145E+03  0.89068744554E+02 0.  0.
         23    2    1    2    0    0 -0.14668331597E+02 -0.39901172139E+02  0.84356046760E+01  0.97564978200E+02  0.87409965422E+02 0.  0.
        -13    1    4    4    0    0  0.23556824311E+02  0.55640905254E+01  0.26098729433E+02  0.35595319257E+02  0.00000000000E+00 0.  1.
         13    1    4    4    0    0 -0.38225155908E+02 -0.45465262664E+02 -0.17663124757E+02  0.61969658943E+02  0.00000000000E+00 0. -1.
        -13    1    3    3    0    0  0.37553840896E+02  0.40389590462E+02  0.33723151990E+02  0.64644110047E+02  0.00000000000E+00 0.  1.
         13    1    3    3    0    0 -0.46258833931E+02  0.14735073319E+02  0.50434033268E+02  0.70004241401E+02  0.00000000000E+00 0. -1.
         -3    1    1    2    0  502  0.23373324633E+02 -0.15223491642E+02  0.13828146964E+02  0.31133336644E+02  0.00000000000E+00 0.  1.
<scales pt_clust_5="13000.00000" pt_clust_6="13000.00000" pt_clust_7="13000.00000" pt_clust_8="13000.00000" pt_clust_9="27.89387"></scales>
<clustering>
<clus scale="   27.894">  2  9  1 -1</clus>
<clus scale="   87.410">  5  6 -1 -1</clus>
<clus scale="   89.069">  7  8 -1 -1</clus>
<clus scale="  100.512">  2  5  1 -1</clus>
<clus scale="   27.894">  2  5  1 -1</clus>
</clustering>
</event>
<event>
 9    1  0.1464797E-005  0.1006372E+03  0.7546771E-02  0.1281964E+00
          1   -1    0    0  502    0 -0.00000000000E+00  0.00000000000E+00  0.49143724006E+02  0.49143724006E+02  0.00000000000E+00 0. -1.
         21   -1    0    0  501  502  0.00000000000E+00 -0.00000000000E+00 -0.24801368161E+03  0.24801368161E+03  0.00000000000E+00 0.  1.
         23    2    1    2    0    0 -0.36937414871E+02 -0.17501542297E+02 -0.66473679672E+02  0.12132901274E+03  0.92904804204E+02 0.  0.
         23    2    1    2    0    0  0.38453745497E+02 -0.24623805639E+01 -0.11613827694E+03  0.15003730777E+03  0.86823617131E+02 0.  0.
        -11    1    3    3    0    0  0.24795904935E+02 -0.14578396186E+02 -0.49479258437E+02  0.57232539280E+02  0.00000000000E+00 0.  1.
         11    1    3    3    0    0 -0.61733319806E+02 -0.29231461109E+01 -0.16994421234E+02  0.64096473464E+02  0.00000000000E+00 0. -1.
        -13    1    4    4    0    0  0.65315790323E+02 -0.86834025393E+01 -0.68860091795E+02  0.95306170772E+02  0.00000000000E+00 0.  1.
         13    1    4    4    0    0 -0.26862044826E+02  0.62210219754E+01 -0.47278185141E+02  0.54731136996E+02  0.00000000000E+00 0. -1.
          1    1    1    2  501    0 -0.15163306260E+01  0.19963922861E+02 -0.16258001001E+02  0.25791085110E+02  0.00000000000E+00 0. -1.
<scales pt_clust_5="13000.00000" pt_clust_6="13000.00000" pt_clust_7="13000.00000" pt_clust_8="13000.00000" pt_clust_9="20.02144"></scales>
<clustering>
<clus scale="   20.021">  2  9  1 -1</clus>
<clus scale="   86.824">  7  8 -1 -1</clus>
<clus scale="   92.905">  5  6 -1 -1</clus>
<clus scale="   95.052">  2  7  1 -1</clus>
<clus scale="   20.021">  2  5  1 -1</clus>
</clustering>
</event>
<event>
 9    1  0.1464797E-005  0.1020630E+03  0.7546771E-02  0.1278687E+00
          1   -1    0    0  502    0 -0.00000000000E+00  0.00000000000E+00  0.19157727976E+03  0.19157727976E+03  0.00000000000E+00 0. -1.
         21   -1    0    0  501  502  0.00000000000E+00 -0.00000000000E+00 -0.82110519614E+02  0.82110519614E+02  0.00000000000E+00 0. -1.
         23    2    1    2    0    0  0.35145708929E+02 -0.33553685770E+02  0.81168830975E+02  0.13530223622E+03  0.96732855431E+02 0.  0.
         23    2    1    2    0    0 -0.17960815837E+02 -0.18452230595E+01  0.32902113047E+02  0.98767362712E+02  0.91358891961E+02 0.  0.
        -11    1    4    4    0    0 -0.47002578260E+02 -0.24519799433E+02  0.64382392312E+01  0.53403313116E+02  0.00000000000E+00 0.  1.
         11    1    4    4    0    0  0.29041762423E+02  0.22674576374E+02  0.26463873816E+02  0.45364049596E+02  0.00000000000E+00 0. -1.
        -13    1    3    3    0    0  0.73168554238E+01 -0.58851594323E+02  0.18337293261E+02  0.62074977663E+02  0.00000000000E+00 0. -1.
         13    1    3    3    0    0  0.27828853505E+02  0.25297908553E+02  0.62831537714E+02  0.73227258559E+02  0.00000000000E+00 0.  1.
          1    1    1    2  501    0 -0.17184893092E+02  0.35398908830E+02 -0.46041838780E+01  0.39618200440E+02  0.00000000000E+00 0. -1.
<scales pt_clust_5="13000.00000" pt_clust_6="13000.00000" pt_clust_7="13000.00000" pt_clust_8="13000.00000" pt_clust_9="39.34976"></scales>
<clustering>
<clus scale="   39.350">  2  9  1 -1</clus>
<clus scale="   91.359">  5  6 -1 -1</clus>
<clus scale="   96.733">  7  8 -1 -1</clus>
<clus scale="   96.985">  2  5  1 -1</clus>
<clus scale="   39.350">  2  5  1 -1</clus>
</clustering>
</event>
<event>
 9    1  0.1464797E-005  0.9946872E+02  0.7546771E-02  0.1282288E+00
          2   -1    0    0  502    0 -0.00000000000E+00  0.00000000000E+00  0.27938311232E+03  0.27938311232E+03  0.00000000000E+00 0. -1.
         21   -1    0    0  501  502  0.00000000000E+00 -0.00000000000E+00 -0.13005320405E+03  0.13005320405E+03  0.00000000000E+00 0.  1.
         23    2    1    2    0    0 -0.23345062414E+02 -0.30232158574E+02  0.19997171094E+03  0.22302596634E+03  0.91065477175E+02 0.  0.
         23    2    1    2    0    0  0.47879597792E+02  0.19261686817E+02  0.25020817018E+02  0.10611634842E+03  0.89281407097E+02 0.  0.
        -13    1    3    3    0    0 -0.53724388556E+02 -0.72533257250E+01  0.15434730813E+03  0.16359099054E+03  0.00000000000E+00 0. -1.
         13    1    3    3    0    0  0.30379326142E+02 -0.22978832849E+02  0.45624402816E+02  0.59434975799E+02  0.00000000000E+00 0.  1.
        -13    1    4    4    0    0  0.64751303457E+02  0.32056080893E+02 -0.13903624765E+01  0.72265183383E+02  0.00000000000E+00 0.  1.
         13    1    4    4    0    0 -0.16871705665E+02 -0.12794394076E+02  0.26411179494E+02  0.33851165033E+02  0.00000000000E+00 0. -1.
          2    1    1    2  501    0 -0.24534535378E+02  0.10970471757E+02 -0.75662619692E+02  0.80294001615E+02  0.00000000000E+00 0. -1.
<scales pt_clust_5="13000.00000" pt_clust_6="13000.00000" pt_clust_7="13000.00000" pt_clust_8="13000.00000" pt_clust_9="26.87554"></scales>
<clustering>
<clus scale="   26.876">  2  9  1 -1</clus>
<clus scale="   89.281">  7  8 -1 -1</clus>
<clus scale="   91.065">  5  6 -1 -1</clus>
<clus scale="   97.838">  2  7  1 -1</clus>
<clus scale="   26.876">  2  5  1 -1</clus>
</clustering>
</event>
<event>
 9    1  0.1907408E-005  0.1041936E+03  0.7546771E-02  0.1281506E+00
         -1   -1    0    0    0  501 -0.00000000000E+00  0.00000000000E+00  0.27948453617E+03  0.27948453617E+03  0.00000000000E+00 0.  1.
         21   -1    0    0  501  502  0.00000000000E+00 -0.00000000000E+00 -0.19500365474E+03  0.19500365474E+03  0.00000000000E+00 0. -1.
         23    2    1    2    0    0  0.40399979147E+01  0.21505533265E+01  0.17689171552E+03  0.20502352206E+03  0.10355201164E+03 0.  0.
         23    2    1    2    0    0 -0.86409474323E+02 -0.19432079616E+02 -0.12839336206E+03  0.17793257550E+03  0.85620926358E+02 0.  0.
        -11    1    3    3    0    0  0.25520651071E+02 -0.41976886937E+02  0.12128486309E+03  0.13085633604E+03  0.00000000000E+00 0.  1.
         11    1    3    3    0    0 -0.21480653156E+02  0.44127440263E+02  0.55606852428E+02  0.74167186013E+02  0.00000000000E+00 0. -1.
        -13    1    4    4    0    0 -0.18132865543E+01 -0.33856518266E+02 -0.56906583048E+02  0.66241309101E+02  0.00000000000E+00 0.  1.
         13    1    4    4    0    0 -0.84596187769E+02  0.14424438650E+02 -0.71486779017E+02  0.11169126640E+03  0.00000000000E+00 0. -1.
         -1    1    1    2    0  502  0.82369476408E+02  0.17281526289E+02  0.35982527974E+02  0.91532093356E+02  0.00000000000E+00 0.  1.
<scales pt_clust_5="13000.00000" pt_clust_6="13000.00000" pt_clust_7="13000.00000" pt_clust_8="13000.00000" pt_clust_9="84.16287"></scales>
<clustering>
<clus scale="   84.163">  2  9  1 -1</clus>
<clus scale="   85.621">  7  8 -1 -1</clus>
<clus scale="   86.396">  2  7  1 -1</clus>
<clus scale="  103.552">  5  6 -1 -1</clus>
<clus scale="   84.163">  2  5  1 -1</clus>
</clustering>
</event>
<event>
 9    1  0.2053054E-005  0.1282795E+03  0.7546771E-02  0.1245355E+00
          1   -1    0    0  502    0 -0.00000000000E+00  0.00000000000E+00  0.21827176664E+03  0.21827176664E+03  0.00000000000E+00 0. -1.
         21   -1    0    0  501  502  0.00000000000E+00 -0.00000000000E+00 -0.20814642214E+03  0.20814642214E+03  0.00000000000E+00 0.  1.
         23    2    1    2    0    0 -0.14780756088E+02  0.31049978499E+01  0.14666558758E+03  0.17405024832E+03  0.92490986570E+02 0.  0.
         23    2    1    2    0    0  0.22187812364E+02  0.63027161875E+02 -0.77019627489E+02  0.16308731147E+03  0.12728207255E+03 0.  0.
        -11    1    3    3    0    0 -0.10938913501E+02  0.43592866857E+02  0.11174744564E+03  0.12044704013E+03  0.00000000000E+00 0.  1.
         11    1    3    3    0    0 -0.38418425865E+01 -0.40487869007E+02  0.34918141940E+02  0.53603208185E+02  0.00000000000E+00 0. -1.
        -13    1    4    4    0    0 -0.25839430474E+02  0.57766987226E+02 -0.92745167328E+02  0.11227807909E+03  0.00000000000E+00 0.  1.
         13    1    4    4    0    0  0.48027242838E+02  0.52601746487E+01  0.15725539840E+02  0.50809232382E+02  0.00000000000E+00 0. -1.
          1    1    1    2  501    0 -0.74070562766E+01 -0.66132159725E+02 -0.59520615596E+02  0.89280628993E+02  0.00000000000E+00 0. -1.
<scales pt_clust_5="13000.00000" pt_clust_6="13000.00000" pt_clust_7="13000.00000" pt_clust_8="13000.00000" pt_clust_9="66.54568"></scales>
<clustering>
<clus scale="   66.546">  2  9  1 -1</clus>
<clus scale="   92.491">  5  6 -1 -1</clus>
<clus scale="   93.859">  1  5  2 -1</clus>
<clus scale="  127.282">  7  8 -1 -1</clus>
<clus scale="   66.546">  2  5  1 -1</clus>
</clustering>
</event>
<event>
 9    1  0.1464797E-005  0.1608545E+03  0.7546771E-02  0.1200972E+00
         21   -1    0    0  501  502  0.00000000000E+00  0.00000000000E+00  0.60387222332E+02  0.60387222332E+02  0.00000000000E+00 0.  1.
         -1   -1    0    0    0  501 -0.00000000000E+00 -0.00000000000E+00 -0.83746459191E+03  0.83746459191E+03  0.00000000000E+00 0.  1.
         23    2    1    2    0    0 -0.19556882425E+01 -0.78558340686E+02 -0.33362003125E+03  0.35465629855E+03  0.91123692020E+02 0.  0.
         23    2    1    2    0    0  0.10044803669E+03 -0.19339138748E+02 -0.34243582973E+03  0.37146897615E+03  0.10130692175E+03 0.  0.
        -11    1    3    3    0    0 -0.40195509683E+02 -0.13363710349E+02 -0.15544631168E+03  0.16111431832E+03  0.00000000000E+00 0. -1.
         11    1    3    3    0    0  0.38239821441E+02 -0.65194630337E+02 -0.17817371957E+03  0.19354198024E+03  0.00000000000E+00 0.  1.
        -13    1    4    4    0    0  0.11258121203E+03 -0.39363213743E+02 -0.26567264147E+03  0.29121460184E+03  0.00000000000E+00 0.  1.
         13    1    4    4    0    0 -0.12133175344E+02  0.20024074995E+02 -0.76763188265E+02  0.80254374310E+02  0.00000000000E+00 0. -1.
         -1    1    1    2    0  502 -0.98492348448E+02  0.97897479434E+02 -0.10102150860E+03  0.17172653954E+03  0.00000000000E+00 0.  1.
<scales pt_clust_5="13000.00000" pt_clust_6="13000.00000" pt_clust_7="13000.00000" pt_clust_8="13000.00000" pt_clust_9="124.94428"></scales>
<clustering>
<clus scale="   91.124">  5  6 -1 -1</clus>
<clus scale="  101.307">  7  8 -1 -1</clus>
<clus scale="  120.328">  2  5  1 -1</clus>
<clus scale="  124.944">  1  9  2 -1</clus>
<clus scale="  124.944">  1  5  2 -1</clus>
</clustering>
</event>
<event>
 9    1  0.1464797E-005  0.9017489E+02  0.7546771E-02  0.1302817E+00
         21   -1    0    0  501  502  0.00000000000E+00  0.00000000000E+00  0.36830760438E+02  0.36830760438E+02  0.00000000000E+00 0. -1.
          1   -1    0    0  502    0 -0.00000000000E+00 -0.00000000000E+00 -0.67042735270E+03  0.67042735270E+03  0.00000000000E+00 0. -1.
         23    2    1    2    0    0  0.17579518960E+02  0.11814618392E+02 -0.47309451540E+03  0.48183081586E+03  0.88847565594E+02 0.  0.
         23    2    1    2    0    0  0.21110421950E+01 -0.56145501307E+01 -0.17775478952E+03  0.19852348455E+03  0.88197670305E+02 0.  0.
        -11    1    4    4    0    0 -0.35580470704E+02  0.13222183037E+02 -0.43108825288E+02  0.57438374259E+02  0.00000000000E+00 0.  1.
         11    1    4    4    0    0  0.37691512899E+02 -0.18836733167E+02 -0.13464596424E+03  0.14108511029E+03  0.00000000000E+00 0. -1.
        -13    1    3    3    0    0  0.44042525055E+02 -0.20325585450E+02 -0.29290015557E+03  0.29688949893E+03  0.00000000000E+00 0. -1.
         13    1    3    3    0    0 -0.26463006095E+02  0.32140203842E+02 -0.18019435983E+03  0.18494131693E+03  0.00000000000E+00 0.  1.
          1    1    1    2  501    0 -0.19690561155E+02 -0.62000682613E+01  0.17252712665E+02  0.26903812729E+02  0.00000000000E+00 0. -1.
<scales pt_clust_5="13000.00000" pt_clust_6="13000.00000" pt_clust_7="13000.00000" pt_clust_8="13000.00000" pt_clust_9="20.64362"></scales>
<clustering>
<clus scale="   20.644">  1  9  2 -1</clus>
<clus scale="   88.198">  5  6 -1 -1</clus>
<clus scale="   88.848">  7  8 -1 -1</clus>
<clus scale="   89.535">  1  5  2 -1</clus>
<clus scale="   20.644">  1  5  2 -1</clus>
</clustering>
</event>
<event>
 9    1  0.1464797E-005  0.1789337E+03  0.7546771E-02  0.1169184E+00
         21   -1    0    0  501  502  0.00000000000E+00  0.00000000000E+00  0.17999725976E+03  0.17999725976E+03  0.00000000000E+00 0. -1.
          1   -1    0    0  502    0 -0.00000000000E+00 -0.00000000000E+00 -0.31457735324E+03  0.31457735324E+03  0.00000000000E+00 0. -1.
         23    2    1    2    0    0  0.10727450941E+03  0.10162688796E+03 -0.15118434637E+03  0.23058326346E+03  0.92065683474E+02 0.  0.
         23    2    1    2    0    0 -0.13868327354E+03 -0.90620441096E+02 -0.45419201281E+02  0.19360270554E+03  0.89297195058E+02 0.  0.
        -11    1    4    4    0    0 -0.75702318891E+02 -0.77526358597E+02  0.98354319374E+01  0.10880217408E+03  0.00000000000E+00 0.  1.
         11    1    4    4    0    0 -0.62980954644E+02 -0.13094082499E+02 -0.55254633218E+02  0.84800531463E+02  0.00000000000E+00 0. -1.
        -13    1    3    3    0    0  0.34029820677E+02  0.59109319437E+02 -0.14408955672E+02  0.69710532513E+02  0.00000000000E+00 0.  1.
         13    1    3    3    0    0  0.73244688735E+02  0.42517568527E+02 -0.13677539070E+03  0.16087273095E+03  0.00000000000E+00 0. -1.
          1    1    1    2  501    0  0.31408764123E+02 -0.11006446868E+02  0.62023454177E+02  0.70388644002E+02  0.00000000000E+00 0. -1.
<scales pt_clust_5="13000.00000" pt_clust_6="13000.00000" pt_clust_7="13000.00000" pt_clust_8="13000.00000" pt_clust_9="33.28141"></scales>
<clustering>
<clus scale="   33.281">  1  9  2 -1</clus>
<clus scale="   89.297">  5  6 -1 -1</clus>
<clus scale="   92.066">  7  8 -1 -1</clus>
<clus scale="  177.525">  1  5  2 -1</clus>
<clus scale="   33.281">  1  5  2 -1</clus>
</clustering>
</event>
<event>
 9    1  0.1464797E-005  0.1099412E+03  0.7546771E-02  0.1261954E+00
         21   -1    0    0  501  502  0.00000000000E+00  0.00000000000E+00  0.48385264707E+03  0.48385264707E+03  0.00000000000E+00 0. -1.
          1   -1    0    0  502    0 -0.00000000000E+00 -0.00000000000E+00 -0.92704135713E+02  0.92704135713E+02  0.00000000000E+00 0. -1.
         23    2    1    2    0    0  0.23289498430E+02 -0.45784419998E+02 -0.21602193141E+02  0.10385909883E+03  0.87643846390E+02 0.  0.
         23    2    1    2    0    0 -0.47543760389E+02  0.10588578713E+03  0.18880961795E+03  0.23956670403E+03  0.90944624807E+02 0.  0.
        -11    1    3    3    0    0  0.27988610028E+02  0.45383823558E+01  0.22954696282E+02  0.36481190868E+02  0.00000000000E+00 0.  1.
         11    1    3    3    0    0 -0.46991115983E+01 -0.50322802354E+02 -0.44556889424E+02  0.67377907965E+02  0.00000000000E+00 0. -1.
        -13    1    4    4    0    0  0.74217884228E+01  0.53087162132E+02  0.25525571490E+02  0.59370737965E+02  0.00000000000E+00 0. -1.
         13    1    4    4    0    0 -0.54965548812E+02  0.52798624997E+02  0.16328404646E+03  0.18019596606E+03  0.00000000000E+00 0.  1.
          1    1    1    2  501    0  0.24254261960E+02 -0.60101367131E+02  0.22394108655E+03  0.23313097992E+03  0.00000000000E+00 0. -1.
<scales pt_clust_5="13000.00000" pt_clust_6="13000.00000" pt_clust_7="13000.00000" pt_clust_8="13000.00000" pt_clust_9="64.81083"></scales>
<clustering>
<clus scale="   64.811">  1  9  2 -1</clus>
<clus scale="   87.644">  5  6 -1 -1</clus>
<clus scale="   90.945">  7  8 -1 -1</clus>
<clus scale="  107.227">  2  5  1 -1</clus>
<clus scale="   64.811">  1  5  2 -1</clus>
</clustering>
</event>
<event>
 9    1  0.1464797E-005  0.1164748E+03  0.7546771E-02  0.1249389E+00
         21   -1    0    0  501  502  0.00000000000E+00  0.00000000000E+00  0.99181142666E+02  0.99181142666E+02  0.00000000000E+00 0. -1.
          1   -1    0    0  502    0 -0.00000000000E+00 -0.00000000000E+00 -0.46131666547E+03  0.46131666547E+03  0.00000000000E+00 0. -1.
         23    2    1    2    0    0 -0.11431845577E+02 -0.81700776441E+02 -0.36699490421E+03  0.38739752888E+03  0.92660032931E+02 0.  0.
         23    2    1    2    0    0 -0.17534835660E+02  0.31175943109E+02 -0.32891183091E+02  0.10369615456E+03  0.91605964083E+02 0.  0.
        -13    1    4    4    0    0 -0.24448730667E+02 -0.28334607567E+02 -0.19925824129E+02  0.42398453798E+02  0.00000000000E+00 0.  1.
         13    1    4    4    0    0  0.69138950066E+01  0.59510550677E+02 -0.12965358962E+02  0.61297700765E+02  0.00000000000E+00 0. -1.
        -13    1    3    3    0    0  0.24984091776E+02 -0.11499141874E+01 -0.30288266710E+02  0.39279845275E+02  0.00000000000E+00 0.  1.
         13    1    3    3    0    0 -0.36415937353E+02 -0.80550862254E+02 -0.33670663750E+03  0.34811768360E+03  0.00000000000E+00 0. -1.
          1    1    1    2  501    0  0.28966681237E+02  0.50524833332E+02  0.37750564494E+02  0.69404124696E+02  0.00000000000E+00 0. -1.
<scales pt_clust_5="13000.00000" pt_clust_6="13000.00000" pt_clust_7="13000.00000" pt_clust_8="13000.00000" pt_clust_9="58.23940"></scales>
<clustering>
<clus scale="   58.239">  1  9  2 -1</clus>
<clus scale="   91.606">  5  6 -1 -1</clus>
<clus scale="   92.660">  7  8 -1 -1</clus>
<clus scale="  115.638">  1  5  2 -1</clus>
<clus scale="   58.239">  1  5  2 -1</clus>
</clustering>
</event>
<event>
 9    1  0.1464797E-005  0.1076322E+03  0.7546771E-02  0.1267300E+00
         21   -1    0    0  501  502  0.00000000000E+00  0.00000000000E+00  0.14546828679E+03  0.14546828679E+03  0.00000000000E+00 0.  1.
         -4   -1    0    0    0  501 -0.00000000000E+00 -0.00000000000E+00 -0.13054596338E+03  0.13054596338E+03  0.00000000000E+00 0.  1.
         23    2    1    2    0    0 -0.78121732223E+02 -0.10344747216E+02 -0.32601139240E+02  0.12066442750E+03  0.85364225199E+02 0.  0.
         23    2    1    2    0    0  0.29391025820E+02  0.80886747746E+01  0.15938551319E+02  0.97234607514E+02  0.90946536063E+02 0.  0.
        -13    1    3    3    0    0 -0.46578447879E+02 -0.19434689562E+02 -0.59644458714E+02  0.78132710310E+02  0.00000000000E+00 0.  1.
         13    1    3    3    0    0 -0.31543284344E+02  0.90899423453E+01  0.27043319473E+02  0.42531717191E+02  0.00000000000E+00 0. -1.
        -13    1    4    4    0    0  0.46683567708E+02 -0.25866680247E+02 -0.52608027873E+01  0.53629438622E+02  0.00000000000E+00 0.  1.
         13    1    4    4    0    0 -0.17292541888E+02  0.33955355022E+02  0.21199354107E+02  0.43605168892E+02  0.00000000000E+00 0. -1.
         -4    1    1    2    0  502  0.48730706403E+02  0.22560724416E+01  0.31584911324E+02  0.58115215157E+02  0.00000000000E+00 0.  1.
<scales pt_clust_5="13000.00000" pt_clust_6="13000.00000" pt_clust_7="13000.00000" pt_clust_8="13000.00000" pt_clust_9="48.78290"></scales>
<clustering>
<clus scale="   48.783">  1  9  2 -1</clus>
<clus scale="   85.364">  5  6 -1 -1</clus>
<clus scale="   90.947">  7  8 -1 -1</clus>
<clus scale="  102.959">  2  5  1 -1</clus>
<clus scale="   48.783">  1  5  2 -1</clus>
</clustering>
</event>
<event>
 9    1  0.1464797E-005  0.1139290E+03  0.7546771E-02  0.1256548E+00
         -1   -1    0    0    0  501 -0.00000000000E+00  0.00000000000E+00  0.29365401272E+02  0.29365401272E+02  0.00000000000E+00 0.  1.
         21   -1    0    0  501  502  0.00000000000E+00 -0.00000000000E+00 -0.84668412819E+03  0.84668412819E+03  0.00000000000E+00 0. -1.
         23    2    1    2    0    0  0.87953230796E+01  0.53651716084E+02 -0.10544559477E+03  0.14929587189E+03  0.90634538446E+02 0.  0.
         23    2    1    2    0    0  0.70051165481E+01 -0.71766542027E+02 -0.58096774323E+03  0.59365962443E+03  0.98532851324E+02 0.  0.
        -11    1    3    3    0    0 -0.31039805081E+02  0.14543211797E-01 -0.96543665738E+01  0.32506560952E+02  0.00000000000E+00 0.  1.
         11    1    3    3    0    0  0.39835128161E+02  0.53637172872E+02 -0.95791228196E+02  0.11678931093E+03  0.00000000000E+00 0. -1.
        -13    1    4    4    0    0  0.10141331690E+02 -0.96258772075E+02 -0.48517289782E+03  0.49473360366E+03  0.00000000000E+00 0. -1.
         13    1    4    4    0    0 -0.31362151415E+01  0.24492230049E+02 -0.95794845405E+02  0.98926020765E+02  0.00000000000E+00 0.  1.
         -1    1    1    2    0  502 -0.15800439628E+02  0.18114825943E+02 -0.13090538892E+03  0.13309403315E+03  0.00000000000E+00 0.  1.
<scales pt_clust_5="13000.00000" pt_clust_6="13000.00000" pt_clust_7="13000.00000" pt_clust_8="13000.00000" pt_clust_9="24.03749"></scales>
<clustering>
<clus scale="   24.037">  2  9  1 -1</clus>
<clus scale="   90.635">  5  6 -1 -1</clus>
<clus scale="   98.533">  7  8 -1 -1</clus>
<clus scale="  107.171">  1  5  2 -1</clus>
<clus scale="   24.037">  2  5  1 -1</clus>
</clustering>
</event>
<event>
 9    1  0.1464797E-005  0.1065653E+03  0.7546771E-02  0.1267453E+00
         21   -1    0    0  501  502  0.00000000000E+00  0.00000000000E+00  0.15106104133E+03  0.15106104133E+03  0.00000000000E+00 0.  1.
          4   -1    0    0  502    0 -0.00000000000E+00 -0.00000000000E+00 -0.21579992964E+03  0.21579992964E+03  0.00000000000E+00 0. -1.
         23    2    1    2    0    0  0.26079451364E+02  0.56946817260E+02 -0.13700487676E+03  0.17692463268E+03  0.92784220717E+02 0.  0.
         23    2    1    2    0    0 -0.47976482069E+02  0.45957485141E+01  0.18596983714E+02  0.10539445857E+03  0.91865555880E+02 0.  0.
        -13    1    3    3    0    0  0.14361417401E+02 -0.23699984485E+02 -0.19334591111E+02  0.33790027934E+02  0.00000000000E+00 0.  1.
         13    1    3    3    0    0  0.11718033964E+02  0.80646801745E+02 -0.11767028565E+03  0.14313460475E+03  0.00000000000E+00 0. -1.
        -13    1    4    4    0    0 -0.31766867247E+02 -0.34089821293E+02  0.37088375217E+02  0.59554994306E+02  0.00000000000E+00 0.  1.
         13    1    4    4    0    0 -0.16209614822E+02  0.38685569807E+02 -0.18491391504E+02  0.45839464261E+02  0.00000000000E+00 0. -1.
          4    1    1    2  501    0  0.21897030705E+02 -0.61542565774E+02  0.53669004742E+02  0.84541879715E+02  0.00000000000E+00 0. -1.
<scales pt_clust_5="13000.00000" pt_clust_6="13000.00000" pt_clust_7="13000.00000" pt_clust_8="13000.00000" pt_clust_9="65.32203"></scales>
<clustering>
<clus scale="   65.322">  1  9  2 -1</clus>
<clus scale="   91.866">  7  8 -1 -1</clus>
<clus scale="   92.784">  5  6 -1 -1</clus>
<clus scale="  105.766">  1  7  2 -1</clus>
<clus scale="   65.322">  1  5  2 -1</clus>
</clustering>
</event>
<event>
 9    1  0.1464797E-005  0.1488311E+03  0.7546771E-02  0.1203300E+00
          4   -1    0    0  502    0 -0.00000000000E+00  0.00000000000E+00  0.15072436622E+03  0.15072436622E+03  0.00000000000E+00 0. -1.
         21   -1    0    0  501  502  0.00000000000E+00 -0.00000000000E+00 -0.20315446823E+03  0.20315446823E+03  0.00000000000E+00 0. -1.
         23    2    1    2    0    0  0.11522727486E+03  0.45613593768E+02  0.25714233470E+02  0.15652786156E+03  0.92096823144E+02 0.  0.
         23    2    1    2    0    0 -0.73818615212E+02 -0.59586545993E+02 -0.52703735385E+02  0.14678275539E+03  0.98831923688E+02 0.  0.
        -13    1    4    4    0    0  0.45324005994E+00 -0.62653414790E+02 -0.24684568007E+02  0.67342287674E+02  0.00000000000E+00 0. -1.
         13    1    4    4    0    0 -0.74271855272E+02  0.30668687970E+01 -0.28019167378E+02  0.79440467712E+02  0.00000000000E+00 0.  1.
        -13    1    3    3    0    0 -0.46488970650E+00  0.35671519580E+02 -0.59549685824E+01  0.36168150110E+02  0.00000000000E+00 0.  1.
         13    1    3    3    0    0  0.11569216457E+03  0.99420741883E+01  0.31669202053E+02  0.12035971145E+03  0.00000000000E+00 0. -1.
          4    1    1    2  501    0 -0.41408659650E+02  0.13972952225E+02 -0.25440600093E+02  0.50568217499E+02  0.00000000000E+00 0. -1.
<scales pt_clust_5="13000.00000" pt_clust_6="13000.00000" pt_clust_7="13000.00000" pt_clust_8="13000.00000" pt_clust_9="43.70264"></scales>
<clustering>
<clus scale="   43.703">  2  9  1 -1</clus>
<clus scale="   92.097">  7  8 -1 -1</clus>
<clus scale="   98.832">  5  6 -1 -1</clus>
<clus scale="  144.446">  1  7  2 -1</clus>
<clus scale="   43.703">  2  5  1 -1</clus>
</clustering>
</event>
<event>
 9    1  0.1464797E-005  0.9305680E+02  0.7546771E-02  0.1296851E+00
          3   -1    0    0  502    0 -0.00000000000E+00  0.00000000000E+00  0.15213330188E+03  0.15213330188E+03  0.00000000000E+00 0. -1.
         21   -1    0    0  501  502  0.00000000000E+00 -0.00000000000E+00 -0.15223373032E+03  0.15223373032E+03  0.00000000000E+00 0. -1.
         23    2    1    2    0    0 -0.15980222719E+02 -0.17091065211E+02  0.83059047108E+02  0.12472779894E+03  0.90059682956E+02 0.  0.
         23    2    1    2    0    0  0.39610481829E+02 -0.10436510094E+02 -0.10031285250E+03  0.13950950751E+03  0.87876750605E+02 0.  0.
        -11    1    4    4    0    0  0.23580717886E+02  0.37816681456E+02 -0.59326455704E+02  0.74200943382E+02  0.00000000000E+00 0.  1.
         11    1    4    4    0    0  0.16029763942E+02 -0.48253191550E+02 -0.40986396794E+02  0.65308564132E+02  0.00000000000E+00 0. -1.
        -13    1    3    3    0    0 -0.29609198206E+02 -0.45879115535E+02  0.28605720348E+02  0.61643208038E+02  0.00000000000E+00 0. -1.
         13    1    3    3    0    0  0.13628975487E+02  0.28788050323E+02  0.54453326760E+02  0.63084590904E+02  0.00000000000E+00 0.  1.
          3    1    1    2  501    0 -0.23630259109E+02  0.27527575305E+02  0.17153376954E+02  0.40129725748E+02  0.00000000000E+00 0. -1.
<scales pt_clust_5="13000.00000" pt_clust_6="13000.00000" pt_clust_7="13000.00000" pt_clust_8="13000.00000" pt_clust_9="36.27889"></scales>
<clustering>
<clus scale="   36.279">  2  9  1 -1</clus>
<clus scale="   87.877">  5  6 -1 -1</clus>
<clus scale="   90.060">  7  8 -1 -1</clus>
<clus scale="   90.946">  2  5  1 -1</clus>
<clus scale="   36.279">  2  5  1 -1</clus>
</clustering>
</event>
<event>
 9    1  0.1464797E-005  0.1175071E+03  0.7546771E-02  0.1247422E+00
          2   -1    0    0  502    0 -0.00000000000E+00  0.00000000000E+00  0.39312003286E+03  0.39312003286E+03  0.00000000000E+00 0. -1.
         21   -1    0    0  501  502  0.00000000000E+00 -0.00000000000E+00 -0.61281193498E+03  0.61281193498E+03  0.00000000000E+00 0. -1.
         23    2    1    2    0    0 -0.57561522552E+02 -0.30724307525E+02  0.25584096152E+03  0.27885775411E+03  0.89720329273E+02 0.  0.
         23    2    1    2    0    0  0.14841847059E+03 -0.84353277191E+01  0.59238086144E+02  0.18322825138E+03  0.89242613643E+02 0.  0.
        -11    1    3    3    0    0  0.20439469428E+02 -0.21204299664E+02  0.10117968793E+03  0.10537895181E+03  0.00000000000E+00 0.  1.
         11    1    3    3    0    0 -0.78000991980E+02 -0.95200078610E+01  0.15466127358E+03  0.17347880229E+03  0.00000000000E+00 0. -1.
        -13    1    4    4    0    0  0.41073964086E+02  0.27318780985E+02  0.49152386939E+02  0.69637227559E+02  0.00000000000E+00 0.  1.
         13    1    4    4    0    0  0.10734450650E+03 -0.35754108704E+02  0.10085699205E+02  0.11359102382E+03  0.00000000000E+00 0. -1.
          2    1    1    2  501    0 -0.90856948033E+02  0.39159635244E+02 -0.53477094977E+03  0.54384596235E+03  0.00000000000E+00 0. -1.
<scales pt_clust_5="13000.00000" pt_clust_6="13000.00000" pt_clust_7="13000.00000" pt_clust_8="13000.00000" pt_clust_9="98.93666"></scales>
<clustering>
<clus scale="   89.243">  7  8 -1 -1</clus>
<clus scale="   89.720">  5  6 -1 -1</clus>
<clus scale="   98.937">  2  9  1 -1</clus>
<clus scale="  117.143">  2  7  1 -1</clus>
<clus scale="   98.937">  2  5  1 -1</clus>
</clustering>
</event>
<event>
 9    1  0.1464797E-005  0.1275671E+03  0.7546771E-02  0.1231900E+00
         21   -1    0    0  501  502  0.00000000000E+00  0.00000000000E+00  0.17383762087E+03  0.17383762087E+03  0.00000000000E+00 0. -1.
          1   -1    0    0  502    0 -0.00000000000E+00 -0.00000000000E+00 -0.20339652813E+03  0.20339652813E+03  0.00000000000E+00 0. -1.
         23    2    1    2    0    0 -0.55580925305E+02  0.78036922086E+02 -0.69179042838E+02  0.14697926283E+03  0.87396586139E+02 0.  0.
         23    2    1    2    0    0  0.33632184951E+02 -0.78173551474E+02 -0.53092738885E+02  0.13497927040E+03  0.90323510227E+02 0.  0.
        -11    1    3    3    0    0 -0.65659681058E+01  0.36614308362E+02  0.15864064764E+02  0.40439931563E+02  0.00000000000E+00 0.  1.
         11    1    3    3    0    0 -0.49014957199E+02  0.41422613725E+02 -0.85043107602E+02  0.10653933127E+03  0.00000000000E+00 0. -1.
        -13    1    4    4    0    0  0.64045455098E+02 -0.56476491765E+02 -0.45862178654E+02  0.96926538531E+02  0.00000000000E+00 0.  1.
         13    1    4    4    0    0 -0.30413270147E+02 -0.21697059709E+02 -0.72305602308E+01  0.38052731864E+02  0.00000000000E+00 0. -1.
          1    1    1    2  501    0  0.21948740354E+02  0.13662938822E+00  0.92712874463E+02  0.95275615778E+02  0.00000000000E+00 0. -1.
<scales pt_clust_5="13000.00000" pt_clust_6="13000.00000" pt_clust_7="13000.00000" pt_clust_8="13000.00000" pt_clust_9="21.94917"></scales>
<clustering>
<clus scale="   21.949">  1  9  2 -1</clus>
<clus scale="   87.397">  5  6 -1 -1</clus>
<clus scale="   90.324">  7  8 -1 -1</clus>
<clus scale="  125.512">  2  5  1 -1</clus>
<clus scale="   21.949">  1  5  2 -1</clus>
</clustering>
</event>
<event>
 9    1  0.1464797E-005  0.9957593E+02  0.7546771E-02  0.1282790E+00
          3   -1    0    0  502    0 -0.00000000000E+00  0.00000000000E+00  0.15873533451E+03  0.15873533451E+03  0.00000000000E+00 0. -1.
         21   -1    0    0  501  502  0.00000000000E+00 -0.00000000000E+00 -0.14215646856E+03  0.14215646856E+03  0.00000000000E+00 0. -1.
         23    2    1    2    0    0 -0.59751665599E+01  0.41747247819E+02  0.85452927943E+02  0.13339629853E+03  0.93347920445E+02 0.  0.
         23    2    1    2    0    0  0.19655509569E+02 -0.15752048640E+02 -0.10958500390E+01  0.93625428184E+02  0.90166811092E+02 0.  0.
        -11    1    4    4    0    0 -0.35569596136E+02 -0.12079722382E+02 -0.60828703047E+01  0.38054134772E+02  0.00000000000E+00 0.  1.
         11    1    4    4    0    0  0.55225105705E+02 -0.36723262574E+01  0.49870202656E+01  0.55571293412E+02  0.00000000000E+00 0. -1.
        -11    1    3    3    0    0 -0.17386721748E+02 -0.26475597437E+02  0.38213231721E+02  0.49633722723E+02  0.00000000000E+00 0.  1.
         11    1    3    3    0    0  0.11411555188E+02  0.68222845255E+02  0.47239696221E+02  0.83762575806E+02  0.00000000000E+00 0. -1.
          3    1    1    2  501    0 -0.13680343009E+02 -0.25995199179E+02 -0.67778211958E+02  0.73870076360E+02  0.00000000000E+00 0. -1.
<scales pt_clust_5="13000.00000" pt_clust_6="13000.00000" pt_clust_7="13000.00000" pt_clust_8="13000.00000" pt_clust_9="29.37520"></scales>
<clustering>
<clus scale="   29.375">  2  9  1 -1</clus>
<clus scale="   90.167">  5  6 -1 -1</clus>
<clus scale="   93.348">  7  8 -1 -1</clus>
<clus scale="   96.600">  2  5  1 -1</clus>
<clus scale="   29.375">  2  5  1 -1</clus>
</clustering>
</event>
<event>
 9    1  0.1464797E-005  0.1004547E+03  0.7546771E-02  0.1284096E+00
         -3   -1    0    0    0  501 -0.00000000000E+00  0.00000000000E+00  0.35953148459E+02  0.35953148459E+02  0.00000000000E+00 0.  1.
         21   -1    0    0  501  502  0.00000000000E+00 -0.00000000000E+00 -0.52640747302E+03  0.52640747302E+03  0.00000000000E+00 0. -1.
         23    2    1    2    0    0  0.25165386111E+02  0.31171279167E+02 -0.76306701036E+02  0.12636718184E+03  0.92417567164E+02 0.  0.
         23    2    1    2    0    0 -0.49783817531E+02 -0.16815358270E+01 -0.26954967553E+03  0.28637967459E+03  0.82915827131E+02 0.  0.
        -13    1    3    3    0    0  0.16825098780E+02 -0.17252575826E+02 -0.73276016547E+02  0.77136955622E+02  0.00000000000E+00 0. -1.
         13    1    3    3    0    0  0.83402873310E+01  0.48423854993E+02 -0.30306844888E+01  0.49230226219E+02  0.00000000000E+00 0.  1.
        -13    1    4    4    0    0 -0.63879081251E+01  0.27502542999E+02 -0.30036368141E+02  0.41223520625E+02  0.00000000000E+00 0.  1.
         13    1    4    4    0    0 -0.43395909406E+02 -0.29184078826E+02 -0.23951330739E+03  0.24515615396E+03  0.00000000000E+00 0. -1.
         -3    1    1    2    0  502  0.24618431419E+02 -0.29489743340E+02 -0.14459794799E+03  0.14961376504E+03  0.00000000000E+00 0.  1.
<scales pt_clust_5="13000.00000" pt_clust_6="13000.00000" pt_clust_7="13000.00000" pt_clust_8="13000.00000" pt_clust_9="38.41500"></scales>
<clustering>
<clus scale="   38.415">  2  9  1 -1</clus>
<clus scale="   82.916">  7  8 -1 -1</clus>
<clus scale="   91.789">  2  7  1 -1</clus>
<clus scale="   92.418">  5  6 -1 -1</clus>
<clus scale="   38.415">  2  5  1 -1</clus>
</clustering>
</event>
<event>
 9    1  0.1464797E-005  0.1400329E+03  0.7546771E-02  0.1213908E+00
         21   -1    0    0  501  502  0.00000000000E+00  0.00000000000E+00  0.12864486215E+03  0.12864486215E+03  0.00000000000E+00 0. -1.
          1   -1    0    0  502    0 -0.00000000000E+00 -0.00000000000E+00 -0.41521318371E+03  0.41521318371E+03  0.00000000000E+00 0. -1.
         23    2    1    2    0    0  0.11395771489E+03 -0.32457456183E+02 -0.26099958119E+03  0.30128738773E+03  0.92808735478E+02 0.  0.
         23    2    1    2    0    0 -0.86975055089E+02 -0.38782020001E+02 -0.75744112494E+02  0.15135281523E+03  0.90009992879E+02 0.  0.
        -11    1    4    4    0    0  0.41642830968E+01 -0.39431027092E+02 -0.27265233961E+02  0.48120059583E+02  0.00000000000E+00 0.  1.
         11    1    4    4    0    0 -0.91139338186E+02  0.64900709104E+00 -0.48478878533E+02  0.10323275565E+03  0.00000000000E+00 0. -1.
        -11    1    3    3    0    0  0.92725411491E+01 -0.21079094938E+02 -0.37652146943E+01  0.23334204603E+02  0.00000000000E+00 0.  1.
         11    1    3    3    0    0  0.10468517374E+03 -0.11378361245E+02 -0.25723436649E+03  0.27795318313E+03  0.00000000000E+00 0. -1.
          1    1    1    2  501    0 -0.26982659798E+02  0.71239476184E+02  0.50175372121E+02  0.91217842905E+02  0.00000000000E+00 0. -1.
<scales pt_clust_5="13000.00000" pt_clust_6="13000.00000" pt_clust_7="13000.00000" pt_clust_8="13000.00000" pt_clust_9="76.17826"></scales>
<clustering>
<clus scale="   76.178">  1  9  2 -1</clus>
<clus scale="   90.010">  5  6 -1 -1</clus>
<clus scale="   92.809">  7  8 -1 -1</clus>
<clus scale="  138.194">  1  5  2 -1</clus>
<clus scale="   76.178">  1  5  2 -1</clus>
</clustering>
</event>
<event>
 9    1  0.1464797E-005  0.1463866E+03  0.7546771E-02  0.1213604E+00
          2   -1    0    0  502    0 -0.00000000000E+00  0.00000000000E+00  0.41663693462E+03  0.41663693462E+03  0.00000000000E+00 0. -1.
         21   -1    0    0  501  502  0.00000000000E+00 -0.00000000000E+00 -0.11951453713E+03  0.11951453713E+03  0.00000000000E+00 0. -1.
         23    2    1    2    0    0  0.67020040229E+02  0.41090805131E+02  0.65401357847E+02  0.13820526362E+03  0.92968904609E+02 0.  0.
         23    2    1    2    0    0 -0.43315942844E+02  0.85981870139E+02  0.23601179249E+03  0.26861036781E+03  0.84739663687E+02 0.  0.
        -11    1    3    3    0    0 -0.10792759734E+01  0.50794549364E+02  0.15145988461E+02  0.53015583069E+02  0.00000000000E+00 0. -1.
         11    1    3    3    0    0  0.68099316202E+02 -0.97037442333E+01  0.50255369386E+02  0.85189680546E+02  0.00000000000E+00 0.  1.
        -13    1    4    4    0    0 -0.95663605674E+01  0.92963439005E+02  0.16347364013E+03  0.18830121418E+03  0.00000000000E+00 0. -1.
         13    1    4    4    0    0 -0.33749582276E+02 -0.69815688657E+01  0.72538152363E+02  0.80309153625E+02  0.00000000000E+00 0.  1.
          2    1    1    2  501    0 -0.23704097385E+02 -0.12707267527E+03 -0.42907528485E+01  0.12933584033E+03  0.00000000000E+00 0. -1.
<scales pt_clust_5="13000.00000" pt_clust_6="13000.00000" pt_clust_7="13000.00000" pt_clust_8="13000.00000" pt_clust_9="119.36594"></scales>
<clustering>
<clus scale="   84.740">  7  8 -1 -1</clus>
<clus scale="   92.969">  5  6 -1 -1</clus>
<clus scale="  121.751">  1  5  2 -1</clus>
<clus scale="  119.366">  2  9  1 -1</clus>
<clus scale="  119.366">  2  5  1 -1</clus>
</clustering>
</event>
<event>
 9    1  0.1464797E-005  0.1137070E+03  0.7546771E-02  0.1255770E+00
         21   -1    0    0  501  502  0.00000000000E+00  0.00000000000E+00  0.15223940155E+03  0.15223940155E+03  0.00000000000E+00 0. -1.
         -3   -1    0    0    0  501 -0.00000000000E+00 -0.00000000000E+00 -0.17409260316E+03  0.17409260316E+03  0.00000000000E+00 0.  1.
         23    2    1    2    0    0  0.26283727697E+02 -0.46867602861E+02 -0.99226174580E+02  0.14883585765E+03  0.97050874604E+02 0.  0.
         23    2    1    2    0    0 -0.44983369879E+02  0.61794747479E+02  0.28372843201E+02  0.12296625633E+03  0.92052091687E+02 0.  0.
        -13    1    3    3    0    0  0.45820862955E+02 -0.80558510172E+01 -0.72137304129E+01  0.47079572259E+02  0.00000000000E+00 0. -1.
         13    1    3    3    0    0 -0.19537135259E+02 -0.38811751844E+02 -0.92012444167E+02  0.10175628539E+03  0.00000000000E+00 0.  1.
        -13    1    4    4    0    0  0.14844659779E+02  0.20719790471E+02  0.41997871312E+02  0.49127332879E+02  0.00000000000E+00 0. -1.
         13    1    4    4    0    0 -0.59828029658E+02  0.41074957008E+02 -0.13625028111E+02  0.73838923455E+02  0.00000000000E+00 0.  1.
         -3    1    1    2    0  502  0.18699642182E+02 -0.14927144618E+02  0.49000129778E+02  0.54529890725E+02  0.00000000000E+00 0.  1.
<scales pt_clust_5="13000.00000" pt_clust_6="13000.00000" pt_clust_7="13000.00000" pt_clust_8="13000.00000" pt_clust_9="23.92689"></scales>
<clustering>
<clus scale="   23.927">  1  9  2 -1</clus>
<clus scale="   92.052">  7  8 -1 -1</clus>
<clus scale="   97.051">  5  6 -1 -1</clus>
<clus scale="  109.471">  1  7  2 -1</clus>
<clus scale="   23.927">  1  5  2 -1</clus>
</clustering>
</event>
<event>
 9    1  0.1464797E-005  0.1185577E+03  0.7546771E-02  0.1245526E+00
         21   -1    0    0  501  502  0.00000000000E+00  0.00000000000E+00  0.90865231215E+02  0.90865231215E+02  0.00000000000E+00 0.  1.
         -1   -1    0    0    0  501 -0.00000000000E+00 -0.00000000000E+00 -0.20441750320E+03  0.20441750320E+03  0.00000000000E+00 0.  1.
         23    2    1    2    0    0  0.30521470954E+02  0.63800766117E+02 -0.47155521642E+02  0.12463983809E+03  0.91155625560E+02 0.  0.
         23    2    1    2    0    0 -0.48357077963E+01 -0.84055837561E+02 -0.47999142632E+02  0.13311293073E+03  0.91248927311E+02 0.  0.
        -11    1    4    4    0    0 -0.32690687167E+02 -0.58020206463E+02  0.61583254320E+01  0.66880119301E+02  0.00000000000E+00 0.  1.
         11    1    4    4    0    0  0.27854979371E+02 -0.26035631097E+02 -0.54157468064E+02  0.66232811427E+02  0.00000000000E+00 0. -1.
        -13    1    3    3    0    0  0.51890452265E+02  0.64256568499E+02 -0.57754379752E+02  0.10078240924E+03  0.00000000000E+00 0.  1.
         13    1    3    3    0    0 -0.21368981312E+02 -0.45580238194E+00  0.10598858109E+02  0.23857428850E+02  0.00000000000E+00 0. -1.
         -1    1    1    2    0  502 -0.25685763157E+02  0.20255071443E+02 -0.18397607708E+02  0.37529965594E+02  0.00000000000E+00 0.  1.
<scales pt_clust_5="13000.00000" pt_clust_6="13000.00000" pt_clust_7="13000.00000" pt_clust_8="13000.00000" pt_clust_9="32.71127"></scales>
<clustering>
<clus scale="   32.711">  1  9  2 -1</clus>
<clus scale="   91.156">  7  8 -1 -1</clus>
<clus scale="   91.249">  5  6 -1 -1</clus>
<clus scale="  118.486">  2  7  1 -1</clus>
<clus scale="   32.711">  1  5  2 -1</clus>
</clustering>
</event>
<event>
 9    1  0.1464797E-005  0.9385563E+02  0.7546771E-02  0.1294761E+00
          1   -1    0    0  502    0 -0.00000000000E+00  0.00000000000E+00  0.24314964352E+03  0.24314964352E+03  0.00000000000E+00 0. -1.
         21   -1    0    0  501  502  0.00000000000E+00 -0.00000000000E+00 -0.48976566317E+02  0.48976566317E+02  0.00000000000E+00 0.  1.
         23    2    1    2    0    0 -0.51025295225E+01  0.52809599775E+01  0.10406393460E+03  0.13860789585E+03  0.91262927635E+02 0.  0.
         23    2    1    2    0    0  0.21747751567E+02  0.11686912514E+02  0.86691799386E+02  0.12950476889E+03  0.92986388579E+02 0.  0.
        -13    1    4    4    0    0  0.31031448312E+02  0.41876967405E+02  0.82580189281E+02  0.97653053434E+02  0.00000000000E+00 0.  1.
         13    1    4    4    0    0 -0.92836967442E+01 -0.30190054891E+02  0.41116101047E+01  0.31851715452E+02  0.00000000000E+00 0. -1.
        -13    1    3    3    0    0 -0.38953010023E+02  0.25963196322E+02  0.78553628171E+02  0.91444502579E+02  0.00000000000E+00 0. -1.
         13    1    3    3    0    0  0.33850480501E+02 -0.20682236344E+02  0.25510306430E+02  0.47163393267E+02  0.00000000000E+00 0.  1.
          1    1    1    2  501    0 -0.16645222045E+02 -0.16967872491E+02  0.34173432150E+01  0.24013545104E+02  0.00000000000E+00 0. -1.
<scales pt_clust_5="13000.00000" pt_clust_6="13000.00000" pt_clust_7="13000.00000" pt_clust_8="13000.00000" pt_clust_9="23.76914"></scales>
<clustering>
<clus scale="   23.769">  2  9  1 -1</clus>
<clus scale="   91.263">  7  8 -1 -1</clus>
<clus scale="   92.148">  1  7  2 -1</clus>
<clus scale="   92.986">  5  6 -1 -1</clus>
<clus scale="   23.769">  2  5  1 -1</clus>
</clustering>
</event>
<event>
 9    1  0.1464797E-005  0.9803934E+02  0.7546771E-02  0.1290861E+00
         21   -1    0    0  501  502  0.00000000000E+00  0.00000000000E+00  0.22139280047E+03  0.22139280047E+03  0.00000000000E+00 0. -1.
          2   -1    0    0  502    0 -0.00000000000E+00 -0.00000000000E+00 -0.18415904570E+03  0.18415904570E+03  0.00000000000E+00 0. -1.
         23    2    1    2    0    0 -0.22714049718E+02 -0.27211876099E+02 -0.83221902869E+02  0.12974481763E+03  0.93013000856E+02 0.  0.
         23    2    1    2    0    0  0.38706246654E+02 -0.15426394130E+02 -0.46707040802E+02  0.10255247535E+03  0.81236170354E+02 0.  0.
        -11    1    3    3    0    0  0.29111011304E+02 -0.18858138109E+00 -0.60307217170E+02  0.66966013655E+02  0.00000000000E+00 0.  1.
         11    1    3    3    0    0 -0.51825061022E+02 -0.27023294718E+02 -0.22914685699E+02  0.62778803971E+02  0.00000000000E+00 0. -1.
        -13    1    4    4    0    0 -0.54313077044E+01 -0.28240925984E+02 -0.48690858929E+02  0.56549524729E+02  0.00000000000E+00 0.  1.
         13    1    4    4    0    0  0.44137554359E+02  0.12814531853E+02  0.19838181273E+01  0.46002950620E+02  0.00000000000E+00 0. -1.
          2    1    1    2  501    0 -0.15992196936E+02  0.42638270229E+02  0.16716269844E+03  0.17325455319E+03  0.00000000000E+00 0. -1.
<scales pt_clust_5="13000.00000" pt_clust_6="13000.00000" pt_clust_7="13000.00000" pt_clust_8="13000.00000" pt_clust_9="45.53869"></scales>
<clustering>
<clus scale="   45.539">  1  9  2 -1</clus>
<clus scale="   81.236">  7  8 -1 -1</clus>
<clus scale="   86.946">  1  7  2 -1</clus>
<clus scale="   93.013">  5  6 -1 -1</clus>
<clus scale="   45.539">  1  5  2 -1</clus>
</clustering>
</event>
<event>
 9    1  0.1464797E-005  0.1791397E+03  0.7546771E-02  0.1168834E+00
         -1   -1    0    0    0  501 -0.00000000000E+00  0.00000000000E+00  0.33204127476E+03  0.33204127476E+03  0.00000000000E+00 0.  1.
         21   -1    0    0  501  502  0.00000000000E+00 -0.00000000000E+00 -0.19600740867E+03  0.19600740867E+03  0.00000000000E+00 0.  1.
         23    2    1    2    0    0  0.70437430757E+02 -0.12890388170E+03  0.14375113358E+03  0.22432334012E+03  0.89882869041E+02 0.  0.
         23    2    1    2    0    0 -0.62881825748E+02  0.15300599860E+03  0.85270618173E+02  0.20736795602E+03  0.91462731431E+02 0.  0.
        -13    1    4    4    0    0 -0.25037456274E+02  0.11850683349E+03  0.96592441614E+02  0.15492205646E+03  0.00000000000E+00 0.  1.
         13    1    4    4    0    0 -0.37844369474E+02  0.34499165117E+02 -0.11321823441E+02  0.52445899560E+02  0.00000000000E+00 0. -1.
        -13    1    3    3    0    0  0.49205285297E+02 -0.27859214841E+02  0.13539547437E+02  0.58143058894E+02  0.00000000000E+00 0. -1.
         13    1    3    3    0    0  0.21232145459E+02 -0.10104466686E+03  0.13021158615E+03  0.16618028123E+03  0.00000000000E+00 0.  1.
         -1    1    1    2    0  502 -0.75556050088E+01 -0.24102116901E+02 -0.92987885668E+02  0.96357387299E+02  0.00000000000E+00 0.  1.
<scales pt_clust_5="13000.00000" pt_clust_6="13000.00000" pt_clust_7="13000.00000" pt_clust_8="13000.00000" pt_clust_9="25.25865"></scales>
<clustering>
<clus scale="   25.259">  2  9  1 -1</clus>
<clus scale="   89.883">  7  8 -1 -1</clus>
<clus scale="   91.463">  5  6 -1 -1</clus>
<clus scale="  178.338">  1  7  2 -1</clus>
<clus scale="   25.259">  2  5  1 -1</clus>
</clustering>
</event>
<event>
 9    1  0.1464797E-005  0.9290678E+02  0.7546771E-02  0.1297913E+00
         21   -1    0    0  501  502  0.00000000000E+00  0.00000000000E+00  0.24551074023E+02  0.24551074023E+02  0.00000000000E+00 0.  1.
          1   -1    0    0  502    0 -0.00000000000E+00 -0.00000000000E+00 -0.70292165019E+03  0.70292165019E+03  0.00000000000E+00 0. -1.
         23    2    1    2    0    0  0.71884348429E+00 -0.54088724710E+01 -0.46152459951E+03  0.46998315658E+03  0.88597059084E+02 0.  0.
         23    2    1    2    0    0  0.11790330508E+02  0.34922028497E+02 -0.19495647995E+03  0.21867390226E+03  0.91933054367E+02 0.  0.
        -11    1    4    4    0    0 -0.34418951179E+02  0.27629866240E+02 -0.51726865660E+02  0.67998105413E+02  0.00000000000E+00 0.  1.
         11    1    4    4    0    0  0.46209281687E+02  0.72921622568E+01 -0.14322961429E+03  0.15067579684E+03  0.00000000000E+00 0. -1.
        -13    1    3    3    0    0  0.36668492151E+02 -0.27988599899E+02 -0.22524359735E+03  0.22991872083E+03  0.00000000000E+00 0. -1.
         13    1    3    3    0    0 -0.35949648667E+02  0.22579727428E+02 -0.23628100216E+03  0.24006443575E+03  0.00000000000E+00 0.  1.
          1    1    1    2  501    0 -0.12509173992E+02 -0.29513156026E+02 -0.21889496705E+02  0.38815665376E+02  0.00000000000E+00 0. -1.
<scales pt_clust_5="13000.00000" pt_clust_6="13000.00000" pt_clust_7="13000.00000" pt_clust_8="13000.00000" pt_clust_9="32.05473"></scales>
<clustering>
<clus scale="   32.055">  1  9  2 -1</clus>
<clus scale="   88.597">  7  8 -1 -1</clus>
<clus scale="   89.607">  2  7  1 -1</clus>
<clus scale="   91.933">  5  6 -1 -1</clus>
<clus scale="   32.055">  1  5  2 -1</clus>
</clustering>
</event>
<event>
 9    1  0.1464797E-005  0.1034297E+03  0.7546771E-02  0.1274154E+00
         21   -1    0    0  501  502  0.00000000000E+00  0.00000000000E+00  0.11544961651E+03  0.11544961651E+03  0.00000000000E+00 0.  1.
          3   -1    0    0  502    0 -0.00000000000E+00 -0.00000000000E+00 -0.25904497094E+03  0.25904497094E+03  0.00000000000E+00 0. -1.
         23    2    1    2    0    0 -0.33329517248E+02 -0.38209452095E+02 -0.21103792412E+03  0.23558893792E+03  0.91620539736E+02 0.  0.
         23    2    1    2    0    0  0.27822527426E+02  0.13609123157E+02  0.61524952251E+02  0.11301122316E+03  0.89593055231E+02 0.  0.
        -11    1    3    3    0    0 -0.60010223835E+02 -0.47424406822E+02 -0.15429465763E+03  0.17221249287E+03  0.00000000000E+00 0.  1.
         11    1    3    3    0    0  0.26680706587E+02  0.92149547269E+01 -0.56743266493E+02  0.63376445048E+02  0.00000000000E+00 0. -1.
        -13    1    4    4    0    0 -0.31240559027E+02  0.12647033440E+02  0.33889153426E+02  0.47795341855E+02  0.00000000000E+00 0.  1.
         13    1    4    4    0    0  0.59063086452E+02  0.96208971740E+00  0.27635798825E+02  0.65215881307E+02  0.00000000000E+00 0. -1.
          3    1    1    2  501    0  0.55069898221E+01  0.24600328938E+02  0.59176174447E+01  0.25894426369E+02  0.00000000000E+00 0. -1.
<scales pt_clust_5="13000.00000" pt_clust_6="13000.00000" pt_clust_7="13000.00000" pt_clust_8="13000.00000" pt_clust_9="25.20919"></scales>
<clustering>
<clus scale="   25.209">  1  9  2 -1</clus>
<clus scale="   89.593">  7  8 -1 -1</clus>
<clus scale="   91.621">  5  6 -1 -1</clus>
<clus scale="  101.638">  1  7  2 -1</clus>
<clus scale="   25.209">  1  5  2 -1</clus>
</clustering>
</event>
<event>
 9    1  0.1464797E-005  0.1334648E+03  0.7546771E-02  0.1226405E+00
          2   -1    0    0  502    0 -0.00000000000E+00  0.00000000000E+00  0.28510470549E+03  0.28510470549E+03  0.00000000000E+00 0. -1.
         21   -1    0    0  501  502  0.00000000000E+00 -0.00000000000E+00 -0.97908313552E+02  0.97908313552E+02  0.00000000000E+00 0.  1.
         23    2    1    2    0    0  0.94538855885E+02  0.95400111699E+00  0.17213879828E+03  0.21969752984E+03  0.98471992740E+02 0.  0.
         23    2    1    2    0    0 -0.81843417010E+02  0.18257735369E+02  0.44110859873E+02  0.12624316442E+03  0.83425888044E+02 0.  0.
        -13    1    4    4    0    0 -0.58140929229E+02  0.59663578355E+00 -0.15092597794E+02  0.60070875922E+02  0.00000000000E+00 0.  1.
         13    1    4    4    0    0 -0.23702487781E+02  0.17661099585E+02  0.59203457667E+02  0.66172288500E+02  0.00000000000E+00 0. -1.
        -13    1    3    3    0    0 -0.81576408766E+01 -0.28516582451E+02  0.38455953563E+02  0.48565450104E+02  0.00000000000E+00 0.  1.
         13    1    3    3    0    0  0.10269649676E+03  0.29470583568E+02  0.13368284472E+03  0.17113207973E+03  0.00000000000E+00 0. -1.
          2    1    1    2  501    0 -0.12695438875E+02 -0.19211736486E+02 -0.29053266214E+02  0.37072324782E+02  0.00000000000E+00 0. -1.
<scales pt_clust_5="13000.00000" pt_clust_6="13000.00000" pt_clust_7="13000.00000" pt_clust_8="13000.00000" pt_clust_9="23.02748"></scales>
<clustering>
<clus scale="   23.027">  2  9  1 -1</clus>
<clus scale="   83.426">  5  6 -1 -1</clus>
<clus scale="   98.472">  7  8 -1 -1</clus>
<clus scale="  122.784">  2  5  1 -1</clus>
<clus scale="   23.027">  2  5  1 -1</clus>
</clustering>
</event>
<event>
 9    1  0.1464797E-005  0.1256880E+03  0.7546771E-02  0.1234175E+00
          2   -1    0    0  502    0 -0.00000000000E+00  0.00000000000E+00  0.43752259636E+03  0.43752259636E+03  0.00000000000E+00 0. -1.
         21   -1    0    0  501  502  0.00000000000E+00 -0.00000000000E+00 -0.35986829506E+03  0.35986829506E+03  0.00000000000E+00 0. -1.
         23    2    1    2    0    0  0.72496564704E+02 -0.46834150582E+02  0.40724124398E+03  0.42631056898E+03  0.91902561842E+02 0.  0.
         23    2    1    2    0    0 -0.83079829428E+02  0.34802944635E+01 -0.21238771520E+03  0.24567210401E+03  0.91279080898E+02 0.  0.
        -11    1    3    3    0    0 -0.91504953223E+01 -0.41462008966E+02  0.10691895839E+03  0.11504126831E+03  0.00000000000E+00 0.  1.
         11    1    3    3    0    0  0.81647060026E+02 -0.53721416157E+01  0.30032228559E+03  0.31126930066E+03  0.00000000000E+00 0. -1.
        -11    1    4    4    0    0 -0.90941308747E+02 -0.21005790679E+02 -0.18952724879E+03  0.21126320767E+03  0.00000000000E+00 0. -1.
         11    1    4    4    0    0  0.78614793197E+01  0.24486085142E+02 -0.22860466410E+02  0.34408896337E+02  0.00000000000E+00 0.  1.
          2    1    1    2  501    0  0.10583264723E+02  0.43353856118E+02 -0.11719922747E+03  0.12540821844E+03  0.00000000000E+00 0. -1.
<scales pt_clust_5="13000.00000" pt_clust_6="13000.00000" pt_clust_7="13000.00000" pt_clust_8="13000.00000" pt_clust_9="44.62692"></scales>
<clustering>
<clus scale="   44.627">  2  9  1 -1</clus>
<clus scale="   91.279">  7  8 -1 -1</clus>
<clus scale="   91.903">  5  6 -1 -1</clus>
<clus scale="  125.233">  2  7  1 -1</clus>
<clus scale="   44.627">  2  5  1 -1</clus>
</clustering>
</event>
<event>
 9    1  0.1464797E-005  0.9893403E+02  0.7546771E-02  0.1284755E+00
          3   -1    0    0  502    0 -0.00000000000E+00  0.00000000000E+00  0.52381085292E+03  0.52381085292E+03  0.00000000000E+00 0. -1.
         21   -1    0    0  501  502  0.00000000000E+00 -0.00000000000E+00 -0.37210072011E+02  0.37210072011E+02  0.00000000000E+00 0.  1.
         23    2    1    2    0    0  0.22124022840E+02  0.77526156037E+01  0.34942766049E+03  0.36278869790E+03  0.94690939240E+02 0.  0.
         23    2    1    2    0    0 -0.33147500354E+02 -0.25887255555E+02  0.14466189146E+03  0.17572747388E+03  0.90466432765E+02 0.  0.
        -11    1    3    3    0    0  0.52032469911E+02 -0.16259096692E+02  0.14751395945E+03  0.15726444094E+03  0.00000000000E+00 0. -1.
         11    1    3    3    0    0 -0.29908447071E+02  0.24011712296E+02  0.20191370103E+03  0.20552425696E+03  0.00000000000E+00 0.  1.
        -11    1    4    4    0    0  0.27547367050E+02 -0.44263987588E+01  0.16786428390E+02  0.32561244071E+02  0.00000000000E+00 0. -1.
         11    1    4    4    0    0 -0.60694867404E+02 -0.21460856796E+02  0.12787546307E+03  0.14316622981E+03  0.00000000000E+00 0.  1.
          3    1    1    2  501    0  0.11023477514E+02  0.18134639951E+02 -0.74887710369E+01  0.22504753149E+02  0.00000000000E+00 0. -1.
<scales pt_clust_5="13000.00000" pt_clust_6="13000.00000" pt_clust_7="13000.00000" pt_clust_8="13000.00000" pt_clust_9="21.22221"></scales>
<clustering>
<clus scale="   21.222">  2  9  1 -1</clus>
<clus scale="   90.466">  7  8 -1 -1</clus>
<clus scale="   94.691">  5  6 -1 -1</clus>
<clus scale="   94.899">  2  7  1 -1</clus>
<clus scale="   21.222">  2  5  1 -1</clus>
</clustering>
</event>
<event>
 9    1  0.1464797E-005  0.1127119E+03  0.7546771E-02  0.1257096E+00
          1   -1    0    0  502    0 -0.00000000000E+00  0.00000000000E+00  0.36292184056E+03  0.36292184056E+03  0.00000000000E+00 0. -1.
         21   -1    0    0  501  502  0.00000000000E+00 -0.00000000000E+00 -0.91915932595E+02  0.91915932595E+02  0.00000000000E+00 0. -1.
         23    2    1    2    0    0 -0.49651649868E+02  0.37029796924E+02  0.22903146490E+03  0.25441400824E+03  0.91839988458E+02 0.  0.
         23    2    1    2    0    0  0.30975583352E+02 -0.48277757447E+02  0.92815656752E+02  0.14510522294E+03  0.95658512209E+02 0.  0.
        -11    1    4    4    0    0  0.58415063432E+02 -0.86615053051E+01  0.30912048639E+02  0.66655052779E+02  0.00000000000E+00 0.  1.
         11    1    4    4    0    0 -0.27439480080E+02 -0.39616252142E+02  0.61903608112E+02  0.78450170160E+02  0.00000000000E+00 0. -1.
        -11    1    3    3    0    0  0.11169136792E+02 -0.21076120104E+02  0.29922611753E+02  0.38266370999E+02  0.00000000000E+00 0.  1.
         11    1    3    3    0    0 -0.60820786660E+02  0.58105917028E+02  0.19910885315E+03  0.21614763725E+03  0.00000000000E+00 0. -1.
          1    1    1    2  501    0  0.18676066516E+02  0.11247960523E+02 -0.50841213689E+02  0.55318541972E+02  0.00000000000E+00 0. -1.
<scales pt_clust_5="13000.00000" pt_clust_6="13000.00000" pt_clust_7="13000.00000" pt_clust_8="13000.00000" pt_clust_9="21.80165"></scales>
<clustering>
<clus scale="   21.802">  2  9  1 -1</clus>
<clus scale="   91.840">  7  8 -1 -1</clus>
<clus scale="   95.659">  5  6 -1 -1</clus>
<clus scale="  109.490">  1  7  2 -1</clus>
<clus scale="   21.802">  2  5  1 -1</clus>
</clustering>
</event>
<event>
 9    1  0.1464797E-005  0.1278926E+03  0.7546771E-02  0.1231810E+00
          2   -1    0    0  502    0 -0.00000000000E+00  0.00000000000E+00  0.55003126062E+03  0.55003126062E+03  0.00000000000E+00 0. -1.
         21   -1    0    0  501  502  0.00000000000E+00 -0.00000000000E+00 -0.11316459707E+03  0.11316459707E+03  0.00000000000E+00 0.  1.
         23    2    1    2    0    0 -0.82061951562E+02  0.33120442727E+02  0.42855316686E+03  0.44547506529E+03  0.83421156484E+02 0.  0.
         23    2    1    2    0    0  0.10956639812E+03 -0.44239968424E+02  0.59231690414E+02  0.15879031740E+03  0.88000007654E+02 0.  0.
        -11    1    3    3    0    0 -0.76150197871E+02  0.12705372478E+02  0.41017519093E+03  0.41737748667E+03  0.00000000000E+00 0. -1.
         11    1    3    3    0    0 -0.59117536906E+01  0.20415070249E+02  0.18377975930E+02  0.28097578619E+02  0.00000000000E+00 0.  1.
        -11    1    4    4    0    0  0.38791080156E+02 -0.53343832800E+02  0.57356017378E+02  0.87407237269E+02  0.00000000000E+00 0. -1.
         11    1    4    4    0    0  0.70775317965E+02  0.91038643753E+01  0.18756730358E+01  0.71383080131E+02  0.00000000000E+00 0.  1.
          2    1    1    2  501    0 -0.27504446559E+02  0.11119525698E+02 -0.50918193725E+02  0.58930475006E+02  0.00000000000E+00 0. -1.
<scales pt_clust_5="13000.00000" pt_clust_6="13000.00000" pt_clust_7="13000.00000" pt_clust_8="13000.00000" pt_clust_9="29.66713"></scales>
<clustering>
<clus scale="   29.667">  2  9  1 -1</clus>
<clus scale="   83.421">  5  6 -1 -1</clus>
<clus scale="   88.000">  7  8 -1 -1</clus>
<clus scale="  124.786">  1  5  2 -1</clus>
<clus scale="   29.667">  2  5  1 -1</clus>
</clustering>
</event>
<event>
 9    1  0.1464797E-005  0.9359184E+02  0.7546771E-02  0.1298041E+00
         21   -1    0    0  501  502  0.00000000000E+00  0.00000000000E+00  0.13748681549E+02  0.13748681549E+02  0.00000000000E+00 0.  1.
          2   -1    0    0  502    0 -0.00000000000E+00 -0.00000000000E+00 -0.78890309465E+03  0.78890309465E+03  0.00000000000E+00 0. -1.
         23    2    1    2    0    0 -0.16317489307E+02 -0.28826848438E+02 -0.36277210435E+03  0.37524753905E+03  0.90054806774E+02 0.  0.
         23    2    1    2    0    0  0.22466823007E+02  0.44567473767E+01 -0.30277608537E+03  0.31495317964E+03  0.83651220905E+02 0.  0.
        -11    1    4    4    0    0  0.89386185600E+01  0.40569463941E+02 -0.95864709811E+02  0.10447881552E+03  0.00000000000E+00 0. -1.
         11    1    4    4    0    0  0.13528204447E+02 -0.36112716565E+02 -0.20691137556E+03  0.21047436412E+03  0.00000000000E+00 0.  1.
        -13    1    3    3    0    0 -0.22445802587E+02 -0.57992016541E+02 -0.18980805919E+03  0.19973479258E+03  0.00000000000E+00 0.  1.
         13    1    3    3    0    0  0.61283132797E+01  0.29165168103E+02 -0.17296404516E+03  0.17551274647E+03  0.00000000000E+00 0. -1.
          2    1    1    2  501    0 -0.61493337003E+01  0.24370101062E+02 -0.10960622338E+03  0.11245105751E+03  0.00000000000E+00 0. -1.
<scales pt_clust_5="13000.00000" pt_clust_6="13000.00000" pt_clust_7="13000.00000" pt_clust_8="13000.00000" pt_clust_9="25.13398"></scales>
<clustering>
<clus scale="   25.134">  1  9  2 -1</clus>
<clus scale="   83.651">  5  6 -1 -1</clus>
<clus scale="   87.448">  1  5  2 -1</clus>
<clus scale="   90.055">  7  8 -1 -1</clus>
<clus scale="   25.134">  1  5  2 -1</clus>
</clustering>
</event>
<event>
 9    1  0.1464797E-005  0.1011867E+03  0.7546771E-02  0.1280339E+00
         21   -1    0    0  501  502  0.00000000000E+00  0.00000000000E+00  0.13422855070E+03  0.13422855070E+03  0.00000000000E+00 0.  1.
         -2   -1    0    0    0  501 -0.00000000000E+00 -0.00000000000E+00 -0.30052695471E+03  0.30052695471E+03  0.00000000000E+00 0.  1.
         23    2    1    2    0    0  0.42784493165E+02 -0.11180002333E+01 -0.18243685050E+03  0.20977901952E+03  0.94298832589E+02 0.  0.
         23    2    1    2    0    0 -0.21394524683E+02  0.29343319035E+02 -0.78300139921E+02  0.12411595854E+03  0.89191385208E+02 0.  0.
        -11    1    4    4    0    0  0.19941813617E+02 -0.22441508467E+02 -0.23264835760E+02  0.37980913832E+02  0.00000000000E+00 0.  1.
         11    1    4    4    0    0 -0.41336338300E+02  0.51784827502E+02 -0.55035304161E+02  0.86135044712E+02  0.00000000000E+00 0. -1.
        -13    1    3    3    0    0  0.11677184323E+02 -0.46147930148E+02 -0.68969330235E+02  0.83801889023E+02  0.00000000000E+00 0. -1.
         13    1    3    3    0    0  0.31107308842E+02  0.45029929915E+02 -0.11346752027E+03  0.12597713049E+03  0.00000000000E+00 0.  1.
         -2    1    1    2    0  502 -0.21389968482E+02 -0.28225318802E+02  0.94438586416E+02  0.10086052735E+03  0.00000000000E+00 0.  1.
<scales pt_clust_5="13000.00000" pt_clust_6="13000.00000" pt_clust_7="13000.00000" pt_clust_8="13000.00000" pt_clust_9="35.41468"></scales>
<clustering>
<clus scale="   35.415">  1  9  2 -1</clus>
<clus scale="   89.191">  5  6 -1 -1</clus>
<clus scale="   94.299">  7  8 -1 -1</clus>
<clus scale="   96.445">  1  5  2 -1</clus>
<clus scale="   35.415">  1  5  2 -1</clus>
</clustering>
</event>
<event>
 9    1  0.1464797E-005  0.9139353E+02  0.7546771E-02  0.1301685E+00
         21   -1    0    0  501  502  0.00000000000E+00  0.00000000000E+00  0.84900101562E+02  0.84900101562E+02  0.00000000000E+00 0.  1.
         -3   -1    0    0    0  501 -0.00000000000E+00 -0.00000000000E+00 -0.42824420214E+03  0.42824420214E+03  0.00000000000E+00 0.  1.
         23    2    1    2    0    0  0.15067268217E+02  0.11536971031E+02 -0.27820906526E+03  0.29331383552E+03  0.90953822596E+02 0.  0.
         23    2    1    2    0    0  0.99167107155E+01  0.43421114580E+02 -0.10794027152E+03  0.14582453178E+03  0.87349628003E+02 0.  0.
        -11    1    4    4    0    0 -0.42705242635E+01  0.28785313599E+02 -0.11908795893E+03  0.12259189867E+03  0.00000000000E+00 0.  1.
         11    1    4    4    0    0  0.14187234979E+02  0.14635800981E+02  0.11147687417E+02  0.23232633115E+02  0.00000000000E+00 0. -1.
        -13    1    3    3    0    0 -0.34760082444E+02 -0.12774084980E+02 -0.97736972920E+02  0.10451773273E+03  0.00000000000E+00 0.  1.
         13    1    3    3    0    0  0.49827350660E+02  0.24311056011E+02 -0.18047209234E+03  0.18879610279E+03  0.00000000000E+00 0. -1.
         -3    1    1    2    0  502 -0.24983978932E+02 -0.54958085611E+02  0.42805236191E+02  0.74005936401E+02  0.00000000000E+00 0.  1.
<scales pt_clust_5="13000.00000" pt_clust_6="13000.00000" pt_clust_7="13000.00000" pt_clust_8="13000.00000" pt_clust_9="60.37044"></scales>
<clustering>
<clus scale="   60.370">  1  9  2 -1</clus>
<clus scale="   87.350">  5  6 -1 -1</clus>
<clus scale="   87.807">  1  5  2 -1</clus>
<clus scale="   90.954">  7  8 -1 -1</clus>
<clus scale="   60.370">  1  5  2 -1</clus>
</clustering>
</event>
<event>
 9    1  0.1464797E-005  0.1483717E+03  0.7546771E-02  0.1215894E+00
         21   -1    0    0  501  502  0.00000000000E+00  0.00000000000E+00  0.95686917153E+02  0.95686917153E+02  0.00000000000E+00 0.  1.
         -3   -1    0    0    0  501 -0.00000000000E+00 -0.00000000000E+00 -0.39772710515E+03  0.39772710515E+03  0.00000000000E+00 0.  1.
         23    2    1    2    0    0  0.17381154666E+01 -0.66769530506E+02 -0.64582403501E+02  0.12875997118E+03  0.89146239893E+02 0.  0.
         23    2    1    2    0    0  0.11296328116E+03  0.74147078969E+02 -0.12281281448E+03  0.20231395208E+03  0.87117481567E+02 0.  0.
        -11    1    4    4    0    0  0.11540906351E+03  0.34630716699E+02 -0.84094765030E+02  0.14693695241E+03  0.00000000000E+00 0.  1.
         11    1    4    4    0    0 -0.24457823518E+01  0.39516362270E+02 -0.38718049455E+02  0.55376999666E+02  0.00000000000E+00 0. -1.
        -13    1    3    3    0    0 -0.34987647704E+02 -0.22492847516E+02 -0.57256246597E+02  0.70769636537E+02  0.00000000000E+00 0. -1.
         13    1    3    3    0    0  0.36725763171E+02 -0.44276682990E+02 -0.73261569043E+01  0.57990334644E+02  0.00000000000E+00 0.  1.
         -3    1    1    2    0  502 -0.11470139662E+03 -0.73775484628E+01 -0.11464497001E+03  0.16234009904E+03  0.00000000000E+00 0.  1.
<scales pt_clust_5="13000.00000" pt_clust_6="13000.00000" pt_clust_7="13000.00000" pt_clust_8="13000.00000" pt_clust_9="120.10296"></scales>
<clustering>
<clus scale="   87.117">  5  6 -1 -1</clus>
<clus scale="   89.146">  7  8 -1 -1</clus>
<clus scale="  111.392">  2  7  1 -1</clus>
<clus scale="  120.103">  1  9  2 -1</clus>
<clus scale="  120.103">  1  5  2 -1</clus>
</clustering>
</event>
<event>
 9    1  0.1464797E-005  0.1154813E+03  0.7546771E-02  0.1251802E+00
         21   -1    0    0  501  502  0.00000000000E+00  0.00000000000E+00  0.14127988215E+03  0.14127988215E+03  0.00000000000E+00 0.  1.
         -1   -1    0    0    0  501 -0.00000000000E+00 -0.00000000000E+00 -0.25543093299E+03  0.25543093299E+03  0.00000000000E+00 0.  1.
         23    2    1    2    0    0  0.41591430678E+01  0.92913419644E+02 -0.15244397673E+03  0.20206244405E+03  0.94550849979E+02 0.  0.
         23    2    1    2    0    0 -0.36243892137E+01 -0.28247345743E+02 -0.30095626499E+02  0.10052621019E+03  0.91589974678E+02 0.  0.
        -11    1    3    3    0    0  0.27266545691E+02  0.97563815844E+02 -0.90702274235E+02  0.13597450212E+03  0.00000000000E+00 0. -1.
         11    1    3    3    0    0 -0.23107402623E+02 -0.46503962001E+01 -0.61741702495E+02  0.66087941924E+02  0.00000000000E+00 0.  1.
        -13    1    4    4    0    0 -0.16653488523E+02  0.28265674595E+02  0.43168236524E+01  0.33089605721E+02  0.00000000000E+00 0.  1.
         13    1    4    4    0    0  0.13029099309E+02 -0.56513020338E+02 -0.34412450152E+02  0.67436604466E+02  0.00000000000E+00 0. -1.
         -1    1    1    2    0  502 -0.53475385406E+00 -0.64666073901E+02  0.68388552395E+02  0.94122160909E+02  0.00000000000E+00 0.  1.
<scales pt_clust_5="13000.00000" pt_clust_6="13000.00000" pt_clust_7="13000.00000" pt_clust_8="13000.00000" pt_clust_9="64.66828"></scales>
<clustering>
<clus scale="   64.668">  1  9  2 -1</clus>
<clus scale="   91.590">  7  8 -1 -1</clus>
<clus scale="   94.551">  5  6 -1 -1</clus>
<clus scale="  113.070">  1  7  2 -1</clus>
<clus scale="   64.668">  1  5  2 -1</clus>
</clustering>
</event>
<event>
 9    1  0.1464797E-005  0.2635448E+03  0.7546771E-02  0.1105086E+00
         21   -1    0    0  501  502  0.00000000000E+00  0.00000000000E+00  0.19869354274E+03  0.19869354274E+03  0.00000000000E+00 0.  1.
         -1   -1    0    0    0  501 -0.00000000000E+00 -0.00000000000E+00 -0.43120864917E+03  0.43120864917E+03  0.00000000000E+00 0.  1.
         23    2    1    2    0    0 -0.52543973585E+01  0.25276566432E+03 -0.17282374203E+03  0.31939034143E+03  0.90686573636E+02 0.  0.
         23    2    1    2    0    0 -0.39046850188E+02 -0.23900347252E+03 -0.53524020621E+02  0.26371404512E+03  0.89626784072E+02 0.  0.
        -11    1    4    4    0    0 -0.90723446391E+01 -0.26802064755E+02  0.22677242043E+02  0.36261762493E+02  0.00000000000E+00 0. -1.
         11    1    4    4    0    0 -0.29974505549E+02 -0.21220140777E+03 -0.76201262664E+02  0.22745228263E+03  0.00000000000E+00 0.  1.
        -13    1    3    3    0    0 -0.16047704390E+02  0.12293384568E+03 -0.13595420737E+03  0.18399403722E+03  0.00000000000E+00 0.  1.
         13    1    3    3    0    0  0.10793307032E+02  0.12983181864E+03 -0.36869534660E+02  0.13539630421E+03  0.00000000000E+00 0. -1.
         -1    1    1    2    0  502  0.44301247546E+02 -0.13762191796E+02 -0.61673437855E+01  0.46797805360E+02  0.00000000000E+00 0.  1.
<scales pt_clust_5="13000.00000" pt_clust_6="13000.00000" pt_clust_7="13000.00000" pt_clust_8="13000.00000" pt_clust_9="46.38964"></scales>
<clustering>
<clus scale="   46.390">  1  9  2 -1</clus>
<clus scale="   89.627">  5  6 -1 -1</clus>
<clus scale="   90.687">  7  8 -1 -1</clus>
<clus scale="  263.182">  1  5  2 -1</clus>
<clus scale="   46.390">  1  5  2 -1</clus>
</clustering>
</event>
<event>
 9    1  0.1464797E-005  0.1321988E+03  0.7546771E-02  0.1234908E+00
          2   -1    0    0  502    0 -0.00000000000E+00  0.00000000000E+00  0.45791944642E+03  0.45791944642E+03  0.00000000000E+00 0. -1.
         21   -1    0    0  501  502  0.00000000000E+00 -0.00000000000E+00 -0.70274366334E+02  0.70274366334E+02  0.00000000000E+00 0. -1.
         23    2    1    2    0    0 -0.17760069928E+02  0.58387892901E+02  0.35517454894E+03  0.38004655314E+03  0.12067251641E+03 0.  0.
         23    2    1    2    0    0  0.25177195482E+02 -0.30453315314E+02  0.53017870195E+02  0.11268534317E+03  0.91245802198E+02 0.  0.
        -11    1    4    4    0    0  0.26499827000E+02 -0.56717624108E+02  0.58657909003E+02  0.85789743001E+02  0.00000000000E+00 0.  1.
         11    1    4    4    0    0 -0.13226315175E+01  0.26264308794E+02 -0.56400388084E+01  0.26895600167E+02  0.00000000000E+00 0. -1.
        -13    1    3    3    0    0 -0.22460694564E+02 -0.32085405401E+02  0.63315338785E+02  0.74449903731E+02  0.00000000000E+00 0.  1.
         13    1    3    3    0    0  0.47006246355E+01  0.90473298303E+02  0.29185921015E+03  0.30559664940E+03  0.00000000000E+00 0. -1.
          2    1    1    2  501    0 -0.74171255541E+01 -0.27934577587E+02 -0.20547339045E+02  0.35461916450E+02  0.00000000000E+00 0. -1.
<scales pt_clust_5="13000.00000" pt_clust_6="13000.00000" pt_clust_7="13000.00000" pt_clust_8="13000.00000" pt_clust_9="28.90250"></scales>
<clustering>
<clus scale="   28.902">  2  9  1 -1</clus>
<clus scale="   91.246">  5  6 -1 -1</clus>
<clus scale="  106.021">  2  5  1 -1</clus>
<clus scale="  120.673">  7  8 -1 -1</clus>
<clus scale="   28.902">  2  5  1 -1</clus>
</clustering>
</event>
<event>
 9    1  0.1464797E-005  0.1011164E+03  0.7546771E-02  0.1278604E+00
          1   -1    0    0  502    0 -0.00000000000E+00  0.00000000000E+00  0.38337346223E+03  0.38337346223E+03  0.00000000000E+00 0. -1.
         21   -1    0    0  501  502  0.00000000000E+00 -0.00000000000E+00 -0.11446291162E+03  0.11446291162E+03  0.00000000000E+00 0. -1.
         23    2    1    2    0    0  0.48116307436E+02 -0.98779682918E+01  0.31663897252E+03  0.33262320973E+03  0.89248010806E+02 0.  0.
         23    2    1    2    0    0 -0.23933652141E+02  0.34613702863E+01  0.17450887323E+02  0.95396863024E+02  0.90615822114E+02 0.  0.
        -11    1    3    3    0    0  0.19314147317E+02 -0.46464503003E+02  0.21524920197E+03  0.22105249439E+03  0.00000000000E+00 0. -1.
         11    1    3    3    0    0  0.28802160119E+02  0.36586534711E+02  0.10138977055E+03  0.11157071534E+03  0.00000000000E+00 0.  1.
        -13    1    4    4    0    0 -0.56073085085E+02 -0.70195085169E+01  0.23233931030E+02  0.61100572190E+02  0.00000000000E+00 0.  1.
         13    1    4    4    0    0  0.32139432945E+02  0.10480878803E+02 -0.57830437068E+01  0.34296290835E+02  0.00000000000E+00 0. -1.
          1    1    1    2  501    0 -0.24182655295E+02  0.64165980055E+01 -0.65179309234E+02  0.69816301100E+02  0.00000000000E+00 0. -1.
<scales pt_clust_5="13000.00000" pt_clust_6="13000.00000" pt_clust_7="13000.00000" pt_clust_8="13000.00000" pt_clust_9="25.01946"></scales>
<clustering>
<clus scale="   25.019">  2  9  1 -1</clus>
<clus scale="   89.248">  5  6 -1 -1</clus>
<clus scale="   90.616">  7  8 -1 -1</clus>
<clus scale="   99.892">  1  5  2 -1</clus>
<clus scale="   25.019">  2  5  1 -1</clus>
</clustering>
</event>
<event>
 9    1  0.1464797E-005  0.1520072E+03  0.7546771E-02  0.1213444E+00
         21   -1    0    0  501  502  0.00000000000E+00  0.00000000000E+00  0.26248618790E+03  0.26248618790E+03  0.00000000000E+00 0. -1.
          2   -1    0    0  502    0 -0.00000000000E+00 -0.00000000000E+00 -0.10321279580E+04  0.10321279580E+04  0.00000000000E+00 0. -1.
         23    2    1    2    0    0 -0.20413535567E+02  0.53687631262E+02 -0.16622203679E+03  0.19883294103E+03  0.92766905406E+02 0.  0.
         23    2    1    2    0    0  0.53289624987E+02 -0.16979856840E+03 -0.82207765588E+03  0.84603358410E+03  0.91048422057E+02 0.  0.
        -11    1    4    4    0    0  0.57670568325E+02 -0.43951432526E+02 -0.25267244799E+03  0.26287066943E+03  0.00000000000E+00 0.  1.
         11    1    4    4    0    0 -0.43809433380E+01 -0.12584713588E+03 -0.56940520789E+03  0.58316291467E+03  0.00000000000E+00 0. -1.
        -13    1    3    3    0    0 -0.49540576798E+02  0.33367323924E+02 -0.51922069588E+02  0.79142582505E+02  0.00000000000E+00 0.  1.
         13    1    3    3    0    0  0.29127041231E+02  0.20320307338E+02 -0.11429996720E+03  0.11969035852E+03  0.00000000000E+00 0. -1.
          2    1    1    2  501    0 -0.32876089421E+02  0.11611093714E+03  0.21865792257E+03  0.24974762077E+03  0.00000000000E+00 0. -1.
<scales pt_clust_5="13000.00000" pt_clust_6="13000.00000" pt_clust_7="13000.00000" pt_clust_8="13000.00000" pt_clust_9="121.72248"></scales>
<clustering>
<clus scale="   91.048">  5  6 -1 -1</clus>
<clus scale="   92.767">  7  8 -1 -1</clus>
<clus scale="  109.109">  2  7  1 -1</clus>
<clus scale="  121.722">  1  9  2 -1</clus>
<clus scale="  121.722">  1  5  2 -1</clus>
</clustering>
</event>
<event>
 9    1  0.1464797E-005  0.1045319E+03  0.7546771E-02  0.1272283E+00
         -4   -1    0    0    0  501 -0.00000000000E+00  0.00000000000E+00  0.35415806505E+03  0.35415806505E+03  0.00000000000E+00 0.  1.
         21   -1    0    0  501  502  0.00000000000E+00 -0.00000000000E+00 -0.43571915910E+02  0.43571915910E+02  0.00000000000E+00 0. -1.
         23    2    1    2    0    0  0.33069347457E+02 -0.22402386934E+02  0.16176719710E+03  0.18931128541E+03  0.89859267988E+02 0.  0.
         23    2    1    2    0    0 -0.42797165416E+02  0.41987444607E+02  0.15034124435E+03  0.18649787668E+03  0.92652174188E+02 0.  0.
        -11    1    3    3    0    0  0.55253156153E+02 -0.37368269312E+02  0.85216447040E+02  0.10821802836E+03  0.00000000000E+00 0.  1.
         11    1    3    3    0    0 -0.22183808696E+02  0.14965882378E+02  0.76550750058E+02  0.81093257044E+02  0.00000000000E+00 0. -1.
        -13    1    4    4    0    0 -0.22784004614E+02 -0.22223360711E+02  0.14617943518E+02  0.35023890421E+02  0.00000000000E+00 0.  1.
         13    1    4    4    0    0 -0.20013160802E+02  0.64210805318E+02  0.13572330083E+03  0.15147398626E+03  0.00000000000E+00 0. -1.
         -4    1    1    2    0  502  0.97278179595E+01 -0.19585057673E+02 -0.15222923075E+01  0.21920818875E+02  0.00000000000E+00 0.  1.
<scales pt_clust_5="13000.00000" pt_clust_6="13000.00000" pt_clust_7="13000.00000" pt_clust_8="13000.00000" pt_clust_9="21.86790"></scales>
<clustering>
<clus scale="   21.868">  2  9  1 -1</clus>
<clus scale="   89.859">  5  6 -1 -1</clus>
<clus scale="   92.652">  7  8 -1 -1</clus>
<clus scale="  102.065">  1  5  2 -1</clus>
<clus scale="   21.868">  2  5  1 -1</clus>
</clustering>
</event>
<event>
 9    1  0.2586024E-005  0.9325415E+02  0.7546771E-02  0.1297124E+00
         21   -1    0    0  501  502  0.00000000000E+00  0.00000000000E+00  0.21584747093E+03  0.21584747093E+03  0.00000000000E+00 0.  1.
         -1   -1    0    0    0  501 -0.00000000000E+00 -0.00000000000E+00 -0.47836418347E+03  0.47836418347E+03  0.00000000000E+00 0.  1.
         23    2    1    2    0    0  0.14293221819E+02  0.15003785205E+02 -0.44664421627E+03  0.45634736274E+03  0.91282253454E+02 0.  0.
         23    2    1    2    0    0 -0.23928558369E+01  0.13000860905E+02  0.53453880805E+02  0.10369471744E+03  0.87866540326E+02 0.  0.
        -11    1    3    3    0    0  0.49131902749E+02 -0.10355512936E+02 -0.22197834883E+03  0.22758639649E+03  0.00000000000E+00 0.  1.
         11    1    3    3    0    0 -0.34838680929E+02  0.25359298141E+02 -0.22466586744E+03  0.22876096626E+03  0.00000000000E+00 0. -1.
        -11    1    4    4    0    0 -0.31413486893E+02  0.32758347017E+02  0.51337246701E+02  0.68523203055E+02  0.00000000000E+00 0. -1.
         11    1    4    4    0    0  0.29020631056E+02 -0.19757486112E+02  0.21166341045E+01  0.35171514387E+02  0.00000000000E+00 0.  1.
         -1    1    1    2    0  502 -0.11900365982E+02 -0.28004646109E+02  0.13067362293E+03  0.13416957421E+03  0.00000000000E+00 0.  1.
<scales pt_clust_5="13000.00000" pt_clust_6="13000.00000" pt_clust_7="13000.00000" pt_clust_8="13000.00000" pt_clust_9="30.42826"></scales>
<clustering>
<clus scale="   30.428">  1  9  2 -1</clus>
<clus scale="   87.867">  7  8 -1 -1</clus>
<clus scale="   89.913">  1  7  2 -1</clus>
<clus scale="   91.282">  5  6 -1 -1</clus>
<clus scale="   30.428">  1  5  2 -1</clus>
</clustering>
</event>
<event>
 9    1  0.1464797E-005  0.1190406E+03  0.7546771E-02  0.1244978E+00
         21   -1    0    0  501  502  0.00000000000E+00  0.00000000000E+00  0.19368178010E+03  0.19368178010E+03  0.00000000000E+00 0. -1.
          2   -1    0    0  502    0 -0.00000000000E+00 -0.00000000000E+00 -0.17235308824E+03  0.17235308824E+03  0.00000000000E+00 0. -1.
         23    2    1    2    0    0 -0.31553344818E+02 -0.74744146288E+02 -0.10031470348E+03  0.15786964924E+03  0.90980687210E+02 0.  0.
         23    2    1    2    0    0  0.41984680282E+02  0.47961601688E+02  0.35456825795E+02  0.11731235879E+03  0.91880217758E+02 0.  0.
        -11    1    4    4    0    0  0.46217842357E+01  0.28574964243E+02 -0.28581147443E+02  0.40678882238E+02  0.00000000000E+00 0.  1.
         11    1    4    4    0    0  0.37362896046E+02  0.19386637445E+02  0.64037973238E+02  0.76633476555E+02  0.00000000000E+00 0. -1.
        -13    1    3    3    0    0  0.23577829947E+01 -0.84585627766E+02 -0.57185582668E+02  0.10212971375E+03  0.00000000000E+00 0. -1.
         13    1    3    3    0    0 -0.33911127813E+02  0.98414814788E+01 -0.43129120809E+02  0.55739935496E+02  0.00000000000E+00 0.  1.
          2    1    1    2  501    0 -0.10431335464E+02  0.26782544600E+02  0.86186569549E+02  0.90852860304E+02  0.00000000000E+00 0. -1.
<scales pt_clust_5="13000.00000" pt_clust_6="13000.00000" pt_clust_7="13000.00000" pt_clust_8="13000.00000" pt_clust_9="28.74226"></scales>
<clustering>
<clus scale="   28.742">  1  9  2 -1</clus>
<clus scale="   90.981">  7  8 -1 -1</clus>
<clus scale="   91.880">  5  6 -1 -1</clus>
<clus scale="  118.348">  2  7  1 -1</clus>
<clus scale="   28.742">  1  5  2 -1</clus>
</clustering>
</event>
<event>
 9    1  0.1464797E-005  0.1025984E+03  0.7546771E-02  0.1279060E+00
         21   -1    0    0  501  502  0.00000000000E+00  0.00000000000E+00  0.17777389981E+03  0.17777389981E+03  0.00000000000E+00 0.  1.
          1   -1    0    0  502    0 -0.00000000000E+00 -0.00000000000E+00 -0.43495012634E+03  0.43495012634E+03  0.00000000000E+00 0. -1.
         23    2    1    2    0    0  0.81381824422E+01  0.25231162412E+02 -0.38646220151E+03  0.39986106220E+03  0.99161455717E+02 0.  0.
         23    2    1    2    0    0  0.41296396511E+02 -0.34890582732E+02  0.45855177297E+02  0.11540640952E+03  0.91066991527E+02 0.  0.
        -13    1    4    4    0    0  0.40089211061E+02  0.16826295055E+02  0.46516184327E+02  0.63671221546E+02  0.00000000000E+00 0. -1.
         13    1    4    4    0    0  0.12071854498E+01 -0.51716877787E+02 -0.66100703028E+00  0.51735187977E+02  0.00000000000E+00 0.  1.
        -13    1    3    3    0    0 -0.30317902932E+02 -0.20350059415E+02 -0.22063871645E+03  0.22363976246E+03  0.00000000000E+00 0. -1.
         13    1    3    3    0    0  0.38456085374E+02  0.45581221828E+02 -0.16582348506E+03  0.17622129974E+03  0.00000000000E+00 0.  1.
          1    1    1    2  501    0 -0.49434578953E+02  0.96594203198E+01  0.83430797685E+02  0.97456554421E+02  0.00000000000E+00 0. -1.
<scales pt_clust_5="13000.00000" pt_clust_6="13000.00000" pt_clust_7="13000.00000" pt_clust_8="13000.00000" pt_clust_9="50.36946"></scales>
<clustering>
<clus scale="   50.369">  1  9  2 -1</clus>
<clus scale="   91.067">  5  6 -1 -1</clus>
<clus scale="   94.798">  1  5  2 -1</clus>
<clus scale="   99.161">  7  8 -1 -1</clus>
<clus scale="   50.369">  1  5  2 -1</clus>
</clustering>
</event>
<event>
 9    1  0.1464797E-005  0.1098334E+03  0.7546771E-02  0.1266226E+00
          2   -1    0    0  502    0 -0.00000000000E+00  0.00000000000E+00  0.40339882674E+03  0.40339882674E+03  0.00000000000E+00 0. -1.
         21   -1    0    0  501  502  0.00000000000E+00 -0.00000000000E+00 -0.41490554066E+02  0.41490554066E+02  0.00000000000E+00 0.  1.
         23    2    1    2    0    0 -0.25636737749E+02 -0.21623800178E+02  0.26267410374E+03  0.28132864829E+03  0.94991012812E+02 0.  0.
         23    2    1    2    0    0  0.10890882363E+02  0.38556775175E+01  0.80945410175E+02  0.13410525542E+03  0.10629479073E+03 0.  0.
        -11    1    4    4    0    0 -0.47878189122E+02  0.10975065462E+00  0.39891405549E+02  0.62318996105E+02  0.00000000000E+00 0.  1.
         11    1    4    4    0    0  0.58769071485E+02  0.37459268628E+01  0.41054004626E+02  0.71786259319E+02  0.00000000000E+00 0. -1.
        -13    1    3    3    0    0 -0.28495756059E+02  0.34346696246E+02  0.12151963475E+03  0.12945549539E+03  0.00000000000E+00 0.  1.
         13    1    3    3    0    0  0.28590183098E+01 -0.55970496425E+02  0.14115446899E+03  0.15187315290E+03  0.00000000000E+00 0. -1.
          2    1    1    2  501    0  0.14745855386E+02  0.17768122661E+02  0.18288758760E+02  0.29455477096E+02  0.00000000000E+00 0. -1.
<scales pt_clust_5="13000.00000" pt_clust_6="13000.00000" pt_clust_7="13000.00000" pt_clust_8="13000.00000" pt_clust_9="23.08996"></scales>
<clustering>
<clus scale="   23.090">  2  9  1 -1</clus>
<clus scale="   94.991">  7  8 -1 -1</clus>
<clus scale="   98.935">  1  7  2 -1</clus>
<clus scale="  106.295">  5  6 -1 -1</clus>
<clus scale="   23.090">  2  5  1 -1</clus>
</clustering>
</event>
<event>
 9    1  0.1464797E-005  0.9685148E+02  0.7546771E-02  0.1289416E+00
          1   -1    0    0  502    0 -0.00000000000E+00  0.00000000000E+00  0.28277658324E+03  0.28277658324E+03  0.00000000000E+00 0. -1.
         21   -1    0    0  501  502  0.00000000000E+00 -0.00000000000E+00 -0.60712495537E+02  0.60712495537E+02  0.00000000000E+00 0. -1.
         23    2    1    2    0    0  0.16245817539E+02  0.90413948684E+01  0.13875918947E+03  0.16635206561E+03  0.89851119416E+02 0.  0.
         23    2    1    2    0    0  0.42205702498E+01 -0.40687728906E+02  0.92665649411E+02  0.13830420295E+03  0.94169132292E+02 0.  0.
        -11    1    4    4    0    0 -0.43101785601E+02 -0.21554226053E+02  0.62819658880E+02  0.79174857907E+02  0.00000000000E+00 0.  1.
         11    1    4    4    0    0  0.47322355851E+02 -0.19133502853E+02  0.29845990531E+02  0.59129345045E+02  0.00000000000E+00 0. -1.
        -11    1    3    3    0    0  0.13697718751E+02  0.48597450190E+02  0.61962976201E+02  0.79929657097E+02  0.00000000000E+00 0.  1.
         11    1    3    3    0    0  0.25480987886E+01 -0.39556055322E+02  0.76796213270E+02  0.86422408510E+02  0.00000000000E+00 0. -1.
          1    1    1    2  501    0 -0.20466387789E+02  0.31646334037E+02 -0.93607511757E+01  0.38832810222E+02  0.00000000000E+00 0. -1.
<scales pt_clust_5="13000.00000" pt_clust_6="13000.00000" pt_clust_7="13000.00000" pt_clust_8="13000.00000" pt_clust_9="37.68771"></scales>
<clustering>
<clus scale="   37.688">  2  9  1 -1</clus>
<clus scale="   89.851">  7  8 -1 -1</clus>
<clus scale="   92.659">  1  7  2 -1</clus>
<clus scale="   94.169">  5  6 -1 -1</clus>
<clus scale="   37.688">  2  5  1 -1</clus>
</clustering>
</event>
<event>
 9    1  0.1464797E-005  0.9806923E+02  0.7546771E-02  0.1288511E+00
         21   -1    0    0  501  502  0.00000000000E+00  0.00000000000E+00  0.12732557201E+03  0.12732557201E+03  0.00000000000E+00 0. -1.
          3   -1    0    0  502    0 -0.00000000000E+00 -0.00000000000E+00 -0.17985842012E+03  0.17985842012E+03  0.00000000000E+00 0. -1.
         23    2    1    2    0    0  0.39554255346E+02  0.40466434195E+01 -0.93606279410E+02  0.13455769459E+03  0.88106317540E+02 0.  0.
         23    2    1    2    0    0 -0.48563284959E+02  0.19776924185E+02 -0.27515854866E+02  0.99460628233E+02  0.79911043813E+02 0.  0.
        -11    1    4    4    0    0 -0.40307294730E+01  0.26340949497E+02  0.20517899340E+02  0.33631482183E+02  0.00000000000E+00 0.  1.
         11    1    4    4    0    0 -0.44532555486E+02 -0.65640253127E+01 -0.48033754207E+02  0.65829146050E+02  0.00000000000E+00 0. -1.
        -13    1    3    3    0    0 -0.26126898538E+00 -0.38148341527E+02 -0.30554717179E+02  0.48876936940E+02  0.00000000000E+00 0. -1.
         13    1    3    3    0    0  0.39815524331E+02  0.42194984946E+02 -0.63051562230E+02  0.85680757654E+02  0.00000000000E+00 0.  1.
          3    1    1    2  501    0  0.90090296131E+01 -0.23823567604E+02  0.68589286161E+02  0.73165669300E+02  0.00000000000E+00 0. -1.
<scales pt_clust_5="13000.00000" pt_clust_6="13000.00000" pt_clust_7="13000.00000" pt_clust_8="13000.00000" pt_clust_9="25.47008"></scales>
<clustering>
<clus scale="   25.470">  1  9  2 -1</clus>
<clus scale="   79.911">  5  6 -1 -1</clus>
<clus scale="   88.106">  7  8 -1 -1</clus>
<clus scale="   90.778">  1  5  2 -1</clus>
<clus scale="   25.470">  1  5  2 -1</clus>
</clustering>
</event>
<event>
 9    1  0.1464797E-005  0.1330900E+03  0.7546771E-02  0.1239735E+00
         21   -1    0    0  501  502  0.00000000000E+00  0.00000000000E+00  0.10842529806E+04  0.10842529806E+04  0.00000000000E+00 0.  1.
          1   -1    0    0  502    0 -0.00000000000E+00 -0.00000000000E+00 -0.25782363034E+02  0.25782363034E+02  0.00000000000E+00 0. -1.
         23    2    1    2    0    0  0.75000284181E+01  0.15607043868E+02  0.20700923950E+03  0.22741851842E+03  0.92555534866E+02 0.  0.
         23    2    1    2    0    0 -0.54412894974E+02  0.72873777406E+02  0.40487653491E+03  0.42494041670E+03  0.91531407998E+02 0.  0.
        -11    1    4    4    0    0 -0.20860293741E+02  0.89182998746E+02  0.29635470673E+03  0.31018522099E+03  0.00000000000E+00 0.  1.
         11    1    4    4    0    0 -0.33552601233E+02 -0.16309221341E+02  0.10852182819E+03  0.11475519571E+03  0.00000000000E+00 0. -1.
        -13    1    3    3    0    0 -0.22224613362E+02  0.25517933145E+02  0.18745345310E+03  0.19048332061E+03  0.00000000000E+00 0. -1.
         13    1    3    3    0    0  0.29724641780E+02 -0.99108892769E+01  0.19555786403E+02  0.36935197807E+02  0.00000000000E+00 0.  1.
          1    1    1    2  501    0  0.46912866556E+02 -0.88480821273E+02  0.44658484313E+03  0.45767640849E+03  0.00000000000E+00 0. -1.
<scales pt_clust_5="13000.00000" pt_clust_6="13000.00000" pt_clust_7="13000.00000" pt_clust_8="13000.00000" pt_clust_9="96.61758"></scales>
<clustering>
<clus scale="   91.531">  5  6 -1 -1</clus>
<clus scale="   92.556">  7  8 -1 -1</clus>
<clus scale="   94.161">  2  7  1 -1</clus>
<clus scale="   96.618">  1  9  2 -1</clus>
<clus scale="   96.618">  1  5  2 -1</clus>
</clustering>
</event>
<event>
 9    1  0.1464797E-005  0.9022848E+02  0.7546771E-02  0.1322248E+00
         21   -1    0    0  501  502  0.00000000000E+00  0.00000000000E+00  0.16704196580E+02  0.16704196580E+02  0.00000000000E+00 0.  1.
          2   -1    0    0  502    0 -0.00000000000E+00 -0.00000000000E+00 -0.55702851701E+03  0.55702851701E+03  0.00000000000E+00 0. -1.
         23    2    1    2    0    0  0.29582442563E+01 -0.12855985199E+02 -0.28267224625E+03  0.28982057149E+03  0.62596623667E+02 0.  0.
         23    2    1    2    0    0  0.60261585152E+01 -0.13406758645E+02 -0.18884078393E+03  0.20971345698E+03  0.90015757510E+02 0.  0.
        -11    1    3    3    0    0  0.28104710979E+02  0.76286528656E+01 -0.17368917789E+03  0.17611360436E+03  0.00000000000E+00 0.  1.
         11    1    3    3    0    0 -0.25146466723E+02 -0.20484638065E+02 -0.10898306836E+03  0.11370696713E+03  0.00000000000E+00 0. -1.
        -13    1    4    4    0    0  0.48095149581E+02 -0.81359452529E+01 -0.98269367802E+02  0.10970964254E+03  0.00000000000E+00 0.  1.
         13    1    4    4    0    0 -0.42068991066E+02 -0.52708133920E+01 -0.90571416131E+02  0.10000381444E+03  0.00000000000E+00 0. -1.
          2    1    1    2  501    0 -0.89844027715E+01  0.26262743844E+02 -0.68811290244E+02  0.74198685113E+02  0.00000000000E+00 0. -1.
<scales pt_clust_5="13000.00000" pt_clust_6="13000.00000" pt_clust_7="13000.00000" pt_clust_8="13000.00000" pt_clust_9="27.75700"></scales>
<clustering>
<clus scale="   27.757">  1  9  2 -1</clus>
<clus scale="   62.597">  5  6 -1 -1</clus>
<clus scale="   62.902">  2  5  1 -1</clus>
<clus scale="   90.016">  7  8 -1 -1</clus>
<clus scale="   27.757">  1  5  2 -1</clus>
</clustering>
</event>
<event>
 9    1  0.1464797E-005  0.9298319E+02  0.7546771E-02  0.1297172E+00
         -1   -1    0    0    0  501 -0.00000000000E+00  0.00000000000E+00  0.45134790707E+03  0.45134790707E+03  0.00000000000E+00 0.  1.
         21   -1    0    0  501  502  0.00000000000E+00 -0.00000000000E+00 -0.31159439441E+02  0.31159439441E+02  0.00000000000E+00 0. -1.
         23    2    1    2    0    0  0.59174000203E+01  0.16107119638E+02  0.25073195718E+03  0.26787428532E+03  0.92712800935E+02 0.  0.
         23    2    1    2    0    0 -0.57667524064E+01  0.13292403144E+02  0.15896504502E+03  0.18341727221E+03  0.90344157491E+02 0.  0.
        -11    1    3    3    0    0 -0.27123117251E+02 -0.26968560129E+02  0.79120354052E+02  0.87880584603E+02  0.00000000000E+00 0.  1.
         11    1    3    3    0    0  0.33040517271E+02  0.43075679767E+02  0.17161160313E+03  0.17999370072E+03  0.00000000000E+00 0. -1.
        -13    1    4    4    0    0 -0.15647693741E+02 -0.34118669183E+02  0.39407104509E+02  0.54422916056E+02  0.00000000000E+00 0.  1.
         13    1    4    4    0    0  0.98809413343E+01  0.47411072327E+02  0.11955794051E+03  0.12899435616E+03  0.00000000000E+00 0. -1.
         -1    1    1    2    0  502 -0.15064761392E+00 -0.29399522782E+02  0.10491465420E+02  0.31215788972E+02  0.00000000000E+00 0.  1.
<scales pt_clust_5="13000.00000" pt_clust_6="13000.00000" pt_clust_7="13000.00000" pt_clust_8="13000.00000" pt_clust_9="29.39991"></scales>
<clustering>
<clus scale="   29.400">  2  9  1 -1</clus>
<clus scale="   90.344">  7  8 -1 -1</clus>
<clus scale="   90.622">  2  7  1 -1</clus>
<clus scale="   92.713">  5  6 -1 -1</clus>
<clus scale="   29.400">  2  5  1 -1</clus>
</clustering>
</event>
<event>
 9    1  0.1464797E-005  0.1376404E+03  0.7546771E-02  0.1216939E+00
         -3   -1    0    0    0  501 -0.00000000000E+00  0.00000000000E+00  0.42927190080E+03  0.42927190080E+03  0.00000000000E+00 0.  1.
         21   -1    0    0  501  502  0.00000000000E+00 -0.00000000000E+00 -0.16166551617E+03  0.16166551617E+03  0.00000000000E+00 0.  1.
         23    2    1    2    0    0 -0.74715730519E+02 -0.26672222985E+02  0.19884755066E+03  0.23263820537E+03  0.91029326759E+02 0.  0.
         23    2    1    2    0    0  0.18988323386E+03  0.26868157699E+02  0.10508868743E+03  0.23753725372E+03  0.92751141679E+02 0.  0.
        -11    1    3    3    0    0  0.58449153384E+01 -0.38814279803E+02  0.66930692070E+02  0.77591422805E+02  0.00000000000E+00 0. -1.
         11    1    3    3    0    0 -0.80560645857E+02  0.12142056819E+02  0.13191685859E+03  0.15504678257E+03  0.00000000000E+00 0.  1.
        -13    1    4    4    0    0  0.10712477989E+03  0.27415191733E+02  0.93284689429E+01  0.11096995781E+03  0.00000000000E+00 0. -1.
         13    1    4    4    0    0  0.82758453967E+02 -0.54703403321E+00  0.95760218489E+02  0.12656729591E+03  0.00000000000E+00 0.  1.
         -3    1    1    2    0  502 -0.11516750334E+03 -0.19593471466E+00 -0.36329853461E+02  0.12076195787E+03  0.00000000000E+00 0.  1.
<scales pt_clust_5="13000.00000" pt_clust_6="13000.00000" pt_clust_7="13000.00000" pt_clust_8="13000.00000" pt_clust_9="115.16767"></scales>
<clustering>
<clus scale="   91.029">  5  6 -1 -1</clus>
<clus scale="   92.751">  7  8 -1 -1</clus>
<clus scale="  115.168">  2  9  1 -1</clus>
<clus scale="  136.486">  1  5  2 -1</clus>
<clus scale="  115.168">  2  5  1 -1</clus>
</clustering>
</event>
<event>
 9    1  0.1464797E-005  0.9347617E+02  0.7546771E-02  0.1305137E+00
          1   -1    0    0  502    0 -0.00000000000E+00  0.00000000000E+00  0.40840188814E+03  0.40840188814E+03  0.00000000000E+00 0. -1.
         21   -1    0    0  501  502  0.00000000000E+00 -0.00000000000E+00 -0.38304244351E+02  0.38304244351E+02  0.00000000000E+00 0. -1.
         23    2    1    2    0    0  0.14630742040E+01  0.92289774709E+01  0.83761566966E+02  0.11228973782E+03  0.74200205573E+02 0.  0.
         23    2    1    2    0    0 -0.44489304949E+02 -0.90467508867E+01  0.98363846688E+02  0.14158266049E+03  0.91154053442E+02 0.  0.
        -11    1    4    4    0    0 -0.22444252622E+02 -0.46411937303E+02  0.27334679482E+02  0.58352353014E+02  0.00000000000E+00 0.  1.
         11    1    4    4    0    0 -0.22045052326E+02  0.37365186416E+02  0.71029167206E+02  0.83230307473E+02  0.00000000000E+00 0. -1.
        -13    1    3    3    0    0  0.18494715441E+02 -0.23723442571E+02  0.62922858308E+02  0.69743403446E+02  0.00000000000E+00 0.  1.
         13    1    3    3    0    0 -0.17031641237E+02  0.32952420042E+02  0.20838708658E+02  0.42546334370E+02  0.00000000000E+00 0. -1.
          1    1    1    2  501    0  0.43026230745E+02 -0.18222658419E+00  0.18797223014E+03  0.19283373419E+03  0.00000000000E+00 0. -1.
<scales pt_clust_5="13000.00000" pt_clust_6="13000.00000" pt_clust_7="13000.00000" pt_clust_8="13000.00000" pt_clust_9="43.02664"></scales>
<clustering>
<clus scale="   43.027">  2  9  1 -1</clus>
<clus scale="   74.200">  7  8 -1 -1</clus>
<clus scale="   77.035">  1  7  2 -1</clus>
<clus scale="   91.154">  5  6 -1 -1</clus>
<clus scale="   43.027">  2  5  1 -1</clus>
</clustering>
</event>
<event>
 9    1  0.1464797E-005  0.1337668E+03  0.7546771E-02  0.1223442E+00
          2   -1    0    0  502    0 -0.00000000000E+00  0.00000000000E+00  0.30591364859E+03  0.30591364859E+03  0.00000000000E+00 0. -1.
         21   -1    0    0  501  502  0.00000000000E+00 -0.00000000000E+00 -0.98316430126E+02  0.98316430126E+02  0.00000000000E+00 0. -1.
         23    2    1    2    0    0  0.80183117991E+02 -0.21168412781E+02  0.16227462541E+03  0.20632923095E+03  0.96753622058E+02 0.  0.
         23    2    1    2    0    0 -0.10346395633E+03  0.54914261550E+02  0.50153828368E+02  0.15661985241E+03  0.91071429587E+02 0.  0.
        -13    1    4    4    0    0 -0.82880521620E+02  0.68269920076E+02  0.67264449208E+02  0.12670623102E+03  0.00000000000E+00 0.  1.
         13    1    4    4    0    0 -0.20583434714E+02 -0.13355658526E+02 -0.17110620840E+02  0.29913621393E+02  0.00000000000E+00 0. -1.
        -13    1    3    3    0    0  0.52062650580E+00  0.31775462732E+02  0.40604055356E+02  0.51562005344E+02  0.00000000000E+00 0.  1.
         13    1    3    3    0    0  0.79662491486E+02 -0.52943875512E+02  0.12167057005E+03  0.15476722560E+03  0.00000000000E+00 0. -1.
          2    1    1    2  501    0  0.23280838343E+02 -0.33745848769E+02 -0.48312353130E+01  0.41280995358E+02  0.00000000000E+00 0. -1.
<scales pt_clust_5="13000.00000" pt_clust_6="13000.00000" pt_clust_7="13000.00000" pt_clust_8="13000.00000" pt_clust_9="40.99731"></scales>
<clustering>
<clus scale="   40.997">  2  9  1 -1</clus>
<clus scale="   91.071">  5  6 -1 -1</clus>
<clus scale="   96.754">  7  8 -1 -1</clus>
<clus scale="  129.716">  2  5  1 -1</clus>
<clus scale="   40.997">  2  5  1 -1</clus>
</clustering>
</event>
<event>
 9    1  0.1464797E-005  0.1062772E+03  0.7546771E-02  0.1269387E+00
          1   -1    0    0  502    0 -0.00000000000E+00  0.00000000000E+00  0.21748097703E+03  0.21748097703E+03  0.00000000000E+00 0. -1.
         21   -1    0    0  501  502  0.00000000000E+00 -0.00000000000E+00 -0.91105730850E+02  0.91105730850E+02  0.00000000000E+00 0.  1.
         23    2    1    2    0    0 -0.25614152148E+02  0.20228915498E+02  0.88644891135E+02  0.13706562279E+03  0.99316536453E+02 0.  0.
         23    2    1    2    0    0  0.58280427394E+02  0.42525176356E+00 -0.73903941825E+01  0.11211096664E+03  0.95485401284E+02 0.  0.
        -11    1    4    4    0    0  0.22812864348E+01 -0.40841684571E+02 -0.11305553993E+02  0.42438932803E+02  0.00000000000E+00 0. -1.
         11    1    4    4    0    0  0.55999140960E+02  0.41266936334E+02  0.39151598105E+01  0.69672033837E+02  0.00000000000E+00 0.  1.
        -13    1    3    3    0    0 -0.61216134627E+02  0.12948471872E+02  0.76326882929E+02  0.98695851585E+02  0.00000000000E+00 0.  1.
         13    1    3    3    0    0  0.35601982479E+02  0.72804436259E+01  0.12318008206E+02  0.38369771201E+02  0.00000000000E+00 0. -1.
          1    1    1    2  501    0 -0.32666275247E+02 -0.20654167261E+02  0.45120749225E+02  0.59410118451E+02  0.00000000000E+00 0. -1.
<scales pt_clust_5="13000.00000" pt_clust_6="13000.00000" pt_clust_7="13000.00000" pt_clust_8="13000.00000" pt_clust_9="38.64818"></scales>
<clustering>
<clus scale="   38.648">  2  9  1 -1</clus>
<clus scale="   95.485">  5  6 -1 -1</clus>
<clus scale="   99.317">  7  8 -1 -1</clus>
<clus scale="  102.706">  2  5  1 -1</clus>
<clus scale="   38.648">  2  5  1 -1</clus>
</clustering>
</event>
<event>
 9    1  0.1464797E-005  0.1120052E+03  0.7546771E-02  0.1257669E+00
         21   -1    0    0  501  502  0.00000000000E+00  0.00000000000E+00  0.16610283171E+03  0.16610283171E+03  0.00000000000E+00 0. -1.
          2   -1    0    0  502    0 -0.00000000000E+00 -0.00000000000E+00 -0.42043624678E+03  0.42043624678E+03  0.00000000000E+00 0. -1.
         23    2    1    2    0    0 -0.34498640521E+02 -0.35129678804E+02 -0.23678115256E+03  0.25832909104E+03  0.90798428076E+02 0.  0.
         23    2    1    2    0    0  0.12989943847E+03  0.20473471617E+02 -0.10967500927E+03  0.19478316433E+03  0.92837741752E+02 0.  0.
        -11    1    4    4    0    0  0.73580633037E+02  0.26958787705E+02 -0.11354368544E+03  0.13796033595E+03  0.00000000000E+00 0. -1.
         11    1    4    4    0    0  0.56318805429E+02 -0.64853160881E+01  0.38686761654E+01  0.56822828379E+02  0.00000000000E+00 0.  1.
        -13    1    3    3    0    0  0.14536377025E+02  0.20848793056E+02 -0.34940830363E+02  0.43206944526E+02  0.00000000000E+00 0. -1.
         13    1    3    3    0    0 -0.49035017546E+02 -0.55978471859E+02 -0.20184032219E+03  0.21512214651E+03  0.00000000000E+00 0.  1.
          2    1    1    2  501    0 -0.95400797946E+02  0.14656207187E+02  0.92122746756E+02  0.13342682312E+03  0.00000000000E+00 0. -1.
<scales pt_clust_5="13000.00000" pt_clust_6="13000.00000" pt_clust_7="13000.00000" pt_clust_8="13000.00000" pt_clust_9="96.52003"></scales>
<clustering>
<clus scale="   90.798">  7  8 -1 -1</clus>
<clus scale="   92.838">  5  6 -1 -1</clus>
<clus scale="   96.520">  1  9  2 -1</clus>
<clus scale="  110.321">  2  7  1 -1</clus>
<clus scale="   96.520">  1  5  2 -1</clus>
</clustering>
</event>
<event>
 9    1  0.1464797E-005  0.1066974E+03  0.7546771E-02  0.1267567E+00
         21   -1    0    0  501  502  0.00000000000E+00  0.00000000000E+00  0.34852676328E+02  0.34852676328E+02  0.00000000000E+00 0.  1.
          3   -1    0    0  502    0 -0.00000000000E+00 -0.00000000000E+00 -0.48149758659E+03  0.48149758659E+03  0.00000000000E+00 0. -1.
         23    2    1    2    0    0  0.53291385992E+02  0.39519202137E+01 -0.26364608406E+03  0.28359416510E+03  0.89781976703E+02 0.  0.
         23    2    1    2    0    0 -0.56412267926E+02  0.27913697113E+02 -0.13221777974E+03  0.17272383856E+03  0.91599479645E+02 0.  0.
        -11    1    4    4    0    0 -0.80391872504E+02  0.96370370159E+01 -0.97839476900E+02  0.12699720031E+03  0.00000000000E+00 0.  1.
         11    1    4    4    0    0  0.23979604578E+02  0.18276660097E+02 -0.34378302836E+02  0.45726638252E+02  0.00000000000E+00 0. -1.
        -13    1    3    3    0    0  0.25133668849E+02  0.46625738503E+02 -0.12195320458E+03  0.13295956117E+03  0.00000000000E+00 0. -1.
         13    1    3    3    0    0  0.28157717143E+02 -0.42673818289E+02 -0.14169287949E+03  0.15063460392E+03  0.00000000000E+00 0.  1.
          3    1    1    2  501    0  0.31208819340E+01 -0.31865617326E+02 -0.50781046469E+02  0.60032259262E+02  0.00000000000E+00 0. -1.
<scales pt_clust_5="13000.00000" pt_clust_6="13000.00000" pt_clust_7="13000.00000" pt_clust_8="13000.00000" pt_clust_9="32.01808"></scales>
<clustering>
<clus scale="   32.018">  1  9  2 -1</clus>
<clus scale="   89.782">  7  8 -1 -1</clus>
<clus scale="   91.599">  5  6 -1 -1</clus>
<clus scale="  105.141">  2  7  1 -1</clus>
<clus scale="   32.018">  1  5  2 -1</clus>
</clustering>
</event>
<event>
 9    1  0.1464797E-005  0.4197776E+03  0.7546771E-02  0.1037169E+00
         21   -1    0    0  501  502  0.00000000000E+00  0.00000000000E+00  0.58759408157E+03  0.58759408157E+03  0.00000000000E+00 0. -1.
          2   -1    0    0  502    0 -0.00000000000E+00 -0.00000000000E+00 -0.12235098933E+04  0.12235098933E+04  0.00000000000E+00 0. -1.
         23    2    1    2    0    0  0.35121756692E+03  0.17375810258E+03 -0.82819397326E+03  0.92085632269E+03  0.92333375080E+02 0.  0.
         23    2    1    2    0    0 -0.42719716487E+03 -0.20508740580E+03 -0.17550068852E+03  0.51339793791E+03  0.90656986975E+02 0.  0.
        -11    1    4    4    0    0 -0.13847140723E+03 -0.79982693814E+02 -0.10386674807E+03  0.19068262450E+03  0.00000000000E+00 0.  1.
         11    1    4    4    0    0 -0.28872575764E+03 -0.12510471199E+03 -0.71633940447E+02  0.32271531341E+03  0.00000000000E+00 0. -1.
        -11    1    3    3    0    0  0.29898131087E+03  0.13659986426E+03 -0.60369255983E+03  0.68738202912E+03  0.00000000000E+00 0. -1.
         11    1    3    3    0    0  0.52236256049E+02  0.37158238323E+02 -0.22450141344E+03  0.23347429357E+03  0.00000000000E+00 0.  1.
          2    1    1    2  501    0  0.75979597951E+02  0.31329303217E+02  0.36777885009E+03  0.37684971424E+03  0.00000000000E+00 0. -1.
<scales pt_clust_5="13000.00000" pt_clust_6="13000.00000" pt_clust_7="13000.00000" pt_clust_8="13000.00000" pt_clust_9="82.18531"></scales>
<clustering>
<clus scale="   82.185">  1  9  2 -1</clus>
<clus scale="   90.657">  5  6 -1 -1</clus>
<clus scale="   92.333">  7  8 -1 -1</clus>
<clus scale="  419.412">  1  5  2 -1</clus>
<clus scale="   82.185">  1  5  2 -1</clus>
</clustering>
</event>
<event>
 9    1  0.1464797E-005  0.2001479E+03  0.7546771E-02  0.1149986E+00
         21   -1    0    0  501  502  0.00000000000E+00  0.00000000000E+00  0.89452977132E+02  0.89452977132E+02  0.00000000000E+00 0.  1.
          1   -1    0    0  502    0 -0.00000000000E+00 -0.00000000000E+00 -0.11759801052E+04  0.11759801052E+04  0.00000000000E+00 0. -1.
         23    2    1    2    0    0 -0.15669057153E+03  0.63372788668E+02 -0.86022372860E+03  0.88231798431E+03  0.99660005276E+02 0.  0.
         23    2    1    2    0    0  0.17969719272E+03 -0.59420257744E+02 -0.26401708769E+03  0.33876141281E+03  0.96085504204E+02 0.  0.
        -11    1    4    4    0    0  0.13508350064E+03 -0.44869232473E+02 -0.25341132292E+03  0.29065116334E+03  0.00000000000E+00 0.  1.
         11    1    4    4    0    0  0.44613692079E+02 -0.14551025272E+02 -0.10605764761E+02  0.48110249465E+02  0.00000000000E+00 0. -1.
        -13    1    3    3    0    0 -0.31905650953E+02 -0.50301886712E+01 -0.48869676928E+02  0.58579165954E+02  0.00000000000E+00 0.  1.
         13    1    3    3    0    0 -0.12478492057E+03  0.68402977339E+02 -0.81135405167E+03  0.82373881836E+03  0.00000000000E+00 0. -1.
          1    1    1    2  501    0 -0.23006621189E+02 -0.39525309238E+01  0.37713688177E+02  0.44353685248E+02  0.00000000000E+00 0. -1.
<scales pt_clust_5="13000.00000" pt_clust_6="13000.00000" pt_clust_7="13000.00000" pt_clust_8="13000.00000" pt_clust_9="23.34367"></scales>
<clustering>
<clus scale="   23.344">  1  9  2 -1</clus>
<clus scale="   96.086">  5  6 -1 -1</clus>
<clus scale="   99.660">  7  8 -1 -1</clus>
<clus scale="  198.392">  1  5  2 -1</clus>
<clus scale="   23.344">  1  5  2 -1</clus>
</clustering>
</event>
<event>
 9    1  0.1464797E-005  0.1670697E+03  0.7546771E-02  0.1181986E+00
         21   -1    0    0  501  502  0.00000000000E+00  0.00000000000E+00  0.36033225193E+02  0.36033225193E+02  0.00000000000E+00 0. -1.
          2   -1    0    0  502    0 -0.00000000000E+00 -0.00000000000E+00 -0.14584640474E+04  0.14584640474E+04  0.00000000000E+00 0. -1.
         23    2    1    2    0    0 -0.10731225121E+03 -0.51307613230E+02 -0.68786991981E+03  0.70433504058E+03  0.93671940205E+02 0.  0.
         23    2    1    2    0    0  0.14956306810E+03  0.42848472118E+02 -0.72189935997E+03  0.74525117263E+03  0.10027722311E+03 0.  0.
        -11    1    3    3    0    0 -0.26964894004E+02 -0.63450427994E+02 -0.27205975419E+03  0.28065917440E+03  0.00000000000E+00 0. -1.
         11    1    3    3    0    0 -0.80347357208E+02  0.12142814764E+02 -0.41581016562E+03  0.42367586619E+03  0.00000000000E+00 0.  1.
        -13    1    4    4    0    0 -0.18834362462E+01  0.33203049325E+02 -0.13873073172E+03  0.14266115709E+03  0.00000000000E+00 0.  1.
         13    1    4    4    0    0  0.15144650435E+03  0.96454227932E+01 -0.58316862825E+03  0.60259001554E+03  0.00000000000E+00 0. -1.
          2    1    1    2  501    0 -0.42250816891E+02  0.84591411121E+01 -0.12661542403E+02  0.44911059354E+02  0.00000000000E+00 0. -1.
<scales pt_clust_5="13000.00000" pt_clust_6="13000.00000" pt_clust_7="13000.00000" pt_clust_8="13000.00000" pt_clust_9="43.08931"></scales>
<clustering>
<clus scale="   43.089">  1  9  2 -1</clus>
<clus scale="   93.672">  5  6 -1 -1</clus>
<clus scale="  100.277">  7  8 -1 -1</clus>
<clus scale="  163.191">  2  5  1 -1</clus>
<clus scale="   43.089">  1  5  2 -1</clus>
</clustering>
</event>
<event>
 9    1  0.1464797E-005  0.1005212E+03  0.7546771E-02  0.1281959E+00
          3   -1    0    0  502    0 -0.00000000000E+00  0.00000000000E+00  0.12850707050E+03  0.12850707050E+03  0.00000000000E+00 0. -1.
         21   -1    0    0  501  502  0.00000000000E+00 -0.00000000000E+00 -0.27391380363E+03  0.27391380363E+03  0.00000000000E+00 0.  1.
         23    2    1    2    0    0  0.12515695852E+02  0.17028097187E+02  0.73823058752E+02  0.12007482053E+03  0.92312078221E+02 0.  0.
         23    2    1    2    0    0  0.87934880692E+01 -0.63510794193E+02 -0.19117632446E+03  0.22402179214E+03  0.97603431846E+02 0.  0.
        -11    1    4    4    0    0 -0.25645513688E+02 -0.75435747600E+02 -0.11974312914E+03  0.14382858327E+03  0.00000000000E+00 0.  1.
         11    1    4    4    0    0  0.34439001757E+02  0.11924953407E+02 -0.71433195323E+02  0.80193208876E+02  0.00000000000E+00 0. -1.
        -11    1    3    3    0    0  0.39792400177E+02  0.21600243210E+02  0.45744940238E+01  0.45507489648E+02  0.00000000000E+00 0.  1.
         11    1    3    3    0    0 -0.27276704324E+02 -0.45721460222E+01  0.69248564728E+02  0.74567330883E+02  0.00000000000E+00 0. -1.
          3    1    1    2  501    0 -0.21309183921E+02  0.46482697006E+02 -0.28053467421E+02  0.58324261458E+02  0.00000000000E+00 0. -1.
<scales pt_clust_5="13000.00000" pt_clust_6="13000.00000" pt_clust_7="13000.00000" pt_clust_8="13000.00000" pt_clust_9="51.13436"></scales>
<clustering>
<clus scale="   51.134">  2  9  1 -1</clus>
<clus scale="   92.312">  7  8 -1 -1</clus>
<clus scale="   95.392">  1  7  2 -1</clus>
<clus scale="   97.603">  5  6 -1 -1</clus>
<clus scale="   51.134">  2  5  1 -1</clus>
</clustering>
</event>
<event>
 9    1  0.1464797E-005  0.1914791E+03  0.7546771E-02  0.1168867E+00
          2   -1    0    0  502    0 -0.00000000000E+00  0.00000000000E+00  0.49537792042E+03  0.49537792042E+03  0.00000000000E+00 0. -1.
         21   -1    0    0  501  502  0.00000000000E+00 -0.00000000000E+00 -0.20319454303E+03  0.20319454303E+03  0.00000000000E+00 0. -1.
         23    2    1    2    0    0 -0.95463505375E+02 -0.65523378229E+02 -0.19297603238E+02  0.14719468899E+03  0.88810388032E+02 0.  0.
         23    2    1    2    0    0 -0.67218703834E+02  0.13936825309E+03  0.32589110135E+03  0.37213989255E+03  0.91330310267E+02 0.  0.
        -11    1    3    3    0    0 -0.27286027247E+02  0.18509780534E+02  0.11107867571E+02  0.34792585134E+02  0.00000000000E+00 0.  1.
         11    1    3    3    0    0 -0.68177478128E+02 -0.84033158763E+02 -0.30405470809E+02  0.11240210385E+03  0.00000000000E+00 0. -1.
        -13    1    4    4    0    0 -0.17816874145E+02  0.66073798705E+02  0.56899935498E+02  0.88998823246E+02  0.00000000000E+00 0.  1.
         13    1    4    4    0    0 -0.49401829688E+02  0.73294454387E+02  0.26899116585E+03  0.28314106930E+03  0.00000000000E+00 0. -1.
          2    1    1    2  501    0  0.16268220921E+03 -0.73844874863E+02 -0.14410120720E+02  0.17923788192E+03  0.00000000000E+00 0. -1.
<scales pt_clust_5="13000.00000" pt_clust_6="13000.00000" pt_clust_7="13000.00000" pt_clust_8="13000.00000" pt_clust_9="168.29448"></scales>
<clustering>
<clus scale="   88.810">  5  6 -1 -1</clus>
<clus scale="   91.330">  7  8 -1 -1</clus>
<clus scale="  145.924">  1  5  2 -1</clus>
<clus scale="  168.294">  2  9  1 -1</clus>
<clus scale="  168.294">  2  5  1 -1</clus>
</clustering>
</event>
<event>
 9    1  0.1464797E-005  0.9157156E+02  0.7546771E-02  0.1299795E+00
          2   -1    0    0  502    0 -0.00000000000E+00  0.00000000000E+00  0.62476982360E+03  0.62476982360E+03  0.00000000000E+00 0. -1.
         21   -1    0    0  501  502  0.00000000000E+00 -0.00000000000E+00 -0.56609995125E+02  0.56609995125E+02  0.00000000000E+00 0.  1.
         23    2    1    2    0    0  0.66042236149E+01 -0.14632532268E+02  0.36637339235E+03  0.37738067739E+03  0.89044855425E+02 0.  0.
         23    2    1    2    0    0 -0.59763703722E+02 -0.34511958258E+02  0.29884769267E+02  0.11747489534E+03  0.90246750943E+02 0.  0.
        -11    1    4    4    0    0 -0.88361657881E+01 -0.49549430451E+02 -0.96814984223E+01  0.51253832008E+02  0.00000000000E+00 0. -1.
         11    1    4    4    0    0 -0.50927537934E+02  0.15037472193E+02  0.39566267690E+02  0.66221063332E+02  0.00000000000E+00 0.  1.
        -13    1    3    3    0    0 -0.38650127669E+02  0.84708928963E+01  0.15155032765E+03  0.15663042555E+03  0.00000000000E+00 0.  1.
         13    1    3    3    0    0  0.45254351284E+02 -0.23103425164E+02  0.21482306469E+03  0.22075025184E+03  0.00000000000E+00 0. -1.
          2    1    1    2  501    0  0.53159480107E+02  0.49144490526E+02  0.17190166686E+03  0.18652424599E+03  0.00000000000E+00 0. -1.
<scales pt_clust_5="13000.00000" pt_clust_6="13000.00000" pt_clust_7="13000.00000" pt_clust_8="13000.00000" pt_clust_9="72.39556"></scales>
<clustering>
<clus scale="   72.396">  2  9  1 -1</clus>
<clus scale="   89.045">  7  8 -1 -1</clus>
<clus scale="   90.247">  5  6 -1 -1</clus>
<clus scale="   90.387">  1  7  2 -1</clus>
<clus scale="   72.396">  2  5  1 -1</clus>
</clustering>
</event>
<event>
 9    1  0.1464797E-005  0.9455142E+02  0.7546771E-02  0.1296722E+00
         21   -1    0    0  501  502  0.00000000000E+00  0.00000000000E+00  0.43397918502E+02  0.43397918502E+02  0.00000000000E+00 0. -1.
         -1   -1    0    0    0  501 -0.00000000000E+00 -0.00000000000E+00 -0.33800699223E+03  0.33800699223E+03  0.00000000000E+00 0.  1.
         23    2    1    2    0    0  0.14153620641E+02 -0.29510569874E+02 -0.22647091882E+03  0.24324737805E+03  0.82516732523E+02 0.  0.
         23    2    1    2    0    0  0.15057982973E+01  0.90596609644E+01 -0.38268557025E+02  0.98715804089E+02  0.90531666475E+02 0.  0.
        -11    1    4    4    0    0 -0.18757414217E+02 -0.11027706844E+02 -0.59367709082E+02  0.63229548377E+02  0.00000000000E+00 0.  1.
         11    1    4    4    0    0  0.20263212514E+02  0.20087367809E+02  0.21099152057E+02  0.35486255711E+02  0.00000000000E+00 0. -1.
        -11    1    3    3    0    0  0.12225027275E+02  0.21124212176E+02 -0.22910399847E+02  0.33474916775E+02  0.00000000000E+00 0. -1.
         11    1    3    3    0    0  0.19285933657E+01 -0.50634782050E+02 -0.20356051897E+03  0.20977246127E+03  0.00000000000E+00 0.  1.
         -1    1    1    2    0  502 -0.15659418939E+02  0.20450908910E+02 -0.29869597890E+02  0.39441728599E+02  0.00000000000E+00 0.  1.
<scales pt_clust_5="13000.00000" pt_clust_6="13000.00000" pt_clust_7="13000.00000" pt_clust_8="13000.00000" pt_clust_9="25.75766"></scales>
<clustering>
<clus scale="   25.758">  1  9  2 -1</clus>
<clus scale="   82.517">  7  8 -1 -1</clus>
<clus scale="   86.908">  2  7  1 -1</clus>
<clus scale="   90.532">  5  6 -1 -1</clus>
<clus scale="   25.758">  1  5  2 -1</clus>
</clustering>
</event>
<event>
 9    1  0.1464797E-005  0.1986698E+03  0.7546771E-02  0.1151846E+00
          1   -1    0    0  502    0 -0.00000000000E+00  0.00000000000E+00  0.97738946041E+03  0.97738946041E+03  0.00000000000E+00 0. -1.
         21   -1    0    0  501  502  0.00000000000E+00 -0.00000000000E+00 -0.26276914486E+03  0.26276914486E+03  0.00000000000E+00 0. -1.
         23    2    1    2    0    0  0.18095357294E+03  0.41183279534E+02  0.78131424068E+03  0.80930446199E+03  0.10040673009E+03 0.  0.
         23    2    1    2    0    0 -0.13540753746E+03 -0.47038555033E+01  0.14062967991E+03  0.21547478742E+03  0.91078810304E+02 0.  0.
        -11    1    4    4    0    0 -0.13038159584E+03 -0.29630628021E+02  0.97768487312E+02  0.16563819536E+03  0.00000000000E+00 0.  1.
         11    1    4    4    0    0 -0.50259416127E+01  0.24926772518E+02  0.42861192595E+02  0.49836592058E+02  0.00000000000E+00 0. -1.
        -11    1    3    3    0    0  0.10998018644E+03 -0.24469596560E+02  0.36966633037E+03  0.38645516994E+03  0.00000000000E+00 0.  1.
         11    1    3    3    0    0  0.70973386499E+02  0.65652876093E+02  0.41164791031E+03  0.42284929206E+03  0.00000000000E+00 0. -1.
          1    1    1    2  501    0 -0.45546035481E+02 -0.36479424030E+02 -0.20732360503E+03  0.21537935586E+03  0.00000000000E+00 0. -1.
<scales pt_clust_5="13000.00000" pt_clust_6="13000.00000" pt_clust_7="13000.00000" pt_clust_8="13000.00000" pt_clust_9="58.35400"></scales>
<clustering>
<clus scale="   58.354">  2  9  1 -1</clus>
<clus scale="   91.079">  5  6 -1 -1</clus>
<clus scale="  100.407">  7  8 -1 -1</clus>
<clus scale="  194.122">  2  5  1 -1</clus>
<clus scale="   58.354">  2  5  1 -1</clus>
</clustering>
</event>
<event>
 9    1  0.1464797E-005  0.1578899E+03  0.7546771E-02  0.1191446E+00
         21   -1    0    0  501  502  0.00000000000E+00  0.00000000000E+00  0.57631982739E+03  0.57631982739E+03  0.00000000000E+00 0. -1.
          1   -1    0    0  502    0 -0.00000000000E+00 -0.00000000000E+00 -0.20270498553E+03  0.20270498553E+03  0.00000000000E+00 0. -1.
         23    2    1    2    0    0  0.14699725993E+03 -0.55185200921E+02 -0.11181935569E+03  0.21343278856E+03  0.91631796333E+02 0.  0.
         23    2    1    2    0    0 -0.71612841763E+02  0.24152069733E+02  0.58547116096E+02  0.13099054479E+03  0.89549072824E+02 0.  0.
        -13    1    3    3    0    0  0.14958163466E+01 -0.30781227253E+02 -0.36548097954E+02  0.47806745150E+02  0.00000000000E+00 0.  1.
         13    1    3    3    0    0  0.14550144358E+03 -0.24403973668E+02 -0.75271257737E+02  0.16562604341E+03  0.00000000000E+00 0. -1.
        -13    1    4    4    0    0 -0.91505157843E+02  0.89544082570E+01  0.42799099613E+02  0.10141567072E+03  0.00000000000E+00 0.  1.
         13    1    4    4    0    0  0.19892316080E+02  0.15197661476E+02  0.15748016484E+02  0.29574874075E+02  0.00000000000E+00 0. -1.
          1    1    1    2  501    0 -0.75384418167E+02  0.31033131189E+02  0.42688708145E+03  0.43460147957E+03  0.00000000000E+00 0. -1.
<scales pt_clust_5="13000.00000" pt_clust_6="13000.00000" pt_clust_7="13000.00000" pt_clust_8="13000.00000" pt_clust_9="81.52218"></scales>
<clustering>
<clus scale="   81.522">  1  9  2 -1</clus>
<clus scale="   89.549">  7  8 -1 -1</clus>
<clus scale="   91.632">  5  6 -1 -1</clus>
<clus scale="  156.690">  1  7  2 -1</clus>
<clus scale="   81.522">  1  5  2 -1</clus>
</clustering>
</event>
<event>
 9    1  0.1464797E-005  0.9416641E+02  0.7546771E-02  0.1293111E+00
         -3   -1    0    0    0  501 -0.00000000000E+00  0.00000000000E+00  0.11680756323E+03  0.11680756323E+03  0.00000000000E+00 0.  1.
         21   -1    0    0  501  502  0.00000000000E+00 -0.00000000000E+00 -0.12940226396E+03  0.12940226396E+03  0.00000000000E+00 0. -1.
         23    2    1    2    0    0 -0.15837373973E+01  0.33590011374E+02  0.58779132942E+02  0.11220491269E+03  0.89465964896E+02 0.  0.
         23    2    1    2    0    0 -0.10090533622E+02 -0.14938549358E+02 -0.59280216416E+02  0.10889672425E+03  0.89550954036E+02 0.  0.
        -13    1    4    4    0    0 -0.44215069647E+02 -0.44312098935E+00 -0.69447271965E+01  0.44759333953E+02  0.00000000000E+00 0. -1.
         13    1    4    4    0    0  0.34124536025E+02 -0.14495428368E+02 -0.52335489219E+02  0.64137390299E+02  0.00000000000E+00 0.  1.
        -13    1    3    3    0    0  0.23330201508E+02 -0.37653682804E+01  0.62824006010E+02  0.67121770178E+02  0.00000000000E+00 0.  1.
         13    1    3    3    0    0 -0.24913938905E+02  0.37355379654E+02 -0.40448730680E+01  0.45083142515E+02  0.00000000000E+00 0. -1.
         -3    1    1    2    0  502  0.11674271019E+02 -0.18651462016E+02 -0.12093617256E+02  0.25108190247E+02  0.00000000000E+00 0.  1.
<scales pt_clust_5="13000.00000" pt_clust_6="13000.00000" pt_clust_7="13000.00000" pt_clust_8="13000.00000" pt_clust_9="22.00376"></scales>
<clustering>
<clus scale="   22.004">  2  9  1 -1</clus>
<clus scale="   89.466">  7  8 -1 -1</clus>
<clus scale="   89.551">  5  6 -1 -1</clus>
<clus scale="   94.086">  1  7  2 -1</clus>
<clus scale="   22.004">  2  5  1 -1</clus>
</clustering>
</event>
<event>
 9    1  0.1464797E-005  0.1145152E+03  0.7546771E-02  0.1253679E+00
         21   -1    0    0  501  502  0.00000000000E+00  0.00000000000E+00  0.66011750761E+02  0.66011750761E+02  0.00000000000E+00 0. -1.
          2   -1    0    0  502    0 -0.00000000000E+00 -0.00000000000E+00 -0.47770990063E+03  0.47770990063E+03  0.00000000000E+00 0. -1.
         23    2    1    2    0    0  0.60322896552E+02 -0.99270875256E+01 -0.27671781175E+03  0.29789409827E+03  0.91819102204E+02 0.  0.
         23    2    1    2    0    0 -0.78685659041E+02  0.73369754371E+02 -0.86026024465E+02  0.16361631394E+03  0.88290812123E+02 0.  0.
        -11    1    3    3    0    0  0.53186634042E+01  0.32871359962E+02 -0.45381044150E+02  0.56287242376E+02  0.00000000000E+00 0.  1.
         11    1    3    3    0    0  0.55004233148E+02 -0.42798447488E+02 -0.23133676760E+03  0.24160685589E+03  0.00000000000E+00 0. -1.
        -13    1    4    4    0    0 -0.47433072277E+02 -0.22223058238E+01 -0.62519121027E+02  0.78507805235E+02  0.00000000000E+00 0.  1.
         13    1    4    4    0    0 -0.31252586765E+02  0.75592060195E+02 -0.23506903438E+02  0.85108508701E+02  0.00000000000E+00 0. -1.
          2    1    1    2  501    0  0.18362762489E+02 -0.63442666846E+02 -0.48954313652E+02  0.82211239183E+02  0.00000000000E+00 0. -1.
<scales pt_clust_5="13000.00000" pt_clust_6="13000.00000" pt_clust_7="13000.00000" pt_clust_8="13000.00000" pt_clust_9="66.04667"></scales>
<clustering>
<clus scale="   66.047">  1  9  2 -1</clus>
<clus scale="   88.291">  7  8 -1 -1</clus>
<clus scale="   91.819">  5  6 -1 -1</clus>
<clus scale="  111.706">  1  7  2 -1</clus>
<clus scale="   66.047">  1  5  2 -1</clus>
</clustering>
</event>
<event>
 9    1  0.1464797E-005  0.1387034E+03  0.7546771E-02  0.1217684E+00
         21   -1    0    0  501  502  0.00000000000E+00  0.00000000000E+00  0.23492865060E+03  0.23492865060E+03  0.00000000000E+00 0. -1.
          3   -1    0    0  502    0 -0.00000000000E+00 -0.00000000000E+00 -0.14495089665E+03  0.14495089665E+03  0.00000000000E+00 0. -1.
         23    2    1    2    0    0 -0.80907560869E+02 -0.51922626615E+02 -0.48146535260E+02  0.14756719138E+03  0.10107420321E+03 0.  0.
         23    2    1    2    0    0  0.64423748158E+02  0.69546148006E+02  0.49050115280E+02  0.14002740016E+03  0.90634833026E+02 0.  0.
        -13    1    3    3    0    0 -0.83947654776E+02 -0.28198176245E+02  0.56049929360E+01  0.88734220184E+02  0.00000000000E+00 0. -1.
         13    1    3    3    0    0  0.30400939068E+01 -0.23724450370E+02 -0.53751528196E+02  0.58832971196E+02  0.00000000000E+00 0.  1.
        -13    1    4    4    0    0  0.31475847691E+02 -0.11760850718E+02  0.39379826632E+02  0.51766952229E+02  0.00000000000E+00 0.  1.
         13    1    4    4    0    0  0.32947900467E+02  0.81306998723E+02  0.96702886472E+01  0.88260447932E+02  0.00000000000E+00 0. -1.
          3    1    1    2  501    0  0.16483812711E+02 -0.17623521391E+02  0.89074173938E+02  0.92284955710E+02  0.00000000000E+00 0. -1.
<scales pt_clust_5="13000.00000" pt_clust_6="13000.00000" pt_clust_7="13000.00000" pt_clust_8="13000.00000" pt_clust_9="24.13099"></scales>
<clustering>
<clus scale="   24.131">  1  9  2 -1</clus>
<clus scale="   90.635">  7  8 -1 -1</clus>
<clus scale="  101.074">  5  6 -1 -1</clus>
<clus scale="  131.291">  1  7  2 -1</clus>
<clus scale="   24.131">  1  5  2 -1</clus>
</clustering>
</event>
<event>
 9    1  0.1464797E-005  0.1391974E+03  0.7546771E-02  0.1219108E+00
          2   -1    0    0  502    0 -0.00000000000E+00  0.00000000000E+00  0.18495563318E+03  0.18495563318E+03  0.00000000000E+00 0. -1.
         21   -1    0    0  501  502  0.00000000000E+00 -0.00000000000E+00 -0.14591619915E+03  0.14591619915E+03  0.00000000000E+00 0.  1.
         23    2    1    2    0    0 -0.82670243168E+02 -0.88564597968E+01  0.63316281862E+02  0.13620908567E+03  0.87356496522E+02 0.  0.
         23    2    1    2    0    0  0.11259047743E+03 -0.20442745678E+01 -0.39689560413E+02  0.15928481374E+03  0.10543052697E+03 0.  0.
        -11    1    3    3    0    0 -0.61911656693E+02  0.34636245028E+01  0.84008466865E+02  0.10441490523E+03  0.00000000000E+00 0.  1.
         11    1    3    3    0    0 -0.20758586476E+02 -0.12320084300E+02 -0.20692185004E+02  0.31794180440E+02  0.00000000000E+00 0. -1.
        -13    1    4    4    0    0  0.20002453116E+02  0.34149801302E+02 -0.44756311950E+02  0.59744744698E+02  0.00000000000E+00 0.  1.
         13    1    4    4    0    0  0.92588024313E+02 -0.36194075870E+02  0.50667515375E+01  0.99540069045E+02  0.00000000000E+00 0. -1.
          2    1    1    2  501    0 -0.29920234261E+02  0.10900734365E+02  0.15412712585E+02  0.35377932913E+02  0.00000000000E+00 0. -1.
<scales pt_clust_5="13000.00000" pt_clust_6="13000.00000" pt_clust_7="13000.00000" pt_clust_8="13000.00000" pt_clust_9="31.84411"></scales>
<clustering>
<clus scale="   31.844">  2  9  1 -1</clus>
<clus scale="   87.356">  5  6 -1 -1</clus>
<clus scale="  105.431">  7  8 -1 -1</clus>
<clus scale="  126.061">  1  5  2 -1</clus>
<clus scale="   31.844">  2  5  1 -1</clus>
</clustering>
</event>
<event>
 9    1  0.1464797E-005  0.1185180E+03  0.7546771E-02  0.1253285E+00
         21   -1    0    0  501  502  0.00000000000E+00  0.00000000000E+00  0.11211595622E+03  0.11211595622E+03  0.00000000000E+00 0. -1.
          1   -1    0    0  502    0 -0.00000000000E+00 -0.00000000000E+00 -0.19119495062E+03  0.19119495062E+03  0.00000000000E+00 0. -1.
         23    2    1    2    0    0  0.45205506891E+02  0.35403808492E+02 -0.94014487597E+02  0.15488459715E+03  0.10887399619E+03 0.  0.
         23    2    1    2    0    0  0.45106303733E+00 -0.41658097875E+02 -0.20783187555E+01  0.99302910883E+02  0.90117412993E+02 0.  0.
        -11    1    3    3    0    0 -0.33806975434E+02  0.17023253401E+02 -0.49621749201E+02  0.62410101251E+02  0.00000000000E+00 0.  1.
         11    1    3    3    0    0  0.79012482325E+02  0.18380555092E+02 -0.44392738396E+02  0.92474495894E+02  0.00000000000E+00 0. -1.
        -13    1    4    4    0    0  0.22402881999E+02 -0.60345530092E+02 -0.17366258661E+02  0.66671276153E+02  0.00000000000E+00 0. -1.
         13    1    4    4    0    0 -0.21951818962E+02  0.18687432217E+02  0.15287939906E+02  0.32631634730E+02  0.00000000000E+00 0.  1.
          1    1    1    2  501    0 -0.45656569928E+02  0.62542893824E+01  0.17013811951E+02  0.49123398807E+02  0.00000000000E+00 0. -1.
<scales pt_clust_5="13000.00000" pt_clust_6="13000.00000" pt_clust_7="13000.00000" pt_clust_8="13000.00000" pt_clust_9="46.08295"></scales>
<clustering>
<clus scale="   46.083">  1  9  2 -1</clus>
<clus scale="   90.117">  7  8 -1 -1</clus>
<clus scale="  101.558">  1  7  2 -1</clus>
<clus scale="  108.874">  5  6 -1 -1</clus>
<clus scale="   46.083">  1  5  2 -1</clus>
</clustering>
</event>
<event>
 9    1  0.1464797E-005  0.1002501E+03  0.7546771E-02  0.1279817E+00
         21   -1    0    0  501  502  0.00000000000E+00  0.00000000000E+00  0.77044809990E+02  0.77044809990E+02  0.00000000000E+00 0.  1.
          1   -1    0    0  502    0 -0.00000000000E+00 -0.00000000000E+00 -0.26049499952E+03  0.26049499952E+03  0.00000000000E+00 0. -1.
         23    2    1    2    0    0  0.41026389674E+02  0.57744922594E+02 -0.13192003963E+03  0.17430413730E+03  0.89226647858E+02 0.  0.
         23    2    1    2    0    0 -0.12271000182E+02 -0.10468915211E+02 -0.57702734689E+02  0.10755808156E+03  0.89325022736E+02 0.  0.
        -11    1    4    4    0    0  0.10547320486E+02  0.24946164846E+02  0.91069051994E+01  0.28574338702E+02  0.00000000000E+00 0.  1.
         11    1    4    4    0    0 -0.22818320668E+02 -0.35415080057E+02 -0.66809639888E+02  0.78983742856E+02  0.00000000000E+00 0. -1.
        -13    1    3    3    0    0 -0.19861285899E+00  0.63134303157E+02 -0.11114948551E+03  0.12782874408E+03  0.00000000000E+00 0.  1.
         13    1    3    3    0    0  0.41225002533E+02 -0.53893805626E+01 -0.20770554114E+02  0.46475393219E+02  0.00000000000E+00 0. -1.
          1    1    1    2  501    0 -0.28755389492E+02 -0.47276007383E+02  0.61725847814E+01  0.55677590661E+02  0.00000000000E+00 0. -1.
<scales pt_clust_5="13000.00000" pt_clust_6="13000.00000" pt_clust_7="13000.00000" pt_clust_8="13000.00000" pt_clust_9="55.33438"></scales>
<clustering>
<clus scale="   55.334">  1  9  2 -1</clus>
<clus scale="   89.227">  7  8 -1 -1</clus>
<clus scale="   89.325">  5  6 -1 -1</clus>
<clus scale="  100.162">  2  7  1 -1</clus>
<clus scale="   55.334">  1  5  2 -1</clus>
</clustering>
</event>
<event>
 9    1  0.1464797E-005  0.9391796E+02  0.7546771E-02  0.1294026E+00
         21   -1    0    0  501  502  0.00000000000E+00  0.00000000000E+00  0.56461135746E+03  0.56461135746E+03  0.00000000000E+00 0.  1.
          1   -1    0    0  502    0 -0.00000000000E+00 -0.00000000000E+00 -0.26093204614E+02  0.26093204614E+02  0.00000000000E+00 0. -1.
         23    2    1    2    0    0 -0.96446420583E+01  0.23938690858E+02  0.12885411642E+03  0.16017655442E+03  0.91580921727E+02 0.  0.
         23    2    1    2    0    0  0.27888424159E+02  0.76815283745E+01  0.31268120335E+03  0.32690202752E+03  0.90877008017E+02 0.  0.
        -11    1    3    3    0    0  0.42551697537E+01 -0.29540358811E+02  0.14519099123E+02  0.33189509000E+02  0.00000000000E+00 0.  1.
         11    1    3    3    0    0 -0.13899811812E+02  0.53479049669E+02  0.11433501730E+03  0.12698704542E+03  0.00000000000E+00 0. -1.
        -11    1    4    4    0    0  0.55040493080E+02 -0.15846778762E+02  0.22429771903E+03  0.23149523329E+03  0.00000000000E+00 0.  1.
         11    1    4    4    0    0 -0.27152068921E+02  0.23528307137E+02  0.88383484326E+02  0.95406794229E+02  0.00000000000E+00 0. -1.
          1    1    1    2  501    0 -0.18243782101E+02 -0.31620219233E+02  0.96982833071E+02  0.10362598014E+03  0.00000000000E+00 0. -1.
<scales pt_clust_5="13000.00000" pt_clust_6="13000.00000" pt_clust_7="13000.00000" pt_clust_8="13000.00000" pt_clust_9="36.50581"></scales>
<clustering>
<clus scale="   36.506">  1  9  2 -1</clus>
<clus scale="   90.877">  7  8 -1 -1</clus>
<clus scale="   91.581">  5  6 -1 -1</clus>
<clus scale="   93.232">  1  7  2 -1</clus>
<clus scale="   36.506">  1  5  2 -1</clus>
</clustering>
</event>
<event>
 9    1  0.1464797E-005  0.9101908E+02  0.7546771E-02  0.1300887E+00
          2   -1    0    0  502    0 -0.00000000000E+00  0.00000000000E+00  0.90628426868E+02  0.90628426868E+02  0.00000000000E+00 0. -1.
         21   -1    0    0  501  502  0.00000000000E+00 -0.00000000000E+00 -0.22152292598E+03  0.22152292598E+03  0.00000000000E+00 0. -1.
         23    2    1    2    0    0  0.11665338200E+02  0.12411493264E+02  0.11628965961E+02  0.92547539844E+02  0.90220225013E+02 0.  0.
         23    2    1    2    0    0 -0.12379744671E+02  0.14186490332E+02 -0.19095374942E+02  0.93340371973E+02  0.89405129102E+02 0.  0.
        -11    1    3    3    0    0  0.51026679014E+02  0.21007402208E+01  0.80586318486E+01  0.51701804881E+02  0.00000000000E+00 0.  1.
         11    1    3    3    0    0 -0.39361340814E+02  0.10310753043E+02  0.35703341123E+01  0.40845734963E+02  0.00000000000E+00 0. -1.
        -11    1    4    4    0    0 -0.11598292664E+02  0.41003660956E+02 -0.40675709688E+02  0.58909540510E+02  0.00000000000E+00 0.  1.
         11    1    4    4    0    0 -0.78145200762E+00 -0.26817170623E+02  0.21580334746E+02  0.34430831463E+02  0.00000000000E+00 0. -1.
          2    1    1    2  501    0  0.71440647134E+00 -0.26597983596E+02 -0.12342809013E+03  0.12626344104E+03  0.00000000000E+00 0. -1.
<scales pt_clust_5="13000.00000" pt_clust_6="13000.00000" pt_clust_7="13000.00000" pt_clust_8="13000.00000" pt_clust_9="26.60758"></scales>
<clustering>
<clus scale="   26.608">  2  9  1 -1</clus>
<clus scale="   89.405">  7  8 -1 -1</clus>
<clus scale="   90.211">  2  7  1 -1</clus>
<clus scale="   90.220">  5  6 -1 -1</clus>
<clus scale="   26.608">  2  5  1 -1</clus>
</clustering>
</event>
<event>
 9    1  0.1464797E-005  0.1535699E+03  0.7546771E-02  0.1196522E+00
          2   -1    0    0  502    0 -0.00000000000E+00  0.00000000000E+00  0.46912213852E+03  0.46912213852E+03  0.00000000000E+00 0. -1.
         21   -1    0    0  501  502  0.00000000000E+00 -0.00000000000E+00 -0.25101763670E+03  0.25101763670E+03  0.00000000000E+00 0. -1.
         23    2    1    2    0    0 -0.37828995898E+02  0.12224745619E+03  0.31988031176E+03  0.35655877365E+03  0.91843735442E+02 0.  0.
         23    2    1    2    0    0  0.81422193650E+02 -0.42463507802E+02 -0.19491992223E+03  0.23342082730E+03  0.89770726980E+02 0.  0.
        -11    1    4    4    0    0  0.17657681149E+01 -0.21817949961E+02 -0.12049902400E+03  0.12247104009E+03  0.00000000000E+00 0.  1.
         11    1    4    4    0    0  0.79656425535E+02 -0.20645557841E+02 -0.74420898232E+02  0.11094978721E+03  0.00000000000E+00 0. -1.
        -13    1    3    3    0    0 -0.58042879977E+02  0.11386546864E+03  0.22107751780E+03  0.25536168417E+03  0.00000000000E+00 0. -1.
         13    1    3    3    0    0  0.20213884079E+02  0.83819875423E+01  0.98802793962E+02  0.10119708948E+03  0.00000000000E+00 0.  1.
          2    1    1    2  501    0 -0.43593197752E+02 -0.79783948384E+02  0.93144112286E+02  0.13016017426E+03  0.00000000000E+00 0. -1.
<scales pt_clust_5="13000.00000" pt_clust_6="13000.00000" pt_clust_7="13000.00000" pt_clust_8="13000.00000" pt_clust_9="90.91674"></scales>
<clustering>
<clus scale="   89.771">  5  6 -1 -1</clus>
<clus scale="   90.917">  2  9  1 -1</clus>
<clus scale="   91.844">  7  8 -1 -1</clus>
<clus scale="  152.339">  2  5  1 -1</clus>
<clus scale="   90.917">  2  5  1 -1</clus>
</clustering>
</event>
<event>
 9    1  0.1464797E-005  0.9418229E+02  0.7546771E-02  0.1295379E+00
          3   -1    0    0  502    0 -0.00000000000E+00  0.00000000000E+00  0.19151031100E+03  0.19151031100E+03  0.00000000000E+00 0. -1.
         21   -1    0    0  501  502  0.00000000000E+00 -0.00000000000E+00 -0.26496528079E+03  0.26496528079E+03  0.00000000000E+00 0.  1.
         23    2    1    2    0    0  0.24946501049E+02 -0.18518541647E+02  0.16274196555E+03  0.18642755782E+03  0.85469425314E+02 0.  0.
         23    2    1    2    0    0 -0.69970336942E+01 -0.13823658529E+02 -0.14012726707E+03  0.16710347387E+03  0.89709910196E+02 0.  0.
        -13    1    4    4    0    0  0.17349087713E+02 -0.39175916566E+02 -0.11807721402E+03  0.12561039668E+03  0.00000000000E+00 0.  1.
         13    1    4    4    0    0 -0.24346121408E+02  0.25352258037E+02 -0.22050053050E+02  0.41493077190E+02  0.00000000000E+00 0. -1.
        -13    1    3    3    0    0  0.17852572250E+02 -0.49790586107E+02  0.13114180086E+03  0.14140717356E+03  0.00000000000E+00 0. -1.
         13    1    3    3    0    0  0.70939287997E+01  0.31272044460E+02  0.31600164691E+02  0.45020384261E+02  0.00000000000E+00 0.  1.
          3    1    1    2  501    0 -0.17949467355E+02  0.32342200176E+02 -0.96069668278E+02  0.10294456010E+03  0.00000000000E+00 0. -1.
<scales pt_clust_5="13000.00000" pt_clust_6="13000.00000" pt_clust_7="13000.00000" pt_clust_8="13000.00000" pt_clust_9="36.98921"></scales>
<clustering>
<clus scale="   36.989">  2  9  1 -1</clus>
<clus scale="   85.469">  7  8 -1 -1</clus>
<clus scale="   89.710">  5  6 -1 -1</clus>
<clus scale="   90.152">  1  7  2 -1</clus>
<clus scale="   36.989">  2  5  1 -1</clus>
</clustering>
</event>
<event>
 9    1  0.1464797E-005  0.1185661E+03  0.7546771E-02  0.1249388E+00
         -2   -1    0    0    0  501 -0.00000000000E+00  0.00000000000E+00  0.24963610288E+03  0.24963610288E+03  0.00000000000E+00 0.  1.
         21   -1    0    0  501  502  0.00000000000E+00 -0.00000000000E+00 -0.14240538489E+03  0.14240538489E+03  0.00000000000E+00 0. -1.
         23    2    1    2    0    0  0.36875517871E+02  0.37539365286E+02  0.91176155895E+02  0.14016606197E+03  0.92544182745E+02 0.  0.
         23    2    1    2    0    0 -0.80773230407E+02 -0.67130749808E+02  0.90550565214E+02  0.16048443234E+03  0.80777446375E+02 0.  0.
        -11    1    4    4    0    0 -0.20480782538E+02 -0.54613716217E+01  0.68160064872E+02  0.71379853437E+02  0.00000000000E+00 0.  1.
         11    1    4    4    0    0 -0.60292447869E+02 -0.61669378186E+02  0.22390500342E+02  0.89104578903E+02  0.00000000000E+00 0. -1.
        -13    1    3    3    0    0 -0.19954200182E+01  0.49566859664E+02  0.85820046957E+02  0.99125858067E+02  0.00000000000E+00 0.  1.
         13    1    3    3    0    0  0.38870937889E+02 -0.12027494378E+02  0.53561089390E+01  0.41040203902E+02  0.00000000000E+00 0. -1.
         -2    1    1    2    0  502  0.43897712536E+02  0.29591384522E+02 -0.74496003127E+02  0.91390993461E+02  0.00000000000E+00 0.  1.
<scales pt_clust_5="13000.00000" pt_clust_6="13000.00000" pt_clust_7="13000.00000" pt_clust_8="13000.00000" pt_clust_9="52.94015"></scales>
<clustering>
<clus scale="   52.940">  2  9  1 -1</clus>
<clus scale="   80.777">  5  6 -1 -1</clus>
<clus scale="   92.544">  7  8 -1 -1</clus>
<clus scale="  109.629">  2  5  1 -1</clus>
<clus scale="   52.940">  2  5  1 -1</clus>
</clustering>
</event>
<event>
 9    1  0.1464797E-005  0.1528284E+03  0.7546771E-02  0.1200345E+00
         21   -1    0    0  501  502  0.00000000000E+00  0.00000000000E+00  0.27068524947E+03  0.27068524947E+03  0.00000000000E+00 0. -1.
         -4   -1    0    0    0  501 -0.00000000000E+00 -0.00000000000E+00 -0.10119111503E+03  0.10119111503E+03  0.00000000000E+00 0.  1.
         23    2    1    2    0    0  0.11896081315E+03 -0.41949252711E+01  0.41950172527E+02  0.16508311668E+03  0.10641121169E+03 0.  0.
         23    2    1    2    0    0 -0.98888392459E+02 -0.13278626062E+01  0.83147230802E+02  0.15775782194E+03  0.90517351993E+02 0.  0.
        -13    1    4    4    0    0 -0.45745179119E+02  0.40802411585E+02  0.18411415275E+02  0.64003425035E+02  0.00000000000E+00 0.  1.
         13    1    4    4    0    0 -0.53143213340E+02 -0.42130274192E+02  0.64735815526E+02  0.93754396907E+02  0.00000000000E+00 0. -1.
        -13    1    3    3    0    0  0.93196263101E+02  0.43536635971E+02  0.13240806229E+02  0.10371258881E+03  0.00000000000E+00 0.  1.
         13    1    3    3    0    0  0.25764550054E+02 -0.47731561242E+02  0.28709366298E+02  0.61370527872E+02  0.00000000000E+00 0. -1.
         -4    1    1    2    0  502 -0.20072420696E+02  0.55227878773E+01  0.44396731109E+02  0.49035425885E+02  0.00000000000E+00 0.  1.
<scales pt_clust_5="13000.00000" pt_clust_6="13000.00000" pt_clust_7="13000.00000" pt_clust_8="13000.00000" pt_clust_9="20.81834"></scales>
<clustering>
<clus scale="   20.818">  1  9  2 -1</clus>
<clus scale="   90.517">  5  6 -1 -1</clus>
<clus scale="  106.411">  7  8 -1 -1</clus>
<clus scale="  142.220">  1  5  2 -1</clus>
<clus scale="   20.818">  1  5  2 -1</clus>
</clustering>
</event>
<event>
 9    1  0.1464797E-005  0.9817599E+02  0.7546771E-02  0.1284686E+00
          1   -1    0    0  502    0 -0.00000000000E+00  0.00000000000E+00  0.70456172907E+02  0.70456172907E+02  0.00000000000E+00 0. -1.
         21   -1    0    0  501  502  0.00000000000E+00 -0.00000000000E+00 -0.20076339080E+03  0.20076339080E+03  0.00000000000E+00 0.  1.
         23    2    1    2    0    0  0.18714928653E+02  0.42318942991E+02 -0.32550286367E+02  0.10704847050E+03  0.90877458174E+02 0.  0.
         23    2    1    2    0    0 -0.77937803197E+00 -0.29125630026E+02 -0.40589459662E+02  0.10282072790E+03  0.89864832368E+02 0.  0.
        -11    1    3    3    0    0 -0.72360089590E+01  0.65268347102E+02 -0.11959863582E+02  0.66748447892E+02  0.00000000000E+00 0. -1.
         11    1    3    3    0    0  0.25950937613E+02 -0.22949404111E+02 -0.20590422785E+02  0.40300022612E+02  0.00000000000E+00 0.  1.
        -13    1    4    4    0    0  0.12200450797E+02 -0.46315212624E+02 -0.57932147832E+02  0.75167038471E+02  0.00000000000E+00 0.  1.
         13    1    4    4    0    0 -0.12979828829E+02  0.17189582598E+02  0.17342688169E+02  0.27653689433E+02  0.00000000000E+00 0. -1.
          1    1    1    2  501    0 -0.17935550622E+02 -0.13193312965E+02 -0.57167471858E+02  0.61350365295E+02  0.00000000000E+00 0. -1.
<scales pt_clust_5="13000.00000" pt_clust_6="13000.00000" pt_clust_7="13000.00000" pt_clust_8="13000.00000" pt_clust_9="22.26539"></scales>
<clustering>
<clus scale="   22.265">  2  9  1 -1</clus>
<clus scale="   89.865">  7  8 -1 -1</clus>
<clus scale="   90.877">  5  6 -1 -1</clus>
<clus scale="   97.239">  2  7  1 -1</clus>
<clus scale="   22.265">  2  5  1 -1</clus>
</clustering>
</event>
<event>
 9    1  0.1464797E-005  0.9055008E+02  0.7546771E-02  0.1301616E+00
         21   -1    0    0  501  502  0.00000000000E+00  0.00000000000E+00  0.19374272837E+03  0.19374272837E+03  0.00000000000E+00 0. -1.
         -1   -1    0    0    0  501 -0.00000000000E+00 -0.00000000000E+00 -0.88482821167E+02  0.88482821167E+02  0.00000000000E+00 0.  1.
         23    2    1    2    0    0  0.11821197675E+02  0.11970324732E+02 -0.53927322391E+01  0.91842926143E+02  0.90127754509E+02 0.  0.
         23    2    1    2    0    0  0.96462858036E+01  0.34453486004E-01  0.15505433551E+02  0.92107711358E+02  0.90279344289E+02 0.  0.
        -13    1    4    4    0    0 -0.18792934995E+02  0.33106401573E+02 -0.12739016333E+02  0.40143377636E+02  0.00000000000E+00 0.  1.
         13    1    4    4    0    0  0.28439220799E+02 -0.33071948087E+02  0.28244449885E+02  0.51964333723E+02  0.00000000000E+00 0. -1.
        -13    1    3    3    0    0 -0.12334162219E+02 -0.21893662212E+02 -0.33325664253E+02  0.41738039013E+02  0.00000000000E+00 0. -1.
         13    1    3    3    0    0  0.24155359894E+02  0.33863986945E+02  0.27932932014E+02  0.50104887130E+02  0.00000000000E+00 0.  1.
         -1    1    1    2    0  502 -0.21467483478E+02 -0.12004778218E+02  0.95147205892E+02  0.98274912037E+02  0.00000000000E+00 0.  1.
<scales pt_clust_5="13000.00000" pt_clust_6="13000.00000" pt_clust_7="13000.00000" pt_clust_8="13000.00000" pt_clust_9="24.59609"></scales>
<clustering>
<clus scale="   24.596">  1  9  2 -1</clus>
<clus scale="   90.128">  7  8 -1 -1</clus>
<clus scale="   90.279">  5  6 -1 -1</clus>
<clus scale="   90.399">  2  7  1 -1</clus>
<clus scale="   24.596">  1  5  2 -1</clus>
</clustering>
</event>
<event>
 9    1  0.1464797E-005  0.1406259E+03  0.7546771E-02  0.1212683E+00
          1   -1    0    0  502    0 -0.00000000000E+00  0.00000000000E+00  0.27958631394E+03  0.27958631394E+03  0.00000000000E+00 0. -1.
         21   -1    0    0  501  502  0.00000000000E+00 -0.00000000000E+00 -0.10742649467E+03  0.10742649467E+03  0.00000000000E+00 0. -1.
         23    2    1    2    0    0  0.10422167952E+03 -0.76938602968E+02  0.13402034822E+03  0.20731381580E+03  0.90751624641E+02 0.  0.
         23    2    1    2    0    0 -0.53043354093E+02  0.53833691245E+02  0.18531400198E+02  0.12022181752E+03  0.91641742063E+02 0.  0.
        -11    1    4    4    0    0 -0.49925722994E+02  0.32339942198E+02  0.52874518996E+02  0.79587464068E+02  0.00000000000E+00 0.  1.
         11    1    4    4    0    0 -0.31176310987E+01  0.21493749047E+02 -0.34343118798E+02  0.40634353453E+02  0.00000000000E+00 0. -1.
        -13    1    3    3    0    0  0.30104674264E+02 -0.65162043809E+02  0.27187780907E+02  0.76756490257E+02  0.00000000000E+00 0.  1.
         13    1    3    3    0    0  0.74117005253E+02 -0.11776559159E+02  0.10683256731E+03  0.13055732554E+03  0.00000000000E+00 0. -1.
          1    1    1    2  501    0 -0.51178325424E+02  0.23104911723E+02  0.19608070852E+02  0.59477175299E+02  0.00000000000E+00 0. -1.
<scales pt_clust_5="13000.00000" pt_clust_6="13000.00000" pt_clust_7="13000.00000" pt_clust_8="13000.00000" pt_clust_9="56.15210"></scales>
<clustering>
<clus scale="   56.152">  2  9  1 -1</clus>
<clus scale="   90.752">  7  8 -1 -1</clus>
<clus scale="   91.642">  5  6 -1 -1</clus>
<clus scale="  140.047">  1  7  2 -1</clus>
<clus scale="   56.152">  2  5  1 -1</clus>
</clustering>
</event>
<event>
 9    1  0.1470511E-005  0.9538958E+02  0.7546771E-02  0.1291325E+00
         21   -1    0    0  501  502  0.00000000000E+00  0.00000000000E+00  0.35560250361E+03  0.35560250361E+03  0.00000000000E+00 0.  1.
         -3   -1    0    0    0  501 -0.00000000000E+00 -0.00000000000E+00 -0.21576156947E+03  0.21576156947E+03  0.00000000000E+00 0.  1.
         23    2    1    2    0    0 -0.21126544045E+02  0.38828514661E+01 -0.10185359382E+03  0.13752728687E+03  0.89878766465E+02 0.  0.
         23    2    1    2    0    0  0.74368506651E+01  0.68340324011E+02 -0.55716010033E+02  0.12747650338E+03  0.91762075537E+02 0.  0.
        -11    1    3    3    0    0 -0.14932377327E+02 -0.40154573405E+02 -0.27558231967E+02  0.50939393470E+02  0.00000000000E+00 0.  1.
         11    1    3    3    0    0 -0.61941667176E+01  0.44037424871E+02 -0.74295361857E+02  0.86587893404E+02  0.00000000000E+00 0. -1.
        -13    1    4    4    0    0 -0.33290577078E+02  0.50057973014E+02 -0.56960583086E+02  0.82816491172E+02  0.00000000000E+00 0.  1.
         13    1    4    4    0    0  0.40727427744E+02  0.18282350997E+02  0.12445730524E+01  0.44660012211E+02  0.00000000000E+00 0. -1.
         -3    1    1    2    0  502  0.13689693380E+02 -0.72223175478E+02  0.29741053800E+03  0.30636028283E+03  0.00000000000E+00 0.  1.
<scales pt_clust_5="13000.00000" pt_clust_6="13000.00000" pt_clust_7="13000.00000" pt_clust_8="13000.00000" pt_clust_9="73.50915"></scales>
<clustering>
<clus scale="   73.509">  1  9  2 -1</clus>
<clus scale="   89.879">  5  6 -1 -1</clus>
<clus scale="   91.762">  7  8 -1 -1</clus>
<clus scale="   93.579">  2  5  1 -1</clus>
<clus scale="   73.509">  1  5  2 -1</clus>
</clustering>
</event>
<event>
 9    1  0.1464797E-005  0.9690006E+02  0.7546771E-02  0.1289126E+00
          1   -1    0    0  502    0 -0.00000000000E+00  0.00000000000E+00  0.71739067050E+03  0.71739067050E+03  0.00000000000E+00 0. -1.
         21   -1    0    0  501  502  0.00000000000E+00 -0.00000000000E+00 -0.17202478280E+02  0.17202478280E+02  0.00000000000E+00 0.  1.
         23    2    1    2    0    0  0.21331734806E+02 -0.11763955818E+02  0.35599085284E+03  0.36754199618E+03  0.88114687101E+02 0.  0.
         23    2    1    2    0    0 -0.18436545323E+02  0.37747505855E+02  0.27687703274E+03  0.29483238302E+03  0.92197952323E+02 0.  0.
        -13    1    4    4    0    0  0.46397527651E+01  0.64173890306E+02  0.15051845588E+03  0.16369368058E+03  0.00000000000E+00 0. -1.
         13    1    4    4    0    0 -0.23076298088E+02 -0.26426384451E+02  0.12635857687E+03  0.13113870243E+03  0.00000000000E+00 0.  1.
        -13    1    3    3    0    0  0.54777059282E+02  0.25096341036E+01  0.22639975392E+03  0.23294564401E+03  0.00000000000E+00 0. -1.
         13    1    3    3    0    0 -0.33445324476E+02 -0.14273589921E+02  0.12959109893E+03  0.13459635218E+03  0.00000000000E+00 0.  1.
          1    1    1    2  501    0 -0.28951894829E+01 -0.25983550037E+02  0.67320306636E+02  0.72218769585E+02  0.00000000000E+00 0. -1.
<scales pt_clust_5="13000.00000" pt_clust_6="13000.00000" pt_clust_7="13000.00000" pt_clust_8="13000.00000" pt_clust_9="26.14435"></scales>
<clustering>
<clus scale="   26.144">  2  9  1 -1</clus>
<clus scale="   88.115">  7  8 -1 -1</clus>
<clus scale="   92.198">  5  6 -1 -1</clus>
<clus scale="   93.023">  1  7  2 -1</clus>
<clus scale="   26.144">  2  5  1 -1</clus>
</clustering>
</event>
<event>
 9    1  0.1464797E-005  0.1011265E+03  0.7546771E-02  0.1280231E+00
         21   -1    0    0  501  502  0.00000000000E+00  0.00000000000E+00  0.99689813475E+02  0.99689813475E+02  0.00000000000E+00 0. -1.
          2   -1    0    0  502    0 -0.00000000000E+00 -0.00000000000E+00 -0.29097268281E+03  0.29097268281E+03  0.00000000000E+00 0. -1.
         23    2    1    2    0    0 -0.27455053396E+02 -0.22916893359E+02 -0.21811190639E+03  0.23961577237E+03  0.92541616057E+02 0.  0.
         23    2    1    2    0    0  0.46502938230E+02  0.49785734533E+02  0.44493184170E+01  0.11122702591E+03  0.87809522437E+02 0.  0.
        -11    1    4    4    0    0 -0.21880545737E+02 -0.53859014267E+01 -0.42561333803E+01  0.22932092955E+02  0.00000000000E+00 0.  1.
         11    1    4    4    0    0  0.68383483968E+02  0.55171635960E+02  0.87054517973E+01  0.88294932952E+02  0.00000000000E+00 0. -1.
        -13    1    3    3    0    0 -0.17410183149E+02  0.28212323065E+02 -0.31013270278E+02  0.45396834508E+02  0.00000000000E+00 0.  1.
         13    1    3    3    0    0 -0.10044870247E+02 -0.51129216424E+02 -0.18709863611E+03  0.19421893786E+03  0.00000000000E+00 0. -1.
          2    1    1    2  501    0 -0.19047884835E+02 -0.26868841174E+02  0.22379718640E+02  0.39819698004E+02  0.00000000000E+00 0. -1.
<scales pt_clust_5="13000.00000" pt_clust_6="13000.00000" pt_clust_7="13000.00000" pt_clust_8="13000.00000" pt_clust_9="32.93564"></scales>
<clustering>
<clus scale="   32.936">  1  9  2 -1</clus>
<clus scale="   87.810">  5  6 -1 -1</clus>
<clus scale="   92.542">  7  8 -1 -1</clus>
<clus scale="   96.815">  1  5  2 -1</clus>
<clus scale="   32.936">  1  5  2 -1</clus>
</clustering>
</event>
<event>
 9    1  0.1464797E-005  0.1460270E+03  0.7546771E-02  0.1205722E+00
         21   -1    0    0  501  502  0.00000000000E+00  0.00000000000E+00  0.44072580064E+03  0.44072580064E+03  0.00000000000E+00 0.  1.
         -3   -1    0    0    0  501 -0.00000000000E+00 -0.00000000000E+00 -0.13508974557E+03  0.13508974557E+03  0.00000000000E+00 0.  1.
         23    2    1    2    0    0 -0.12476609275E+03 -0.26813166823E+02  0.14808525803E+03  0.21486513275E+03  0.89175432777E+02 0.  0.
         23    2    1    2    0    0  0.10067989490E+03 -0.48422564971E+02  0.21820987930E+03  0.26135079235E+03  0.90595249357E+02 0.  0.
        -11    1    3    3    0    0 -0.62291374180E+02 -0.50461519285E+02  0.11535884114E+03  0.14047861921E+03  0.00000000000E+00 0.  1.
         11    1    3    3    0    0 -0.62474718567E+02  0.23648352462E+02  0.32726416890E+02  0.74386513540E+02  0.00000000000E+00 0. -1.
        -13    1    4    4    0    0  0.85230558077E+02 -0.74711593438E+02  0.17258613056E+03  0.20647528348E+03  0.00000000000E+00 0.  1.
         13    1    4    4    0    0  0.15449336820E+02  0.26289028467E+02  0.45623748733E+02  0.54875508875E+02  0.00000000000E+00 0. -1.
         -3    1    1    2    0  502  0.24086197850E+02  0.75235731794E+02 -0.60659082253E+02  0.99599621110E+02  0.00000000000E+00 0.  1.
<scales pt_clust_5="13000.00000" pt_clust_6="13000.00000" pt_clust_7="13000.00000" pt_clust_8="13000.00000" pt_clust_9="78.99726"></scales>
<clustering>
<clus scale="   78.997">  1  9  2 -1</clus>
<clus scale="   89.175">  5  6 -1 -1</clus>
<clus scale="   90.595">  7  8 -1 -1</clus>
<clus scale="  145.150">  2  5  1 -1</clus>
<clus scale="   78.997">  1  5  2 -1</clus>
</clustering>
</event>
<event>
 9    1  0.1464797E-005  0.1046756E+03  0.7546771E-02  0.1271653E+00
         21   -1    0    0  501  502  0.00000000000E+00  0.00000000000E+00  0.15729146082E+03  0.15729146082E+03  0.00000000000E+00 0.  1.
         -1   -1    0    0    0  501 -0.00000000000E+00 -0.00000000000E+00 -0.26826814704E+03  0.26826814704E+03  0.00000000000E+00 0.  1.
         23    2    1    2    0    0  0.34393862457E+01  0.56386204247E+02 -0.12975518802E+03  0.16924108057E+03  0.92816491673E+02 0.  0.
         23    2    1    2    0    0  0.45757312252E+02 -0.30142723884E+02 -0.86720586331E+02  0.13699085657E+03  0.90794929713E+02 0.  0.
        -13    1    4    4    0    0 -0.20482120281E+02 -0.24061917392E+02 -0.56101630642E+01  0.32093099716E+02  0.00000000000E+00 0.  1.
         13    1    4    4    0    0  0.66239432532E+02 -0.60808064919E+01 -0.81110423267E+02  0.10489775685E+03  0.00000000000E+00 0. -1.
        -13    1    3    3    0    0 -0.15203022333E+02  0.75965408387E+02 -0.11435809752E+03  0.13812910493E+03  0.00000000000E+00 0.  1.
         13    1    3    3    0    0  0.18642408579E+02 -0.19579204141E+02 -0.15397090501E+02  0.31111975641E+02  0.00000000000E+00 0. -1.
         -1    1    1    2    0  502 -0.49196698497E+02 -0.26243480363E+02  0.10549908813E+03  0.11932767072E+03  0.00000000000E+00 0.  1.
<scales pt_clust_5="13000.00000" pt_clust_6="13000.00000" pt_clust_7="13000.00000" pt_clust_8="13000.00000" pt_clust_9="55.75872"></scales>
<clustering>
<clus scale="   55.759">  1  9  2 -1</clus>
<clus scale="   90.795">  5  6 -1 -1</clus>
<clus scale="   92.816">  7  8 -1 -1</clus>
<clus scale="  102.887">  1  5  2 -1</clus>
<clus scale="   55.759">  1  5  2 -1</clus>
</clustering>
</event>
<event>
 9    1  0.1464797E-005  0.1569761E+03  0.7546771E-02  0.1192430E+00
          1   -1    0    0  502    0 -0.00000000000E+00  0.00000000000E+00  0.49736461456E+03  0.49736461456E+03  0.00000000000E+00 0. -1.
         21   -1    0    0  501  502  0.00000000000E+00 -0.00000000000E+00 -0.35462113978E+03  0.35462113978E+03  0.00000000000E+00 0. -1.
         23    2    1    2    0    0 -0.96453243413E+02 -0.11563657710E+03  0.33825113263E+03  0.38150095109E+03  0.91946184412E+02 0.  0.
         23    2    1    2    0    0 -0.10004888768E+02  0.10818143275E+03  0.88758624657E+02  0.16684647816E+03  0.90312422366E+02 0.  0.
        -11    1    3    3    0    0 -0.33492510430E+02 -0.70464959629E+02  0.79467611520E+02  0.11136498584E+03  0.00000000000E+00 0.  1.
         11    1    3    3    0    0 -0.62960732984E+02 -0.45171617471E+02  0.25878352111E+03  0.27013596525E+03  0.00000000000E+00 0. -1.
        -13    1    4    4    0    0  0.38204590275E+02  0.48561582372E+02  0.56282618310E+02  0.83579609502E+02  0.00000000000E+00 0.  1.
         13    1    4    4    0    0 -0.48209479043E+02  0.59619850373E+02  0.32476006347E+02  0.83266868659E+02  0.00000000000E+00 0. -1.
          1    1    1    2  501    0  0.10645813218E+03  0.74551443549E+01 -0.28426628251E+03  0.30363832508E+03  0.00000000000E+00 0. -1.
<scales pt_clust_5="13000.00000" pt_clust_6="13000.00000" pt_clust_7="13000.00000" pt_clust_8="13000.00000" pt_clust_9="106.71885"></scales>
<clustering>
<clus scale="   90.312">  7  8 -1 -1</clus>
<clus scale="   91.946">  5  6 -1 -1</clus>
<clus scale="  106.719">  2  9  1 -1</clus>
<clus scale="  156.025">  2  7  1 -1</clus>
<clus scale="  106.719">  2  5  1 -1</clus>
</clustering>
</event>
<event>
 9    1  0.1464797E-005  0.1380916E+03  0.7546771E-02  0.1216250E+00
         21   -1    0    0  501  502  0.00000000000E+00  0.00000000000E+00  0.14092067186E+03  0.14092067186E+03  0.00000000000E+00 0. -1.
          2   -1    0    0  502    0 -0.00000000000E+00 -0.00000000000E+00 -0.96264997867E+03  0.96264997867E+03  0.00000000000E+00 0. -1.
         23    2    1    2    0    0 -0.73341053008E+02 -0.10647082861E+03 -0.71384037115E+03  0.73116594379E+03  0.91217402260E+02 0.  0.
         23    2    1    2    0    0  0.52408908888E+02  0.35167957872E+02 -0.21474653575E+03  0.24224787545E+03  0.92652466515E+02 0.  0.
        -11    1    4    4    0    0 -0.45982443958E+00  0.53584159954E+02 -0.13074119699E+03  0.14129661789E+03  0.00000000000E+00 0.  1.
         11    1    4    4    0    0  0.52868733328E+02 -0.18416202082E+02 -0.84005338763E+02  0.10095125756E+03  0.00000000000E+00 0. -1.
        -13    1    3    3    0    0 -0.88282323555E+02 -0.74574484248E+02 -0.62506887508E+03  0.63566203359E+03  0.00000000000E+00 0. -1.
         13    1    3    3    0    0  0.14941270547E+02 -0.31896344366E+02 -0.88771496074E+02  0.95503910206E+02  0.00000000000E+00 0.  1.
          2    1    1    2  501    0  0.20932144120E+02  0.71302870742E+02  0.10685760010E+03  0.13015683129E+03  0.00000000000E+00 0. -1.
<scales pt_clust_5="13000.00000" pt_clust_6="13000.00000" pt_clust_7="13000.00000" pt_clust_8="13000.00000" pt_clust_9="74.31187"></scales>
<clustering>
<clus scale="   74.312">  1  9  2 -1</clus>
<clus scale="   91.217">  7  8 -1 -1</clus>
<clus scale="   92.652">  5  6 -1 -1</clus>
<clus scale="  137.133">  2  7  1 -1</clus>
<clus scale="   74.312">  1  5  2 -1</clus>
</clustering>
</event>
<event>
 9    1  0.1464797E-005  0.1052032E+03  0.7546771E-02  0.1271077E+00
         21   -1    0    0  501  502  0.00000000000E+00  0.00000000000E+00  0.15294880638E+03  0.15294880638E+03  0.00000000000E+00 0.  1.
         -1   -1    0    0    0  501 -0.00000000000E+00 -0.00000000000E+00 -0.20236366015E+03  0.20236366015E+03  0.00000000000E+00 0.  1.
         23    2    1    2    0    0  0.50837169707E+02  0.31335905013E+01 -0.15900182761E+03  0.18991288254E+03  0.90504610695E+02 0.  0.
         23    2    1    2    0    0 -0.28538348773E+02  0.94004249978E+01  0.85669571425E+02  0.13037985958E+03  0.93577919267E+02 0.  0.
        -13    1    4    4    0    0 -0.35485154588E+02 -0.36359314099E+02  0.54900955295E+02  0.74801810207E+02  0.00000000000E+00 0.  1.
         13    1    4    4    0    0  0.69468058148E+01  0.45759739097E+02  0.30768616130E+02  0.55578049370E+02  0.00000000000E+00 0. -1.
        -13    1    3    3    0    0  0.23163944298E+02  0.38943045821E+02 -0.33069729121E+02  0.56095776289E+02  0.00000000000E+00 0. -1.
         13    1    3    3    0    0  0.27673225409E+02 -0.35809455320E+02 -0.12593209849E+03  0.13381710625E+03  0.00000000000E+00 0.  1.
         -1    1    1    2    0  502 -0.22298820934E+02 -0.12534015499E+02  0.23917402419E+02  0.35019724414E+02  0.00000000000E+00 0.  1.
<scales pt_clust_5="13000.00000" pt_clust_6="13000.00000" pt_clust_7="13000.00000" pt_clust_8="13000.00000" pt_clust_9="25.58005"></scales>
<clustering>
<clus scale="   25.580">  1  9  2 -1</clus>
<clus scale="   90.505">  7  8 -1 -1</clus>
<clus scale="   93.578">  5  6 -1 -1</clus>
<clus scale="  102.479">  2  7  1 -1</clus>
<clus scale="   25.580">  1  5  2 -1</clus>
</clustering>
</event>
<event>
 9    1  0.1464797E-005  0.1552672E+03  0.7546771E-02  0.1194416E+00
         -2   -1    0    0    0  501 -0.00000000000E+00  0.00000000000E+00  0.84671142377E+03  0.84671142377E+03  0.00000000000E+00 0.  1.
         21   -1    0    0  501  502  0.00000000000E+00 -0.00000000000E+00 -0.91760213265E+02  0.91760213265E+02  0.00000000000E+00 0.  1.
         23    2    1    2    0    0 -0.13457900376E+03 -0.48493976892E+02  0.67213748774E+03  0.69316021569E+03  0.90769533096E+02 0.  0.
         23    2    1    2    0    0  0.80706022382E+02  0.25710029062E+02  0.12330883955E+03  0.17416888213E+03  0.89192275155E+02 0.  0.
        -13    1    3    3    0    0 -0.86242756086E+02 -0.49061759899E+02  0.58639438536E+03  0.59472955571E+03  0.00000000000E+00 0.  1.
         13    1    3    3    0    0 -0.48336247671E+02  0.56778300715E+00  0.85743102386E+02  0.98430659976E+02  0.00000000000E+00 0. -1.
        -13    1    4    4    0    0  0.28327600517E+02 -0.28884794609E+02  0.72529575292E+02  0.83050127048E+02  0.00000000000E+00 0. -1.
         13    1    4    4    0    0  0.52378421865E+02  0.54594823672E+02  0.50779264262E+02  0.91118755083E+02  0.00000000000E+00 0.  1.
         -2    1    1    2    0  502  0.53872981375E+02  0.22783947830E+02 -0.40495116796E+02  0.71142539210E+02  0.00000000000E+00 0.  1.
<scales pt_clust_5="13000.00000" pt_clust_6="13000.00000" pt_clust_7="13000.00000" pt_clust_8="13000.00000" pt_clust_9="58.49279"></scales>
<clustering>
<clus scale="   58.493">  2  9  1 -1</clus>
<clus scale="   89.192">  7  8 -1 -1</clus>
<clus scale="   90.770">  5  6 -1 -1</clus>
<clus scale="  154.350">  2  7  1 -1</clus>
<clus scale="   58.493">  2  5  1 -1</clus>
</clustering>
</event>
<event>
 9    1  0.1464797E-005  0.1003929E+03  0.7546771E-02  0.1280622E+00
         21   -1    0    0  501  502  0.00000000000E+00  0.00000000000E+00  0.31443941155E+03  0.31443941155E+03  0.00000000000E+00 0. -1.
          1   -1    0    0  502    0 -0.00000000000E+00 -0.00000000000E+00 -0.56212026550E+03  0.56212026550E+03  0.00000000000E+00 0. -1.
         23    2    1    2    0    0 -0.20212021332E+02 -0.26886459442E+02 -0.44576688109E+03  0.45601033195E+03  0.90032788793E+02 0.  0.
         23    2    1    2    0    0  0.13167099123E+01  0.10875127214E+03 -0.55717515943E+02  0.15320103514E+03  0.92398823955E+02 0.  0.
        -13    1    3    3    0    0 -0.48252843432E+02 -0.41199584508E+02 -0.26251866239E+03  0.27007737922E+03  0.00000000000E+00 0.  1.
         13    1    3    3    0    0  0.28040822100E+02  0.14313125066E+02 -0.18324821870E+03  0.18593295273E+03  0.00000000000E+00 0. -1.
        -13    1    4    4    0    0  0.24897890349E+01  0.35655240749E+02 -0.70107497014E+02  0.78692797510E+02  0.00000000000E+00 0.  1.
         13    1    4    4    0    0 -0.11730791226E+01  0.73096031389E+02  0.14389981071E+02  0.74508237630E+02  0.00000000000E+00 0. -1.
          1    1    1    2  501    0  0.18895311420E+02 -0.81864812696E+02  0.25380354309E+03  0.26734830995E+03  0.00000000000E+00 0. -1.
<scales pt_clust_5="13000.00000" pt_clust_6="13000.00000" pt_clust_7="13000.00000" pt_clust_8="13000.00000" pt_clust_9="84.01714"></scales>
<clustering>
<clus scale="   84.017">  1  9  2 -1</clus>
<clus scale="   90.033">  5  6 -1 -1</clus>
<clus scale="   92.399">  7  8 -1 -1</clus>
<clus scale="   98.220">  2  5  1 -1</clus>
<clus scale="   84.017">  1  5  2 -1</clus>
</clustering>
</event>
<event>
 9    1  0.1464797E-005  0.1506258E+03  0.7546771E-02  0.1199895E+00
         21   -1    0    0  501  502  0.00000000000E+00  0.00000000000E+00  0.22607071745E+03  0.22607071745E+03  0.00000000000E+00 0. -1.
          2   -1    0    0  502    0 -0.00000000000E+00 -0.00000000000E+00 -0.45807007105E+03  0.45807007105E+03  0.00000000000E+00 0. -1.
         23    2    1    2    0    0  0.11161360002E+03 -0.28480024978E+02 -0.22983326707E+03  0.27245503950E+03  0.90220343409E+02 0.  0.
         23    2    1    2    0    0 -0.11080950391E+03  0.73012076189E+02 -0.17274912513E+03  0.23538395317E+03  0.89184279706E+02 0.  0.
        -11    1    3    3    0    0  0.10006152488E+03 -0.56035606522E+02 -0.19785925975E+03  0.22869321072E+03  0.00000000000E+00 0. -1.
         11    1    3    3    0    0  0.11552075144E+02  0.27555581545E+02 -0.31974007315E+02  0.43761828780E+02  0.00000000000E+00 0.  1.
        -13    1    4    4    0    0 -0.78402810810E+02  0.74995770591E+02 -0.73728585605E+02  0.13117648678E+03  0.00000000000E+00 0.  1.
         13    1    4    4    0    0 -0.32406693102E+02 -0.19836944017E+01 -0.99020539529E+02  0.10420746638E+03  0.00000000000E+00 0. -1.
          2    1    1    2  501    0 -0.80409610803E+00 -0.44532051212E+02  0.17058303860E+03  0.17630179583E+03  0.00000000000E+00 0. -1.
<scales pt_clust_5="13000.00000" pt_clust_6="13000.00000" pt_clust_7="13000.00000" pt_clust_8="13000.00000" pt_clust_9="44.53931"></scales>
<clustering>
<clus scale="   44.539">  1  9  2 -1</clus>
<clus scale="   89.184">  7  8 -1 -1</clus>
<clus scale="   90.220">  5  6 -1 -1</clus>
<clus scale="  150.008">  1  7  2 -1</clus>
<clus scale="   44.539">  1  5  2 -1</clus>
</clustering>
</event>
<event>
 9    1  0.1464797E-005  0.1712652E+03  0.7546771E-02  0.1176813E+00
          1   -1    0    0  502    0 -0.00000000000E+00  0.00000000000E+00  0.26327307566E+02  0.26327307566E+02  0.00000000000E+00 0. -1.
         21   -1    0    0  501  502  0.00000000000E+00 -0.00000000000E+00 -0.16883118544E+04  0.16883118544E+04  0.00000000000E+00 0.  1.
         23    2    1    2    0    0  0.13454098472E+03  0.59674707704E+02 -0.45427285067E+03  0.48602411833E+03  0.90516702545E+02 0.  0.
         23    2    1    2    0    0 -0.10202800082E+03 -0.10237943027E+03 -0.94948632440E+03  0.96487060279E+03  0.92518858673E+02 0.  0.
        -11    1    4    4    0    0 -0.28147634838E+02  0.15737410906E+02 -0.18727577567E+03  0.19003202783E+03  0.00000000000E+00 0. -1.
         11    1    4    4    0    0 -0.73880365982E+02 -0.11811684117E+03 -0.76221054872E+03  0.77483857495E+03  0.00000000000E+00 0.  1.
        -13    1    3    3    0    0  0.82455929464E+02  0.86063797158E+01 -0.34370781979E+03  0.35356486740E+03  0.00000000000E+00 0.  1.
         13    1    3    3    0    0  0.52085055257E+02  0.51068327989E+02 -0.11056503087E+03  0.13245925093E+03  0.00000000000E+00 0. -1.
          1    1    1    2  501    0 -0.32512983900E+02  0.42704722562E+02 -0.25822537173E+03  0.26374444081E+03  0.00000000000E+00 0. -1.
<scales pt_clust_5="13000.00000" pt_clust_6="13000.00000" pt_clust_7="13000.00000" pt_clust_8="13000.00000" pt_clust_9="53.67297"></scales>
<clustering>
<clus scale="   53.673">  2  9  1 -1</clus>
<clus scale="   90.517">  7  8 -1 -1</clus>
<clus scale="   92.519">  5  6 -1 -1</clus>
<clus scale="  170.192">  1  7  2 -1</clus>
<clus scale="   53.673">  2  5  1 -1</clus>
</clustering>
</event>
<event>
 9    1  0.1464797E-005  0.9234202E+02  0.7546771E-02  0.1297600E+00
         -3   -1    0    0    0  501 -0.00000000000E+00  0.00000000000E+00  0.51469364420E+02  0.51469364420E+02  0.00000000000E+00 0.  1.
         21   -1    0    0  501  502  0.00000000000E+00 -0.00000000000E+00 -0.24459301336E+03  0.24459301336E+03  0.00000000000E+00 0.  1.
         23    2    1    2    0    0  0.17500619695E+02  0.11932858173E+02 -0.62161767539E+02  0.11000487898E+03  0.88251477388E+02 0.  0.
         23    2    1    2    0    0 -0.39529157125E+02  0.14320066472E+02 -0.88388875867E+02  0.13140465520E+03  0.87675375476E+02 0.  0.
        -11    1    4    4    0    0 -0.65663966195E+02  0.19849260232E+02 -0.51121414968E+02  0.85552023100E+02  0.00000000000E+00 0.  1.
         11    1    4    4    0    0  0.26134809070E+02 -0.55291937601E+01 -0.37267460899E+02  0.45852632101E+02  0.00000000000E+00 0. -1.
        -13    1    3    3    0    0  0.34238177273E+01  0.45292500270E+02 -0.57834991363E+02  0.73539236701E+02  0.00000000000E+00 0.  1.
         13    1    3    3    0    0  0.14076801967E+02 -0.33359642098E+02 -0.43267761762E+01  0.36465642276E+02  0.00000000000E+00 0. -1.
         -3    1    1    2    0  502  0.22028537431E+02 -0.26252924644E+02 -0.42573005536E+02  0.54652843605E+02  0.00000000000E+00 0.  1.
<scales pt_clust_5="13000.00000" pt_clust_6="13000.00000" pt_clust_7="13000.00000" pt_clust_8="13000.00000" pt_clust_9="34.27058"></scales>
<clustering>
<clus scale="   34.271">  2  9  1 -1</clus>
<clus scale="   87.675">  5  6 -1 -1</clus>
<clus scale="   88.251">  7  8 -1 -1</clus>
<clus scale="   91.792">  2  5  1 -1</clus>
<clus scale="   34.271">  2  5  1 -1</clus>
</clustering>
</event>
<event>
 9    1  0.1464797E-005  0.1199967E+03  0.7546771E-02  0.1254907E+00
         21   -1    0    0  501  502  0.00000000000E+00  0.00000000000E+00  0.93241490046E+02  0.93241490046E+02  0.00000000000E+00 0.  1.
          3   -1    0    0  502    0 -0.00000000000E+00 -0.00000000000E+00 -0.31247492052E+03  0.31247492052E+03  0.00000000000E+00 0. -1.
         23    2    1    2    0    0 -0.44321610177E+02 -0.16882963720E+02 -0.22230109181E+03  0.25260577947E+03  0.11019285281E+03 0.  0.
         23    2    1    2    0    0  0.51331001736E+02 -0.63558763560E+01 -0.39046557089E+02  0.10450216833E+03  0.81980489521E+02 0.  0.
        -11    1    4    4    0    0  0.18640336066E+02 -0.42398128542E+02 -0.86113998451E+01  0.47108594118E+02  0.00000000000E+00 0.  1.
         11    1    4    4    0    0  0.32690665669E+02  0.36042252186E+02 -0.30435157243E+02  0.57393574213E+02  0.00000000000E+00 0. -1.
        -13    1    3    3    0    0 -0.19415483029E+01 -0.56112995267E+02 -0.70077744294E+02  0.89796036065E+02  0.00000000000E+00 0.  1.
         13    1    3    3    0    0 -0.42380061874E+02  0.39230031547E+02 -0.15222334751E+03  0.16280974341E+03  0.00000000000E+00 0. -1.
          3    1    1    2  501    0 -0.70093915586E+01  0.23238840076E+02  0.42114218427E+02  0.48608462759E+02  0.00000000000E+00 0. -1.
<scales pt_clust_5="13000.00000" pt_clust_6="13000.00000" pt_clust_7="13000.00000" pt_clust_8="13000.00000" pt_clust_9="24.27293"></scales>
<clustering>
<clus scale="   24.273">  1  9  2 -1</clus>
<clus scale="   81.980">  5  6 -1 -1</clus>
<clus scale="   94.750">  1  5  2 -1</clus>
<clus scale="  110.193">  7  8 -1 -1</clus>
<clus scale="   24.273">  1  5  2 -1</clus>
</clustering>
</event>
<event>
 9    1  0.1464797E-005  0.2232992E+03  0.7546771E-02  0.1140644E+00
          2   -1    0    0  502    0 -0.00000000000E+00  0.00000000000E+00  0.12207567462E+03  0.12207567462E+03  0.00000000000E+00 0. -1.
         21   -1    0    0  501  502  0.00000000000E+00 -0.00000000000E+00 -0.12255349642E+04  0.12255349642E+04  0.00000000000E+00 0.  1.
         23    2    1    2    0    0 -0.12375650731E+03  0.94967220972E+02 -0.32709338475E+02  0.18155945969E+03  0.86945330060E+02 0.  0.
         23    2    1    2    0    0  0.17670360758E+03  0.12214615894E+03 -0.63522563342E+03  0.67653810835E+03  0.89712639116E+02 0.  0.
        -11    1    3    3    0    0 -0.28751442958E+02  0.89196019740E+01  0.26739603154E+02  0.40264266395E+02  0.00000000000E+00 0.  1.
         11    1    3    3    0    0 -0.95005064356E+02  0.86047618998E+02 -0.59448941629E+02  0.14129519330E+03  0.00000000000E+00 0. -1.
        -13    1    4    4    0    0  0.12806169472E+03  0.77902838542E+02 -0.54275256505E+03  0.56307104061E+03  0.00000000000E+00 0.  1.
         13    1    4    4    0    0  0.48641912860E+02  0.44243320403E+02 -0.92473068368E+02  0.11346706774E+03  0.00000000000E+00 0. -1.
          2    1    1    2  501    0 -0.52947100270E+02 -0.21711337992E+03 -0.43552431764E+03  0.48951307073E+03  0.00000000000E+00 0. -1.
<scales pt_clust_5="13000.00000" pt_clust_6="13000.00000" pt_clust_7="13000.00000" pt_clust_8="13000.00000" pt_clust_9="204.48526"></scales>
<clustering>
<clus scale="   86.945">  5  6 -1 -1</clus>
<clus scale="   89.713">  7  8 -1 -1</clus>
<clus scale="  178.589">  1  5  2 -1</clus>
<clus scale="  204.485">  2  9  1 -1</clus>
<clus scale="  204.485">  2  5  1 -1</clus>
</clustering>
</event>
<event>
 9    1  0.1464797E-005  0.1101257E+03  0.7546771E-02  0.1260681E+00
          1   -1    0    0  502    0 -0.00000000000E+00  0.00000000000E+00  0.83971641603E+02  0.83971641603E+02  0.00000000000E+00 0. -1.
         21   -1    0    0  501  502  0.00000000000E+00 -0.00000000000E+00 -0.49475847065E+03  0.49475847065E+03  0.00000000000E+00 0.  1.
         23    2    1    2    0    0  0.14565410316E+02  0.87595098092E+02 -0.40296766051E+02  0.13393058537E+03  0.91806971173E+02 0.  0.
         23    2    1    2    0    0  0.59576410701E+02 -0.21600956920E+02 -0.76916356202E+02  0.13489993409E+03  0.90917084833E+02 0.  0.
        -11    1    4    4    0    0  0.48402444598E+01 -0.40259813072E+02 -0.24603695291E+01  0.40624302250E+02  0.00000000000E+00 0. -1.
         11    1    4    4    0    0  0.54736166241E+02  0.18658856152E+02 -0.74455986673E+02  0.94275631842E+02  0.00000000000E+00 0.  1.
        -13    1    3    3    0    0 -0.29349163493E+02  0.73342951406E+01 -0.28717211214E+02  0.41711431321E+02  0.00000000000E+00 0. -1.
         13    1    3    3    0    0  0.43914573809E+02  0.80260802952E+02 -0.11579554837E+02  0.92219154049E+02  0.00000000000E+00 0.  1.
          1    1    1    2  501    0 -0.74141821016E+02 -0.65994141172E+02 -0.29357370679E+03  0.30989959279E+03  0.00000000000E+00 0. -1.
<scales pt_clust_5="13000.00000" pt_clust_6="13000.00000" pt_clust_7="13000.00000" pt_clust_8="13000.00000" pt_clust_9="99.25843"></scales>
<clustering>
<clus scale="   90.917">  5  6 -1 -1</clus>
<clus scale="   91.807">  7  8 -1 -1</clus>
<clus scale="   99.258">  2  9  1 -1</clus>
<clus scale="  109.385">  2  5  1 -1</clus>
<clus scale="   99.258">  2  5  1 -1</clus>
</clustering>
</event>
<event>
 9    1  0.1464797E-005  0.9246113E+02  0.7546771E-02  0.1298035E+00
         21   -1    0    0  501  502  0.00000000000E+00  0.00000000000E+00  0.79895555143E+02  0.79895555143E+02  0.00000000000E+00 0.  1.
          1   -1    0    0  502    0 -0.00000000000E+00 -0.00000000000E+00 -0.16960328401E+03  0.16960328401E+03  0.00000000000E+00 0. -1.
         23    2    1    2    0    0 -0.13564675036E+02  0.30513545042E+01 -0.73154045144E+02  0.11866912579E+03  0.92398787441E+02 0.  0.
         23    2    1    2    0    0 -0.10399656195E+02  0.29089802187E+01 -0.37269403036E+02  0.98596876258E+02  0.90640612256E+02 0.  0.
        -13    1    3    3    0    0 -0.45814462930E+02 -0.63718883933E+01 -0.10284473349E+02  0.47384980398E+02  0.00000000000E+00 0.  1.
         13    1    3    3    0    0  0.32249787893E+02  0.94232428975E+01 -0.62869571795E+02  0.71284145387E+02  0.00000000000E+00 0. -1.
        -13    1    4    4    0    0 -0.51927898546E+01  0.44936851563E+02 -0.53199416665E+01  0.45547639612E+02  0.00000000000E+00 0.  1.
         13    1    4    4    0    0 -0.52068663401E+01 -0.42027871345E+02 -0.31949461370E+02  0.53049236645E+02  0.00000000000E+00 0. -1.
          1    1    1    2  501    0  0.23964331231E+02 -0.59603347229E+01  0.20715719315E+02  0.32232837109E+02  0.00000000000E+00 0. -1.
<scales pt_clust_5="13000.00000" pt_clust_6="13000.00000" pt_clust_7="13000.00000" pt_clust_8="13000.00000" pt_clust_9="24.69443"></scales>
<clustering>
<clus scale="   24.694">  1  9  2 -1</clus>
<clus scale="   90.641">  7  8 -1 -1</clus>
<clus scale="   90.704">  1  7  2 -1</clus>
<clus scale="   92.399">  5  6 -1 -1</clus>
<clus scale="   24.694">  1  5  2 -1</clus>
</clustering>
</event>
<event>
 9    1  0.1464797E-005  0.1122104E+03  0.7546771E-02  0.1256563E+00
         -1   -1    0    0    0  501 -0.00000000000E+00  0.00000000000E+00  0.54490961990E+03  0.54490961990E+03  0.00000000000E+00 0.  1.
         21   -1    0    0  501  502  0.00000000000E+00 -0.00000000000E+00 -0.51622918273E+02  0.51622918273E+02  0.00000000000E+00 0.  1.
         23    2    1    2    0    0 -0.20510137066E+02  0.78987805388E+02  0.34153357242E+03  0.36299766611E+03  0.91991224515E+02 0.  0.
         23    2    1    2    0    0 -0.28624666126E+02 -0.24454831745E+02  0.60000541901E+02  0.11603333430E+03  0.91903532766E+02 0.  0.
        -13    1    3    3    0    0 -0.36216007659E+02  0.91474838267E+02  0.31312872331E+03  0.32822072239E+03  0.00000000000E+00 0.  1.
         13    1    3    3    0    0  0.15705870593E+02 -0.12487032879E+02  0.28404849113E+02  0.34776943718E+02  0.00000000000E+00 0. -1.
        -13    1    4    4    0    0 -0.83811478333E+01  0.33189279063E+02  0.65398456120E+01  0.34850272084E+02  0.00000000000E+00 0.  1.
         13    1    4    4    0    0 -0.20243518292E+02 -0.57644110808E+02  0.53460696289E+02  0.81183062220E+02  0.00000000000E+00 0. -1.
         -1    1    1    2    0  502  0.49134803192E+02 -0.54532973642E+02  0.91752587309E+02  0.11750153776E+03  0.00000000000E+00 0.  1.
<scales pt_clust_5="13000.00000" pt_clust_6="13000.00000" pt_clust_7="13000.00000" pt_clust_8="13000.00000" pt_clust_9="73.40350"></scales>
<clustering>
<clus scale="   73.404">  2  9  1 -1</clus>
<clus scale="   91.904">  7  8 -1 -1</clus>
<clus scale="   91.991">  5  6 -1 -1</clus>
<clus scale="  112.139">  2  7  1 -1</clus>
<clus scale="   73.404">  2  5  1 -1</clus>
</clustering>
</event>
<event>
 9    1  0.1464797E-005  0.2673721E+03  0.7546771E-02  0.1102914E+00
          2   -1    0    0  502    0 -0.00000000000E+00  0.00000000000E+00  0.25305194458E+03  0.25305194458E+03  0.00000000000E+00 0. -1.
         21   -1    0    0  501  502  0.00000000000E+00 -0.00000000000E+00 -0.92164246525E+03  0.92164246525E+03  0.00000000000E+00 0.  1.
         23    2    1    2    0    0  0.18184648958E+03  0.16841673276E+03  0.14038327872E+03  0.29938993402E+03  0.92165752855E+02 0.  0.
         23    2    1    2    0    0 -0.20691884486E+03 -0.19159344988E+03 -0.76020176271E+03  0.81576881609E+03  0.89713894621E+02 0.  0.
        -13    1    3    3    0    0  0.34521227137E+02  0.92437487929E+02  0.52468143456E+02  0.11175558320E+03  0.00000000000E+00 0.  1.
         13    1    3    3    0    0  0.14732526245E+03  0.75979244833E+02  0.87915135269E+02  0.18763435082E+03  0.00000000000E+00 0. -1.
        -13    1    4    4    0    0 -0.58765068919E+02 -0.92067410110E+02 -0.38644917497E+03  0.40158773159E+03  0.00000000000E+00 0. -1.
         13    1    4    4    0    0 -0.14815377594E+03 -0.99526039767E+02 -0.37375258774E+03  0.41418108450E+03  0.00000000000E+00 0.  1.
          2    1    1    2  501    0  0.25072355272E+02  0.23176717115E+02 -0.48772036690E+02  0.59535659718E+02  0.00000000000E+00 0. -1.
<scales pt_clust_5="13000.00000" pt_clust_6="13000.00000" pt_clust_7="13000.00000" pt_clust_8="13000.00000" pt_clust_9="34.14357"></scales>
<clustering>
<clus scale="   34.144">  2  9  1 -1</clus>
<clus scale="   89.714">  7  8 -1 -1</clus>
<clus scale="   92.166">  5  6 -1 -1</clus>
<clus scale="  266.537">  2  7  1 -1</clus>
<clus scale="   34.144">  2  5  1 -1</clus>
</clustering>
</event>
<event>
 9    1  0.1464797E-005  0.1015896E+03  0.7546771E-02  0.1277337E+00
         21   -1    0    0  501  502  0.00000000000E+00  0.00000000000E+00  0.36736587560E+02  0.36736587560E+02  0.00000000000E+00 0. -1.
          2   -1    0    0  502    0 -0.00000000000E+00 -0.00000000000E+00 -0.54386683362E+03  0.54386683362E+03  0.00000000000E+00 0. -1.
         23    2    1    2    0    0 -0.28863664445E+02 -0.38633038424E+02 -0.27496457940E+03  0.29310302734E+03  0.89321004944E+02 0.  0.
         23    2    1    2    0    0 -0.23278099880E+02  0.63285651963E+02 -0.16407649442E+03  0.19826671008E+03  0.88553083675E+02 0.  0.
        -11    1    4    4    0    0 -0.47915057575E+02  0.69969339604E+02 -0.13641923545E+03  0.16062929069E+03  0.00000000000E+00 0. -1.
         11    1    4    4    0    0  0.24636957695E+02 -0.66836876405E+01 -0.27657258973E+02  0.37637419397E+02  0.00000000000E+00 0.  1.
        -13    1    3    3    0    0 -0.47756342686E+02  0.83244829012E+01 -0.10287807872E+03  0.11372714875E+03  0.00000000000E+00 0. -1.
         13    1    3    3    0    0  0.18892678242E+02 -0.46957521325E+02 -0.17208650068E+03  0.17937587858E+03  0.00000000000E+00 0.  1.
          2    1    1    2  501    0  0.52141764325E+02 -0.24652613540E+02 -0.68089172236E+02  0.89233683758E+02  0.00000000000E+00 0. -1.
<scales pt_clust_5="13000.00000" pt_clust_6="13000.00000" pt_clust_7="13000.00000" pt_clust_8="13000.00000" pt_clust_9="57.67595"></scales>
<clustering>
<clus scale="   57.676">  1  9  2 -1</clus>
<clus scale="   88.553">  5  6 -1 -1</clus>
<clus scale="   89.321">  7  8 -1 -1</clus>
<clus scale="  100.915">  1  5  2 -1</clus>
<clus scale="   57.676">  1  5  2 -1</clus>
</clustering>
</event>
<event>
 9    1  0.1464797E-005  0.1023644E+03  0.7546771E-02  0.1275634E+00
         -3   -1    0    0    0  501 -0.00000000000E+00  0.00000000000E+00  0.25037235648E+03  0.25037235648E+03  0.00000000000E+00 0.  1.
         21   -1    0    0  501  502  0.00000000000E+00 -0.00000000000E+00 -0.12446287948E+03  0.12446287948E+03  0.00000000000E+00 0.  1.
         23    2    1    2    0    0 -0.10844931458E+02 -0.48713059468E+02  0.20062673146E+03  0.22596442581E+03  0.91204504571E+02 0.  0.
         23    2    1    2    0    0  0.33791566901E+01  0.14623700127E+02 -0.62055244588E+02  0.11174738484E+03  0.91713430493E+02 0.  0.
        -11    1    3    3    0    0 -0.47915692493E+02 -0.89449201394E+01  0.80490732171E+02  0.94099325974E+02  0.00000000000E+00 0.  1.
         11    1    3    3    0    0  0.37070761035E+02 -0.39768139328E+02  0.12013599929E+03  0.13186509983E+03  0.00000000000E+00 0. -1.
        -11    1    4    4    0    0 -0.10699121206E+01 -0.38872980221E+02 -0.30987740200E+02  0.49724172651E+02  0.00000000000E+00 0.  1.
         11    1    4    4    0    0  0.44490688107E+01  0.53496680348E+02 -0.31067504388E+02  0.62023212191E+02  0.00000000000E+00 0. -1.
         -3    1    1    2    0  502  0.74657747678E+01  0.34089359341E+02 -0.12662009873E+02  0.37123425316E+02  0.00000000000E+00 0.  1.
<scales pt_clust_5="13000.00000" pt_clust_6="13000.00000" pt_clust_7="13000.00000" pt_clust_8="13000.00000" pt_clust_9="34.89731"></scales>
<clustering>
<clus scale="   34.897">  2  9  1 -1</clus>
<clus scale="   91.205">  5  6 -1 -1</clus>
<clus scale="   91.713">  7  8 -1 -1</clus>
<clus scale="  101.909">  1  5  2 -1</clus>
<clus scale="   34.897">  2  5  1 -1</clus>
</clustering>
</event>
<event>
 9    1  0.1464797E-005  0.1204352E+03  0.7546771E-02  0.1242550E+00
          1   -1    0    0  502    0 -0.00000000000E+00  0.00000000000E+00  0.11008613447E+04  0.11008613447E+04  0.00000000000E+00 0. -1.
         21   -1    0    0  501  502  0.00000000000E+00 -0.00000000000E+00 -0.18513093577E+02  0.18513093577E+02  0.00000000000E+00 0.  1.
         23    2    1    2    0    0 -0.21167303093E+02 -0.65446268312E+02  0.58141910688E+03  0.59253469408E+03  0.91202615570E+02 0.  0.
         23    2    1    2    0    0  0.18433730027E+02  0.94847528516E+02  0.39467265980E+03  0.41655671281E+03  0.91744921018E+02 0.  0.
        -11    1    4    4    0    0 -0.34565915633E+01  0.10632035172E+03  0.28689112166E+03  0.30597790917E+03  0.00000000000E+00 0.  1.
         11    1    4    4    0    0  0.21890321591E+02 -0.11472823205E+02  0.10778153814E+03  0.11057880364E+03  0.00000000000E+00 0. -1.
        -11    1    3    3    0    0  0.22839877678E+02  0.98150626169E+01  0.86755816394E+02  0.90247255608E+02  0.00000000000E+00 0.  1.
         11    1    3    3    0    0 -0.44007180771E+02 -0.75261330929E+02  0.49466329049E+03  0.50228743847E+03  0.00000000000E+00 0. -1.
          1    1    1    2  501    0  0.27335730659E+01 -0.29401260204E+02  0.10625648440E+03  0.11028303133E+03  0.00000000000E+00 0. -1.
<scales pt_clust_5="13000.00000" pt_clust_6="13000.00000" pt_clust_7="13000.00000" pt_clust_8="13000.00000" pt_clust_9="29.52806"></scales>
<clustering>
<clus scale="   29.528">  2  9  1 -1</clus>
<clus scale="   91.203">  7  8 -1 -1</clus>
<clus scale="   91.745">  5  6 -1 -1</clus>
<clus scale="  120.023">  1  7  2 -1</clus>
<clus scale="   29.528">  2  5  1 -1</clus>
</clustering>
</event>
<event>
 9    1  0.1464797E-005  0.9688067E+02  0.7546771E-02  0.1296648E+00
         21   -1    0    0  501  502  0.00000000000E+00  0.00000000000E+00  0.34388749106E+03  0.34388749106E+03  0.00000000000E+00 0.  1.
          1   -1    0    0  502    0 -0.00000000000E+00 -0.00000000000E+00 -0.36313853933E+02  0.36313853933E+02  0.00000000000E+00 0. -1.
         23    2    1    2    0    0 -0.60763350862E+00 -0.21296245749E+02  0.62432220729E+02  0.10317845843E+03  0.79335444772E+02 0.  0.
         23    2    1    2    0    0 -0.14754543267E+02 -0.76482633399E+00  0.21954653298E+03  0.23990435434E+03  0.95577913691E+02 0.  0.
        -13    1    3    3    0    0  0.50680112317E+01  0.26564831906E+02  0.43860139236E+02  0.51527534831E+02  0.00000000000E+00 0.  1.
         13    1    3    3    0    0 -0.56756447403E+01 -0.47861077655E+02  0.18572081493E+02  0.51650923597E+02  0.00000000000E+00 0. -1.
        -13    1    4    4    0    0  0.24987753126E+02  0.33674776473E+02  0.12319041611E+03  0.13013169098E+03  0.00000000000E+00 0.  1.
         13    1    4    4    0    0 -0.39742296393E+02 -0.34439602806E+02  0.96356116868E+02  0.10977266336E+03  0.00000000000E+00 0. -1.
          1    1    1    2  501    0  0.15362176776E+02  0.22061072083E+02  0.25594883422E+02  0.37118532219E+02  0.00000000000E+00 0. -1.
<scales pt_clust_5="13000.00000" pt_clust_6="13000.00000" pt_clust_7="13000.00000" pt_clust_8="13000.00000" pt_clust_9="26.88286"></scales>
<clustering>
<clus scale="   26.883">  1  9  2 -1</clus>
<clus scale="   79.335">  5  6 -1 -1</clus>
<clus scale="   80.900">  2  5  1 -1</clus>
<clus scale="   95.578">  7  8 -1 -1</clus>
<clus scale="   26.883">  1  5  2 -1</clus>
</clustering>
</event>
<event>
 9    1  0.1464797E-005  0.1033898E+03  0.7546771E-02  0.1274376E+00
          1   -1    0    0  502    0 -0.00000000000E+00  0.00000000000E+00  0.41462113513E+03  0.41462113513E+03  0.00000000000E+00 0. -1.
         21   -1    0    0  501  502  0.00000000000E+00 -0.00000000000E+00 -0.46386011910E+02  0.46386011910E+02  0.00000000000E+00 0.  1.
         23    2    1    2    0    0 -0.38582005741E+01  0.39091255277E+02  0.25321597096E+03  0.27393844145E+03  0.96855200182E+02 0.  0.
         23    2    1    2    0    0  0.36940742595E+02 -0.19252483803E+02  0.59005528911E+02  0.11905725479E+03  0.94645131301E+02 0.  0.
        -13    1    4    4    0    0  0.55850660303E+02  0.71811646917E+01  0.56645892734E+01  0.56594637151E+02  0.00000000000E+00 0.  1.
         13    1    4    4    0    0 -0.18909917707E+02 -0.26433648494E+02  0.53340939638E+02  0.62462617635E+02  0.00000000000E+00 0. -1.
        -13    1    3    3    0    0 -0.22590312631E+02  0.61887584814E+02  0.21931086137E+03  0.22899268393E+03  0.00000000000E+00 0. -1.
         13    1    3    3    0    0  0.18732112057E+02 -0.22796329537E+02  0.33905109593E+02  0.44945757519E+02  0.00000000000E+00 0.  1.
          1    1    1    2  501    0 -0.33082542021E+02 -0.19838771474E+02  0.56013623351E+02  0.68011450809E+02  0.00000000000E+00 0. -1.
<scales pt_clust_5="13000.00000" pt_clust_6="13000.00000" pt_clust_7="13000.00000" pt_clust_8="13000.00000" pt_clust_9="38.57503"></scales>
<clustering>
<clus scale="   38.575">  2  9  1 -1</clus>
<clus scale="   94.645">  5  6 -1 -1</clus>
<clus scale="   96.855">  7  8 -1 -1</clus>
<clus scale="  101.322">  2  5  1 -1</clus>
<clus scale="   38.575">  2  5  1 -1</clus>
</clustering>
</event>
<event>
 9    1  0.1655345E-005  0.9268386E+02  0.7546771E-02  0.1298689E+00
          2   -1    0    0  502    0 -0.00000000000E+00  0.00000000000E+00  0.11543420167E+03  0.11543420167E+03  0.00000000000E+00 0. -1.
         21   -1    0    0  501  502  0.00000000000E+00 -0.00000000000E+00 -0.39322336895E+03  0.39322336895E+03  0.00000000000E+00 0.  1.
         23    2    1    2    0    0 -0.19045227783E+02  0.24518137209E+02  0.65509021467E+02  0.11440228484E+03  0.88501927260E+02 0.  0.
         23    2    1    2    0    0  0.49437464293E+02  0.48638057459E+02 -0.15263921145E+03  0.18779375793E+03  0.84605219309E+02 0.  0.
        -11    1    4    4    0    0 -0.21113117666E+02 -0.23244332312E+01 -0.41622372235E+02  0.46728883979E+02  0.00000000000E+00 0. -1.
         11    1    4    4    0    0  0.70550581959E+02  0.50962490690E+02 -0.11101683922E+03  0.14106487395E+03  0.00000000000E+00 0.  1.
        -13    1    3    3    0    0  0.26640599552E+02  0.63949809926E+01 -0.55969754228E+01  0.27963251962E+02  0.00000000000E+00 0.  1.
         13    1    3    3    0    0 -0.45685827335E+02  0.18123156216E+02  0.71105996889E+02  0.86439032874E+02  0.00000000000E+00 0. -1.
          2    1    1    2  501    0 -0.30392236510E+02 -0.73156194668E+02 -0.19065897730E+03  0.20646152785E+03  0.00000000000E+00 0. -1.
<scales pt_clust_5="13000.00000" pt_clust_6="13000.00000" pt_clust_7="13000.00000" pt_clust_8="13000.00000" pt_clust_9="79.21816"></scales>
<clustering>
<clus scale="   79.218">  2  9  1 -1</clus>
<clus scale="   84.605">  5  6 -1 -1</clus>
<clus scale="   88.502">  7  8 -1 -1</clus>
<clus scale="   88.971">  2  5  1 -1</clus>
<clus scale="   79.218">  2  5  1 -1</clus>
</clustering>
</event>
<event>
 9    1  0.1464797E-005  0.9579836E+02  0.7546771E-02  0.1291930E+00
          1   -1    0    0  502    0 -0.00000000000E+00  0.00000000000E+00  0.39096893089E+03  0.39096893089E+03  0.00000000000E+00 0. -1.
         21   -1    0    0  501  502  0.00000000000E+00 -0.00000000000E+00 -0.48107746369E+02  0.48107746369E+02  0.00000000000E+00 0.  1.
         23    2    1    2    0    0 -0.22982380512E+02  0.63289492995E+01  0.21599980844E+03  0.23573658322E+03  0.91365059012E+02 0.  0.
         23    2    1    2    0    0  0.37020958564E+02  0.16432709877E+02  0.14303359121E+03  0.17208764862E+03  0.86688899320E+02 0.  0.
        -11    1    3    3    0    0  0.30390762028E+02  0.22234161797E+02  0.70194103477E+02  0.79656566148E+02  0.00000000000E+00 0.  1.
         11    1    3    3    0    0 -0.53373142540E+02 -0.15905212497E+02  0.14580570496E+03  0.15608001707E+03  0.00000000000E+00 0. -1.
        -13    1    4    4    0    0 -0.21722185849E+02  0.20720733998E+02  0.21161008591E+02  0.36728605474E+02  0.00000000000E+00 0.  1.
         13    1    4    4    0    0  0.58743144412E+02 -0.42880241212E+01  0.12187258262E+03  0.13535904315E+03  0.00000000000E+00 0. -1.
          1    1    1    2  501    0 -0.14038578052E+02 -0.22761659176E+02 -0.16172215136E+02  0.31252445418E+02  0.00000000000E+00 0. -1.
<scales pt_clust_5="13000.00000" pt_clust_6="13000.00000" pt_clust_7="13000.00000" pt_clust_8="13000.00000" pt_clust_9="26.74275"></scales>
<clustering>
<clus scale="   26.743">  2  9  1 -1</clus>
<clus scale="   86.689">  7  8 -1 -1</clus>
<clus scale="   91.349">  2  7  1 -1</clus>
<clus scale="   91.365">  5  6 -1 -1</clus>
<clus scale="   26.743">  2  5  1 -1</clus>
</clustering>
</event>
<event>
 9    1  0.1464797E-005  0.1402523E+03  0.7546771E-02  0.1213543E+00
          1   -1    0    0  502    0 -0.00000000000E+00  0.00000000000E+00  0.17700171991E+03  0.17700171991E+03  0.00000000000E+00 0. -1.
         21   -1    0    0  501  502  0.00000000000E+00 -0.00000000000E+00 -0.13847808834E+03  0.13847808834E+03  0.00000000000E+00 0.  1.
         23    2    1    2    0    0 -0.10011431714E+03 -0.49020654980E+02  0.46847820726E+02  0.15398146857E+03  0.95339777879E+02 0.  0.
         23    2    1    2    0    0  0.87534517828E+02  0.32780114330E+02  0.12326222518E+02  0.13237024304E+03  0.92914572454E+02 0.  0.
        -11    1    4    4    0    0  0.10704104111E+02 -0.23764747246E+02 -0.18675242860E+02  0.32064088204E+02  0.00000000000E+00 0. -1.
         11    1    4    4    0    0  0.76830413716E+02  0.56544861576E+02  0.31001465378E+02  0.10030615484E+03  0.00000000000E+00 0.  1.
        -13    1    3    3    0    0 -0.80086312279E+02 -0.57361077685E+02 -0.41124558870E+01  0.98595248066E+02  0.00000000000E+00 0.  1.
         13    1    3    3    0    0 -0.20028004861E+02  0.83404227049E+01  0.50960276613E+02  0.55386220507E+02  0.00000000000E+00 0. -1.
          1    1    1    2  501    0  0.12579799313E+02  0.16240540650E+02 -0.20650411677E+02  0.29128096638E+02  0.00000000000E+00 0. -1.
<scales pt_clust_5="13000.00000" pt_clust_6="13000.00000" pt_clust_7="13000.00000" pt_clust_8="13000.00000" pt_clust_9="20.54280"></scales>
<clustering>
<clus scale="   20.543">  2  9  1 -1</clus>
<clus scale="   92.915">  5  6 -1 -1</clus>
<clus scale="   95.340">  7  8 -1 -1</clus>
<clus scale="  138.615">  2  5  1 -1</clus>
<clus scale="   20.543">  2  5  1 -1</clus>
</clustering>
</event>
<event>
 9    1  0.1464797E-005  0.1006311E+03  0.7546771E-02  0.1286578E+00
          1   -1    0    0  502    0 -0.00000000000E+00  0.00000000000E+00  0.71188491410E+02  0.71188491410E+02  0.00000000000E+00 0. -1.
         21   -1    0    0  501  502  0.00000000000E+00 -0.00000000000E+00 -0.26042695518E+03  0.26042695518E+03  0.00000000000E+00 0. -1.
         23    2    1    2    0    0  0.52312690434E+02 -0.26314804071E+02 -0.84552057488E+01  0.10800782171E+03  0.90361012345E+02 0.  0.
         23    2    1    2    0    0 -0.22748772503E+02 -0.15764880286E+02 -0.10403140514E+03  0.13121946547E+03  0.75033171077E+02 0.  0.
        -11    1    3    3    0    0 -0.12398131329E+02 -0.37041055248E+02 -0.15527271295E+02  0.42033909980E+02  0.00000000000E+00 0.  1.
         11    1    3    3    0    0  0.64710821763E+02  0.10726251177E+02  0.70720655459E+01  0.65973911728E+02  0.00000000000E+00 0. -1.
        -13    1    4    4    0    0 -0.42100787324E+02  0.14060960397E+02 -0.59669973867E+02  0.74368627000E+02  0.00000000000E+00 0.  1.
         13    1    4    4    0    0  0.19352014821E+02 -0.29825840683E+02 -0.44361431273E+02  0.56850838469E+02  0.00000000000E+00 0. -1.
          1    1    1    2  501    0 -0.29563917931E+02  0.42079684357E+02 -0.76751852884E+02  0.92388159416E+02  0.00000000000E+00 0. -1.
<scales pt_clust_5="13000.00000" pt_clust_6="13000.00000" pt_clust_7="13000.00000" pt_clust_8="13000.00000" pt_clust_9="51.42689"></scales>
<clustering>
<clus scale="   51.427">  2  9  1 -1</clus>
<clus scale="   75.033">  7  8 -1 -1</clus>
<clus scale="   87.129">  2  7  1 -1</clus>
<clus scale="   90.361">  5  6 -1 -1</clus>
<clus scale="   51.427">  2  5  1 -1</clus>
</clustering>
</event>
<event>
 9    1  0.1464797E-005  0.1252344E+03  0.7546771E-02  0.1235247E+00
         -3   -1    0    0    0  501 -0.00000000000E+00  0.00000000000E+00  0.10335827939E+03  0.10335827939E+03  0.00000000000E+00 0.  1.
         21   -1    0    0  501  502  0.00000000000E+00 -0.00000000000E+00 -0.26294938356E+03  0.26294938356E+03  0.00000000000E+00 0.  1.
         23    2    1    2    0    0 -0.11954277935E+02  0.64759688151E+02 -0.30179482588E+02  0.11689581404E+03  0.91744799304E+02 0.  0.
         23    2    1    2    0    0  0.27011556847E+02 -0.10017251368E+03 -0.30150283364E+02  0.14295245231E+03  0.93606662876E+02 0.  0.
        -11    1    3    3    0    0  0.23246530182E+02  0.44777555685E+02  0.18364446204E+02  0.53690628074E+02  0.00000000000E+00 0.  1.
         11    1    3    3    0    0 -0.35200808116E+02  0.19982132466E+02 -0.48543928791E+02  0.63205185961E+02  0.00000000000E+00 0. -1.
        -11    1    4    4    0    0  0.50038337419E+02 -0.16431498712E+02 -0.15284029004E+02  0.54840048361E+02  0.00000000000E+00 0. -1.
         11    1    4    4    0    0 -0.23026780572E+02 -0.83741014967E+02 -0.14866254359E+02  0.88112403950E+02  0.00000000000E+00 0.  1.
         -3    1    1    2    0  502 -0.15057278912E+02  0.35412825528E+02 -0.99261338224E+02  0.10645939661E+03  0.00000000000E+00 0.  1.
<scales pt_clust_5="13000.00000" pt_clust_6="13000.00000" pt_clust_7="13000.00000" pt_clust_8="13000.00000" pt_clust_9="38.48103"></scales>
<clustering>
<clus scale="   38.481">  2  9  1 -1</clus>
<clus scale="   91.745">  5  6 -1 -1</clus>
<clus scale="   93.607">  7  8 -1 -1</clus>
<clus scale="  123.849">  1  5  2 -1</clus>
<clus scale="   38.481">  2  5  1 -1</clus>
</clustering>
</event>
<event>
 9    1  0.1464797E-005  0.9513263E+02  0.7546771E-02  0.1293615E+00
         -3   -1    0    0    0  501 -0.00000000000E+00  0.00000000000E+00  0.40878484394E+03  0.40878484394E+03  0.00000000000E+00 0.  1.
         21   -1    0    0  501  502  0.00000000000E+00 -0.00000000000E+00 -0.57483234560E+02  0.57483234560E+02  0.00000000000E+00 0. -1.
         23    2    1    2    0    0  0.67563878437E+01 -0.84422924968E+01  0.30499534574E+03  0.31961572557E+03  0.94948038570E+02 0.  0.
         23    2    1    2    0    0 -0.19291892288E+01 -0.19992530561E+02  0.64372377401E+02  0.11261964110E+03  0.90199542897E+02 0.  0.
        -11    1    3    3    0    0 -0.40856641591E+02 -0.93592311780E+01  0.19971123982E+03  0.20406234264E+03  0.00000000000E+00 0.  1.
         11    1    3    3    0    0  0.47613029434E+02  0.91693868120E+00  0.10528410592E+03  0.11555338293E+03  0.00000000000E+00 0. -1.
        -13    1    4    4    0    0 -0.33008772197E+02  0.83791360251E+01  0.61673190314E+02  0.70451198471E+02  0.00000000000E+00 0.  1.
         13    1    4    4    0    0  0.31079582969E+02 -0.28371666586E+02  0.26991870868E+01  0.42168442624E+02  0.00000000000E+00 0. -1.
         -3    1    1    2    0  502 -0.48271986149E+01  0.28434823058E+02 -0.18066113759E+02  0.34032711840E+02  0.00000000000E+00 0.  1.
<scales pt_clust_5="13000.00000" pt_clust_6="13000.00000" pt_clust_7="13000.00000" pt_clust_8="13000.00000" pt_clust_9="28.84165"></scales>
<clustering>
<clus scale="   28.842">  2  9  1 -1</clus>
<clus scale="   90.200">  7  8 -1 -1</clus>
<clus scale="   90.394">  2  7  1 -1</clus>
<clus scale="   94.948">  5  6 -1 -1</clus>
<clus scale="   28.842">  2  5  1 -1</clus>
</clustering>
</event>
<event>
 9    1  0.1464797E-005  0.9361365E+02  0.7546771E-02  0.1295255E+00
          2   -1    0    0  502    0 -0.00000000000E+00  0.00000000000E+00  0.83570223317E+03  0.83570223317E+03  0.00000000000E+00 0. -1.
         21   -1    0    0  501  502  0.00000000000E+00 -0.00000000000E+00 -0.44269985688E+02  0.44269985688E+02  0.00000000000E+00 0. -1.
         23    2    1    2    0    0 -0.49917388398E+01  0.91885126877E+01  0.37654779277E+03  0.38720179474E+03  0.89597117037E+02 0.  0.
         23    2    1    2    0    0 -0.27804949501E+02 -0.26710333050E+02  0.43795184169E+03  0.44901266712E+03  0.91235971480E+02 0.  0.
        -11    1    3    3    0    0 -0.17999037703E+02  0.46606084361E+02  0.18702114525E+03  0.19357944423E+03  0.00000000000E+00 0. -1.
         11    1    3    3    0    0  0.13007298863E+02 -0.37417571674E+02  0.18952664752E+03  0.19362235050E+03  0.00000000000E+00 0.  1.
        -11    1    4    4    0    0  0.26400412225E+02  0.13208672766E+02  0.93688085406E+02  0.98228855989E+02  0.00000000000E+00 0.  1.
         11    1    4    4    0    0 -0.54205361726E+02 -0.39919005816E+02  0.34426375628E+03  0.35078381114E+03  0.00000000000E+00 0. -1.
          2    1    1    2  501    0  0.32796688341E+02  0.17521820362E+02 -0.23067386984E+02  0.43757756994E+02  0.00000000000E+00 0. -1.
<scales pt_clust_5="13000.00000" pt_clust_6="13000.00000" pt_clust_7="13000.00000" pt_clust_8="13000.00000" pt_clust_9="37.18383"></scales>
<clustering>
<clus scale="   37.184">  2  9  1 -1</clus>
<clus scale="   89.597">  5  6 -1 -1</clus>
<clus scale="   91.236">  7  8 -1 -1</clus>
<clus scale="   92.017">  1  5  2 -1</clus>
<clus scale="   37.184">  2  5  1 -1</clus>
</clustering>
</event>
<event>
 9    1  0.1464797E-005  0.9477576E+02  0.7546771E-02  0.1292679E+00
         21   -1    0    0  501  502  0.00000000000E+00  0.00000000000E+00  0.77703626567E+02  0.77703626567E+02  0.00000000000E+00 0.  1.
         -4   -1    0    0    0  501 -0.00000000000E+00 -0.00000000000E+00 -0.45053312849E+03  0.45053312849E+03  0.00000000000E+00 0.  1.
         23    2    1    2    0    0  0.15451814444E+02  0.60668142050E+01 -0.24880774078E+03  0.26563185911E+03  0.91539215081E+02 0.  0.
         23    2    1    2    0    0 -0.36209926475E+02 -0.50310559610E+01 -0.17915923267E+03  0.20368025954E+03  0.89728184960E+02 0.  0.
        -11    1    4    4    0    0 -0.59779251825E+02 -0.84468996969E+01 -0.72266598795E+02  0.94166715801E+02  0.00000000000E+00 0.  1.
         11    1    4    4    0    0  0.23569325350E+02  0.34158437359E+01 -0.10689263387E+03  0.10951354374E+03  0.00000000000E+00 0. -1.
        -13    1    3    3    0    0 -0.95239501942E+01 -0.36415217854E+02 -0.15683672542E+03  0.16129021099E+03  0.00000000000E+00 0. -1.
         13    1    3    3    0    0  0.24975764638E+02  0.42482032059E+02 -0.91971015353E+02  0.10434164812E+03  0.00000000000E+00 0.  1.
         -4    1    1    2    0  502  0.20758112031E+02 -0.10357582440E+01  0.55137471523E+02  0.58924636411E+02  0.00000000000E+00 0.  1.
<scales pt_clust_5="13000.00000" pt_clust_6="13000.00000" pt_clust_7="13000.00000" pt_clust_8="13000.00000" pt_clust_9="20.78394"></scales>
<clustering>
<clus scale="   20.784">  1  9  2 -1</clus>
<clus scale="   89.728">  5  6 -1 -1</clus>
<clus scale="   91.539">  7  8 -1 -1</clus>
<clus scale="   93.028">  1  5  2 -1</clus>
<clus scale="   20.784">  1  5  2 -1</clus>
</clustering>
</event>
<event>
 9    1  0.1464797E-005  0.9735851E+02  0.7546771E-02  0.1287171E+00
         -1   -1    0    0    0  501 -0.00000000000E+00  0.00000000000E+00  0.31595211253E+03  0.31595211253E+03  0.00000000000E+00 0.  1.
         21   -1    0    0  501  502  0.00000000000E+00 -0.00000000000E+00 -0.55046499917E+02  0.55046499917E+02  0.00000000000E+00 0.  1.
         23    2    1    2    0    0  0.37751329308E+02  0.67339593032E+01  0.10803001031E+03  0.14501128315E+03  0.88810359986E+02 0.  0.
         23    2    1    2    0    0  0.10544091085E+01 -0.51829291324E+02  0.11405819596E+03  0.15495025912E+03  0.91175235219E+02 0.  0.
        -11    1    3    3    0    0  0.39824173705E+02 -0.26364608062E+02  0.21562649025E+02  0.52402339667E+02  0.00000000000E+00 0.  1.
         11    1    3    3    0    0 -0.20728443966E+01  0.33098567365E+02  0.86467361284E+02  0.92608943483E+02  0.00000000000E+00 0. -1.
        -11    1    4    4    0    0  0.29166257581E+02  0.13987503938E+02  0.26166868264E+02  0.41605598691E+02  0.00000000000E+00 0. -1.
         11    1    4    4    0    0 -0.28111848472E+02 -0.65816795262E+02  0.87891327700E+02  0.11334466043E+03  0.00000000000E+00 0.  1.
         -1    1    1    2    0  502 -0.38805738417E+02  0.45095332021E+02  0.38817406337E+02  0.71037070174E+02  0.00000000000E+00 0.  1.
<scales pt_clust_5="13000.00000" pt_clust_6="13000.00000" pt_clust_7="13000.00000" pt_clust_8="13000.00000" pt_clust_9="59.49348"></scales>
<clustering>
<clus scale="   59.493">  2  9  1 -1</clus>
<clus scale="   88.810">  5  6 -1 -1</clus>
<clus scale="   91.175">  7  8 -1 -1</clus>
<clus scale="   95.147">  1  5  2 -1</clus>
<clus scale="   59.493">  2  5  1 -1</clus>
</clustering>
</event>
<event>
 9    1  0.1464797E-005  0.1040677E+03  0.7546771E-02  0.1272104E+00
         21   -1    0    0  501  502  0.00000000000E+00  0.00000000000E+00  0.59893647421E+03  0.59893647421E+03  0.00000000000E+00 0. -1.
         -1   -1    0    0    0  501 -0.00000000000E+00 -0.00000000000E+00 -0.31209295147E+02  0.31209295147E+02  0.00000000000E+00 0.  1.
         23    2    1    2    0    0  0.42321603614E+02  0.17711868375E+02  0.11528996228E+03  0.15465812465E+03  0.92317559016E+02 0.  0.
         23    2    1    2    0    0 -0.37403253674E+02 -0.41116729866E+02  0.25675242498E+03  0.27834679291E+03  0.92008372053E+02 0.  0.
        -11    1    3    3    0    0 -0.10593106614E+02  0.43109805874E+02  0.50187428141E+02  0.67003337332E+02  0.00000000000E+00 0. -1.
         11    1    3    3    0    0  0.52914710228E+02 -0.25397937499E+02  0.65102534140E+02  0.87654787314E+02  0.00000000000E+00 0.  1.
        -13    1    4    4    0    0 -0.49854740170E+02  0.13349387477E+02  0.12540738222E+03  0.13561236219E+03  0.00000000000E+00 0. -1.
         13    1    4    4    0    0  0.12451486495E+02 -0.54466117344E+02  0.13134504276E+03  0.14273443072E+03  0.00000000000E+00 0.  1.
         -1    1    1    2    0  502 -0.49183499396E+01  0.23404861491E+02  0.19568479180E+03  0.19714085180E+03  0.00000000000E+00 0.  1.
<scales pt_clust_5="13000.00000" pt_clust_6="13000.00000" pt_clust_7="13000.00000" pt_clust_8="13000.00000" pt_clust_9="23.91606"></scales>
<clustering>
<clus scale="   23.916">  1  9  2 -1</clus>
<clus scale="   92.008">  7  8 -1 -1</clus>
<clus scale="   92.318">  5  6 -1 -1</clus>
<clus scale="  103.794">  1  7  2 -1</clus>
<clus scale="   23.916">  1  5  2 -1</clus>
</clustering>
</event>
<event>
 9    1  0.1464797E-005  0.9568788E+02  0.7546771E-02  0.1290182E+00
          3   -1    0    0  502    0 -0.00000000000E+00  0.00000000000E+00  0.14598630952E+03  0.14598630952E+03  0.00000000000E+00 0. -1.
         21   -1    0    0  501  502  0.00000000000E+00 -0.00000000000E+00 -0.12901604877E+03  0.12901604877E+03  0.00000000000E+00 0.  1.
         23    2    1    2    0    0 -0.64245781424E+00  0.18225304453E+01  0.59196858890E+02  0.11200057432E+03  0.95058540786E+02 0.  0.
         23    2    1    2    0    0  0.11826765059E+02  0.29375054459E+02  0.11447787085E+02  0.99919950923E+02  0.94075387679E+02 0.  0.
        -11    1    3    3    0    0 -0.43991134932E+02  0.19569086112E+02  0.32442608988E+02  0.58057660664E+02  0.00000000000E+00 0.  1.
         11    1    3    3    0    0  0.43348677117E+02 -0.17746555667E+02  0.26754249902E+02  0.53942913656E+02  0.00000000000E+00 0. -1.
        -13    1    4    4    0    0 -0.72085507361E+01 -0.28368214802E+02  0.23983952399E+02  0.37841099184E+02  0.00000000000E+00 0. -1.
         13    1    4    4    0    0  0.19035315795E+02  0.57743269261E+02 -0.12536165314E+02  0.62078851739E+02  0.00000000000E+00 0.  1.
          3    1    1    2  501    0 -0.11184307245E+02 -0.31197584905E+02 -0.53674385223E+02  0.63081833054E+02  0.00000000000E+00 0. -1.
<scales pt_clust_5="13000.00000" pt_clust_6="13000.00000" pt_clust_7="13000.00000" pt_clust_8="13000.00000" pt_clust_9="33.14179"></scales>
<clustering>
<clus scale="   33.142">  2  9  1 -1</clus>
<clus scale="   94.075">  7  8 -1 -1</clus>
<clus scale="   94.711">  2  7  1 -1</clus>
<clus scale="   95.059">  5  6 -1 -1</clus>
<clus scale="   33.142">  2  5  1 -1</clus>
</clustering>
</event>
<event>
 9    1  0.1464797E-005  0.1117747E+03  0.7546771E-02  0.1259418E+00
         21   -1    0    0  501  502  0.00000000000E+00  0.00000000000E+00  0.35142148494E+03  0.35142148494E+03  0.00000000000E+00 0. -1.
          1   -1    0    0  502    0 -0.00000000000E+00 -0.00000000000E+00 -0.40913403145E+03  0.40913403145E+03  0.00000000000E+00 0. -1.
         23    2    1    2    0    0  0.28520349975E+02  0.58728296407E+02 -0.28933963818E+03  0.30975834103E+03  0.89276987256E+02 0.  0.
         23    2    1    2    0    0 -0.67409462374E+02 -0.50988640441E+01 -0.74133001211E+02  0.13794303447E+03  0.94670718056E+02 0.  0.
        -11    1    4    4    0    0 -0.83066881217E+02 -0.18614342427E+02 -0.31883040037E+02  0.90901753234E+02  0.00000000000E+00 0.  1.
         11    1    4    4    0    0  0.15657418843E+02  0.13515478383E+02 -0.42249961174E+02  0.47041281232E+02  0.00000000000E+00 0. -1.
        -13    1    3    3    0    0  0.58495380069E+02  0.37723725804E+02 -0.22738247302E+03  0.23779734653E+03  0.00000000000E+00 0. -1.
         13    1    3    3    0    0 -0.29975030094E+02  0.21004570603E+02 -0.61957165163E+02  0.71960994506E+02  0.00000000000E+00 0.  1.
          1    1    1    2  501    0  0.38889112399E+02 -0.53629432363E+02  0.30576009288E+03  0.31285414090E+03  0.00000000000E+00 0. -1.
<scales pt_clust_5="13000.00000" pt_clust_6="13000.00000" pt_clust_7="13000.00000" pt_clust_8="13000.00000" pt_clust_9="66.24560"></scales>
<clustering>
<clus scale="   66.246">  1  9  2 -1</clus>
<clus scale="   89.277">  7  8 -1 -1</clus>
<clus scale="   94.671">  5  6 -1 -1</clus>
<clus scale="  107.245">  2  7  1 -1</clus>
<clus scale="   66.246">  1  5  2 -1</clus>
</clustering>
</event>
<event>
 9    1  0.1464797E-005  0.9187165E+02  0.7546771E-02  0.1299217E+00
         -1   -1    0    0    0  501 -0.00000000000E+00  0.00000000000E+00  0.38309616450E+03  0.38309616450E+03  0.00000000000E+00 0.  1.
         21   -1    0    0  501  502  0.00000000000E+00 -0.00000000000E+00 -0.11789906239E+03  0.11789906239E+03  0.00000000000E+00 0. -1.
         23    2    1    2    0    0 -0.12287280892E+02  0.17157030817E+02  0.22017701073E+03  0.23924590698E+03  0.91188524376E+02 0.  0.
         23    2    1    2    0    0 -0.33696974857E+02  0.18992114073E+01  0.13102764143E+03  0.16237633157E+03  0.89770469070E+02 0.  0.
        -11    1    3    3    0    0 -0.47717816274E+02  0.25678059272E+02  0.10094919714E+03  0.11457352714E+03  0.00000000000E+00 0.  1.
         11    1    3    3    0    0  0.35430535382E+02 -0.85210284552E+01  0.11922781359E+03  0.12467237985E+03  0.00000000000E+00 0. -1.
        -11    1    4    4    0    0 -0.22432420403E+02  0.34775519599E+02  0.11836171598E+03  0.12538758335E+03  0.00000000000E+00 0.  1.
         11    1    4    4    0    0 -0.11264554454E+02 -0.32876308192E+02  0.12665925449E+02  0.36988748220E+02  0.00000000000E+00 0. -1.
         -1    1    1    2    0  502  0.45984255749E+02 -0.19056242224E+02 -0.86007550049E+02  0.99372988332E+02  0.00000000000E+00 0.  1.
<scales pt_clust_5="13000.00000" pt_clust_6="13000.00000" pt_clust_7="13000.00000" pt_clust_8="13000.00000" pt_clust_9="49.77642"></scales>
<clustering>
<clus scale="   49.776">  2  9  1 -1</clus>
<clus scale="   89.770">  7  8 -1 -1</clus>
<clus scale="   90.464">  2  7  1 -1</clus>
<clus scale="   91.189">  5  6 -1 -1</clus>
<clus scale="   49.776">  2  5  1 -1</clus>
</clustering>
</event>
<event>
 9    1  0.1464797E-005  0.1021890E+03  0.7546771E-02  0.1276624E+00
          1   -1    0    0  502    0 -0.00000000000E+00  0.00000000000E+00  0.29085779141E+03  0.29085779141E+03  0.00000000000E+00 0. -1.
         21   -1    0    0  501  502  0.00000000000E+00 -0.00000000000E+00 -0.74376021966E+02  0.74376021966E+02  0.00000000000E+00 0.  1.
         23    2    1    2    0    0 -0.26545929617E+01 -0.34133287740E+02  0.12482439152E+03  0.15944775052E+03  0.93114597319E+02 0.  0.
         23    2    1    2    0    0 -0.32655244408E+02  0.46896366676E+02  0.11813059043E+03  0.15984575615E+03  0.91269902870E+02 0.  0.
        -11    1    4    4    0    0  0.17528327001E+02  0.24741748914E+02  0.80833529640E+00  0.30332322574E+02  0.00000000000E+00 0.  1.
         11    1    4    4    0    0 -0.50183571410E+02  0.22154617762E+02  0.11732225514E+03  0.12951343358E+03  0.00000000000E+00 0. -1.
        -13    1    3    3    0    0  0.25918464058E+02 -0.56616902898E+02  0.86948397251E+02  0.10694514602E+03  0.00000000000E+00 0.  1.
         13    1    3    3    0    0 -0.28573057020E+02  0.22483615158E+02  0.37875994267E+02  0.52502604504E+02  0.00000000000E+00 0. -1.
          1    1    1    2  501    0  0.35309837370E+02 -0.12763078936E+02 -0.26473212506E+02  0.45940306697E+02  0.00000000000E+00 0. -1.
<scales pt_clust_5="13000.00000" pt_clust_6="13000.00000" pt_clust_7="13000.00000" pt_clust_8="13000.00000" pt_clust_9="37.54572"></scales>
<clustering>
<clus scale="   37.546">  2  9  1 -1</clus>
<clus scale="   91.270">  5  6 -1 -1</clus>
<clus scale="   93.115">  7  8 -1 -1</clus>
<clus scale="  100.511">  2  5  1 -1</clus>
<clus scale="   37.546">  2  5  1 -1</clus>
</clustering>
</event>
<event>
 9    1  0.1464797E-005  0.9333179E+02  0.7546771E-02  0.1296338E+00
         21   -1    0    0  501  502  0.00000000000E+00  0.00000000000E+00  0.12071852115E+03  0.12071852115E+03  0.00000000000E+00 0.  1.
          2   -1    0    0  502    0 -0.00000000000E+00 -0.00000000000E+00 -0.14625726716E+03  0.14625726716E+03  0.00000000000E+00 0. -1.
         23    2    1    2    0    0  0.65734186872E+01 -0.21289203219E+02 -0.25781491702E+02  0.98614333502E+02  0.92540053224E+02 0.  0.
         23    2    1    2    0    0 -0.11279018498E+02 -0.39993027001E+02 -0.24210085918E+02  0.10221317151E+03  0.90192825114E+02 0.  0.
        -11    1    3    3    0    0  0.84579108142E+01  0.33193441735E+02  0.70557503256E+01  0.34973196054E+02  0.00000000000E+00 0. -1.
         11    1    3    3    0    0 -0.18844921270E+01 -0.54482644954E+02 -0.32837242028E+02  0.63641137449E+02  0.00000000000E+00 0.  1.
        -13    1    4    4    0    0 -0.29653235778E+02  0.20308621794E+02 -0.12785610641E+02  0.38147429150E+02  0.00000000000E+00 0. -1.
         13    1    4    4    0    0  0.18374217280E+02 -0.60301648796E+02 -0.11424475276E+02  0.64065742355E+02  0.00000000000E+00 0.  1.
          2    1    1    2  501    0  0.47055998108E+01  0.61282230221E+02  0.24452831615E+02  0.66148283306E+02  0.00000000000E+00 0. -1.
<scales pt_clust_5="13000.00000" pt_clust_6="13000.00000" pt_clust_7="13000.00000" pt_clust_8="13000.00000" pt_clust_9="61.46263"></scales>
<clustering>
<clus scale="   61.463">  1  9  2 -1</clus>
<clus scale="   90.193">  7  8 -1 -1</clus>
<clus scale="   91.005">  1  7  2 -1</clus>
<clus scale="   92.540">  5  6 -1 -1</clus>
<clus scale="   61.463">  1  5  2 -1</clus>
</clustering>
</event>
<event>
 9    1  0.1464799E-005  0.9288771E+02  0.7546771E-02  0.1297282E+00
         -3   -1    0    0    0  501 -0.00000000000E+00  0.00000000000E+00  0.32516736299E+03  0.32516736299E+03  0.00000000000E+00 0.  1.
         21   -1    0    0  501  502  0.00000000000E+00 -0.00000000000E+00 -0.10635054485E+03  0.10635054485E+03  0.00000000000E+00 0.  1.
         23    2    1    2    0    0 -0.97669468405E+01 -0.20905041721E+02  0.24323313558E+03  0.26004180880E+03  0.89033533325E+02 0.  0.
         23    2    1    2    0    0  0.34377588859E+01 -0.45562493896E+01  0.41595639804E+02  0.10044149856E+03  0.91245382286E+02 0.  0.
        -13    1    3    3    0    0 -0.75652296841E+01 -0.49340878077E+02  0.21177872638E+03  0.21758213138E+03  0.00000000000E+00 0.  1.
         13    1    3    3    0    0 -0.22017171564E+01  0.28435836357E+02  0.31454409202E+02  0.42459677412E+02  0.00000000000E+00 0. -1.
        -13    1    4    4    0    0  0.45224289388E+02 -0.12822635609E+01  0.36672522694E+02  0.58238771203E+02  0.00000000000E+00 0. -1.
         13    1    4    4    0    0 -0.41786530502E+02 -0.32739858287E+01  0.49231171100E+01  0.42202727361E+02  0.00000000000E+00 0.  1.
         -3    1    1    2    0  502  0.63291879546E+01  0.25461291110E+02 -0.66011957251E+02  0.71034600479E+02  0.00000000000E+00 0.  1.
<scales pt_clust_5="13000.00000" pt_clust_6="13000.00000" pt_clust_7="13000.00000" pt_clust_8="13000.00000" pt_clust_9="26.23616"></scales>
<clustering>
<clus scale="   26.236">  2  9  1 -1</clus>
<clus scale="   89.034">  5  6 -1 -1</clus>
<clus scale="   90.716">  1  5  2 -1</clus>
<clus scale="   91.245">  7  8 -1 -1</clus>
<clus scale="   26.236">  2  5  1 -1</clus>
</clustering>
</event>
<event>
 9    1  0.1464797E-005  0.1051601E+03  0.7546771E-02  0.1275840E+00
         21   -1    0    0  501  502  0.00000000000E+00  0.00000000000E+00  0.13576756823E+03  0.13576756823E+03  0.00000000000E+00 0.  1.
         -3   -1    0    0    0  501 -0.00000000000E+00 -0.00000000000E+00 -0.16879386812E+03  0.16879386812E+03  0.00000000000E+00 0.  1.
         23    2    1    2    0    0 -0.17807376105E+02 -0.68088130514E+00 -0.97966589856E+02  0.14374980291E+03  0.10367732089E+03 0.  0.
         23    2    1    2    0    0  0.49248695164E+01 -0.42402689359E+02  0.37287369614E+02  0.10802113201E+03  0.91956373474E+02 0.  0.
        -11    1    3    3    0    0 -0.51011228884E+02 -0.26178417255E+02 -0.79437669992E+02  0.97968354156E+02  0.00000000000E+00 0.  1.
         11    1    3    3    0    0  0.33203852780E+02  0.25497535950E+02 -0.18528919864E+02  0.45781448756E+02  0.00000000000E+00 0. -1.
        -11    1    4    4    0    0 -0.41891580599E+02 -0.16764568471E+02  0.44223051959E+01  0.45337755396E+02  0.00000000000E+00 0.  1.
         11    1    4    4    0    0  0.46816450115E+02 -0.25638120888E+02  0.32865064418E+02  0.62683376610E+02  0.00000000000E+00 0. -1.
         -3    1    1    2    0  502  0.12882506588E+02  0.43083570664E+02  0.27652920354E+02  0.52790501430E+02  0.00000000000E+00 0.  1.
<scales pt_clust_5="13000.00000" pt_clust_6="13000.00000" pt_clust_7="13000.00000" pt_clust_8="13000.00000" pt_clust_9="44.96836"></scales>
<clustering>
<clus scale="   44.968">  1  9  2 -1</clus>
<clus scale="   91.956">  7  8 -1 -1</clus>
<clus scale="   93.625">  1  7  2 -1</clus>
<clus scale="  103.677">  5  6 -1 -1</clus>
<clus scale="   44.968">  1  5  2 -1</clus>
</clustering>
</event>
<event>
 9    1  0.1464797E-005  0.1167938E+03  0.7546771E-02  0.1249798E+00
          3   -1    0    0  502    0 -0.00000000000E+00  0.00000000000E+00  0.29169459849E+03  0.29169459849E+03  0.00000000000E+00 0. -1.
         21   -1    0    0  501  502  0.00000000000E+00 -0.00000000000E+00 -0.90032545879E+02  0.90032545879E+02  0.00000000000E+00 0.  1.
         23    2    1    2    0    0  0.19781081488E+02  0.65759827813E+02  0.20635610845E+03  0.23662363824E+03  0.93232272010E+02 0.  0.
         23    2    1    2    0    0  0.10772710414E+02 -0.55551358971E+02 -0.90870789722E+01  0.11259126708E+03  0.96913433767E+02 0.  0.
        -11    1    3    3    0    0  0.27121080374E+02 -0.11522361236E+02  0.10439079058E+03  0.10847006484E+03  0.00000000000E+00 0.  1.
         11    1    3    3    0    0 -0.73399988864E+01  0.77282189049E+02  0.10196531787E+03  0.12815357340E+03  0.00000000000E+00 0. -1.
        -13    1    4    4    0    0  0.14387414615E+02  0.23470371656E+02 -0.18143262794E+02  0.32970199116E+02  0.00000000000E+00 0.  1.
         13    1    4    4    0    0 -0.36147042010E+01 -0.79021730627E+02  0.90561838220E+01  0.79621067960E+02  0.00000000000E+00 0. -1.
          3    1    1    2  501    0 -0.30553791901E+02 -0.10208468842E+02  0.43930231380E+01  0.32512239048E+02  0.00000000000E+00 0. -1.
<scales pt_clust_5="13000.00000" pt_clust_6="13000.00000" pt_clust_7="13000.00000" pt_clust_8="13000.00000" pt_clust_9="32.21408"></scales>
<clustering>
<clus scale="   32.214">  2  9  1 -1</clus>
<clus scale="   93.232">  5  6 -1 -1</clus>
<clus scale="   96.913">  7  8 -1 -1</clus>
<clus scale="  113.758">  1  5  2 -1</clus>
<clus scale="   32.214">  2  5  1 -1</clus>
</clustering>
</event>
<event>
 9    1  0.1464797E-005  0.1174961E+03  0.7546771E-02  0.1247576E+00
         21   -1    0    0  501  502  0.00000000000E+00  0.00000000000E+00  0.35299082464E+03  0.35299082464E+03  0.00000000000E+00 0.  1.
          3   -1    0    0  502    0 -0.00000000000E+00 -0.00000000000E+00 -0.66615845961E+02  0.66615845961E+02  0.00000000000E+00 0. -1.
         23    2    1    2    0    0 -0.78485917837E+02  0.96903165871E+01  0.20663861728E+02  0.12231860131E+03  0.90999469840E+02 0.  0.
         23    2    1    2    0    0  0.57477705430E+02 -0.20483124620E+02  0.20406102594E+03  0.23126865233E+03  0.90116825443E+02 0.  0.
        -11    1    4    4    0    0  0.62303686036E+02 -0.45326456318E+02  0.18222077658E+03  0.19783995642E+03  0.00000000000E+00 0.  1.
         11    1    4    4    0    0 -0.48259806065E+01  0.24843331698E+02  0.21840249359E+02  0.33428695917E+02  0.00000000000E+00 0. -1.
        -13    1    3    3    0    0 -0.77573700071E+02  0.39939416048E+02  0.30538482659E+01  0.87304993478E+02  0.00000000000E+00 0. -1.
         13    1    3    3    0    0 -0.91221776578E+00 -0.30249099461E+02  0.17610013462E+02  0.35013607834E+02  0.00000000000E+00 0.  1.
          3    1    1    2  501    0  0.21008212407E+02  0.10792808033E+02  0.61650091003E+02  0.66019416951E+02  0.00000000000E+00 0. -1.
<scales pt_clust_5="13000.00000" pt_clust_6="13000.00000" pt_clust_7="13000.00000" pt_clust_8="13000.00000" pt_clust_9="23.61842"></scales>
<clustering>
<clus scale="   23.618">  1  9  2 -1</clus>
<clus scale="   90.117">  5  6 -1 -1</clus>
<clus scale="   90.999">  7  8 -1 -1</clus>
<clus scale="  116.814">  1  5  2 -1</clus>
<clus scale="   23.618">  1  5  2 -1</clus>
</clustering>
</event>
<event>
 9    1  0.1464797E-005  0.1249599E+03  0.7546771E-02  0.1240083E+00
         21   -1    0    0  501  502  0.00000000000E+00  0.00000000000E+00  0.85628555926E+02  0.85628555926E+02  0.00000000000E+00 0. -1.
          2   -1    0    0  502    0 -0.00000000000E+00 -0.00000000000E+00 -0.46461883847E+03  0.46461883847E+03  0.00000000000E+00 0. -1.
         23    2    1    2    0    0  0.58856899345E+02  0.12968374344E+02 -0.31804420061E+03  0.33869715349E+03  0.99656083151E+02 0.  0.
         23    2    1    2    0    0 -0.33624127253E+02 -0.10413041354E+02 -0.10659105621E+03  0.15933256009E+03  0.11307607207E+03 0.  0.
        -11    1    3    3    0    0 -0.17979860064E+02  0.20112343945E+02 -0.29339117178E+02  0.39856813014E+02  0.00000000000E+00 0.  1.
         11    1    3    3    0    0  0.76836759409E+02 -0.71439696005E+01 -0.28870508343E+03  0.29884034048E+03  0.00000000000E+00 0. -1.
        -13    1    4    4    0    0 -0.67220736024E+02 -0.54138274451E+01 -0.26719732338E+02  0.72538823918E+02  0.00000000000E+00 0.  1.
         13    1    4    4    0    0  0.33596608771E+02 -0.49992139087E+01 -0.79871323874E+02  0.86793736168E+02  0.00000000000E+00 0. -1.
          2    1    1    2  501    0 -0.25232772092E+02 -0.25553329903E+01  0.45644974273E+02  0.52217680822E+02  0.00000000000E+00 0. -1.
<scales pt_clust_5="13000.00000" pt_clust_6="13000.00000" pt_clust_7="13000.00000" pt_clust_8="13000.00000" pt_clust_9="25.36183"></scales>
<clustering>
<clus scale="   25.362">  1  9  2 -1</clus>
<clus scale="   99.656">  5  6 -1 -1</clus>
<clus scale="  112.961">  2  5  1 -1</clus>
<clus scale="  113.076">  7  8 -1 -1</clus>
<clus scale="   25.362">  1  5  2 -1</clus>
</clustering>
</event>
<event>
 9    1  0.1464797E-005  0.1064917E+03  0.7546771E-02  0.1270031E+00
          2   -1    0    0  502    0 -0.00000000000E+00  0.00000000000E+00  0.40331290476E+03  0.40331290476E+03  0.00000000000E+00 0. -1.
         21   -1    0    0  501  502  0.00000000000E+00 -0.00000000000E+00 -0.14622797647E+03  0.14622797647E+03  0.00000000000E+00 0. -1.
         23    2    1    2    0    0 -0.83109774250E+01 -0.44667918995E+02  0.28008732403E+03  0.29692340619E+03  0.87466020421E+02 0.  0.
         23    2    1    2    0    0  0.71649228244E+02  0.54317761096E+02  0.63708159636E+02  0.14480479545E+03  0.93945027024E+02 0.  0.
        -11    1    4    4    0    0  0.16838939430E+02 -0.12549833380E+02 -0.16624352730E+02  0.26784646772E+02  0.00000000000E+00 0.  1.
         11    1    4    4    0    0  0.54810288814E+02  0.66867594477E+02  0.80332512366E+02  0.11802014868E+03  0.00000000000E+00 0. -1.
        -13    1    3    3    0    0 -0.40610248078E+02  0.16004752026E+01  0.92537201713E+02  0.10106872647E+03  0.00000000000E+00 0.  1.
         13    1    3    3    0    0  0.32299270653E+02 -0.46268394197E+02  0.18755012231E+03  0.19585467971E+03  0.00000000000E+00 0. -1.
          2    1    1    2  501    0 -0.63338250819E+02 -0.96498421017E+01 -0.86710555369E+02  0.10781267960E+03  0.00000000000E+00 0. -1.
<scales pt_clust_5="13000.00000" pt_clust_6="13000.00000" pt_clust_7="13000.00000" pt_clust_8="13000.00000" pt_clust_9="64.06913"></scales>
<clustering>
<clus scale="   64.069">  2  9  1 -1</clus>
<clus scale="   87.466">  7  8 -1 -1</clus>
<clus scale="   93.945">  5  6 -1 -1</clus>
<clus scale="  100.822">  1  7  2 -1</clus>
<clus scale="   64.069">  2  5  1 -1</clus>
</clustering>
</event>
<event>
 9    1  0.1464797E-005  0.1078289E+03  0.7546771E-02  0.1264936E+00
         -2   -1    0    0    0  501 -0.00000000000E+00  0.00000000000E+00  0.31380031919E+03  0.31380031919E+03  0.00000000000E+00 0.  1.
         21   -1    0    0  501  502  0.00000000000E+00 -0.00000000000E+00 -0.29752334037E+03  0.29752334037E+03  0.00000000000E+00 0.  1.
         23    2    1    2    0    0 -0.71467542078E+02 -0.18281491438E+02  0.21727509856E+03  0.24722384222E+03  0.92029001997E+02 0.  0.
         23    2    1    2    0    0  0.13055763263E+02  0.19735796284E+02  0.48887059233E+02  0.10747430501E+03  0.92740644102E+02 0.  0.
        -13    1    3    3    0    0 -0.41901800761E+02  0.70184492497E+01  0.21494133198E+02  0.47613205089E+02  0.00000000000E+00 0. -1.
         13    1    3    3    0    0 -0.29565741317E+02 -0.25299940688E+02  0.19578096536E+03  0.19961063713E+03  0.00000000000E+00 0.  1.
        -13    1    4    4    0    0  0.16222040523E+02 -0.34167326181E+02  0.35433347412E+02  0.51827433719E+02  0.00000000000E+00 0.  1.
         13    1    4    4    0    0 -0.31662772604E+01  0.53903122465E+02  0.13453711821E+02  0.55646871295E+02  0.00000000000E+00 0. -1.
         -2    1    1    2    0  502  0.58411778815E+02 -0.14543048459E+01 -0.24988517897E+03  0.25662551233E+03  0.00000000000E+00 0.  1.
<scales pt_clust_5="13000.00000" pt_clust_6="13000.00000" pt_clust_7="13000.00000" pt_clust_8="13000.00000" pt_clust_9="58.42988"></scales>
<clustering>
<clus scale="   58.430">  2  9  1 -1</clus>
<clus scale="   92.029">  5  6 -1 -1</clus>
<clus scale="   92.741">  7  8 -1 -1</clus>
<clus scale="  107.217">  1  5  2 -1</clus>
<clus scale="   58.430">  2  5  1 -1</clus>
</clustering>
</event>
<event>
 9    1  0.1464797E-005  0.9949173E+02  0.7546771E-02  0.1282851E+00
         21   -1    0    0  501  502  0.00000000000E+00  0.00000000000E+00  0.13611864619E+03  0.13611864619E+03  0.00000000000E+00 0. -1.
          2   -1    0    0  502    0 -0.00000000000E+00 -0.00000000000E+00 -0.97982709014E+02  0.97982709014E+02  0.00000000000E+00 0. -1.
         23    2    1    2    0    0 -0.13370618295E+02 -0.37721188954E+02  0.27431982934E+01  0.10009263368E+03  0.91702500788E+02 0.  0.
         23    2    1    2    0    0 -0.13448735022E+02  0.39663834174E+02  0.41374503607E+02  0.10646179625E+03  0.88702741205E+02 0.  0.
        -11    1    4    4    0    0  0.17876960226E+02 -0.20509674892E+02  0.40298332562E+00  0.27210197843E+02  0.00000000000E+00 0.  1.
         11    1    4    4    0    0 -0.31325695248E+02  0.60173509066E+02  0.40971520281E+02  0.79251598408E+02  0.00000000000E+00 0. -1.
        -13    1    3    3    0    0 -0.16395674175E+02 -0.62481355941E+02 -0.18645588736E+02  0.67233889901E+02  0.00000000000E+00 0. -1.
         13    1    3    3    0    0  0.30250558803E+01  0.24760166987E+02  0.21388787030E+02  0.32858743781E+02  0.00000000000E+00 0.  1.
          2    1    1    2  501    0  0.26819353317E+02 -0.19426452199E+01 -0.59817647231E+01  0.27546925273E+02  0.00000000000E+00 0. -1.
<scales pt_clust_5="13000.00000" pt_clust_6="13000.00000" pt_clust_7="13000.00000" pt_clust_8="13000.00000" pt_clust_9="26.88963"></scales>
<clustering>
<clus scale="   26.890">  1  9  2 -1</clus>
<clus scale="   88.703">  5  6 -1 -1</clus>
<clus scale="   91.703">  7  8 -1 -1</clus>
<clus scale="   96.734">  1  5  2 -1</clus>
<clus scale="   26.890">  1  5  2 -1</clus>
</clustering>
</event>
<event>
 9    1  0.1464797E-005  0.1843815E+03  0.7546771E-02  0.1164328E+00
         21   -1    0    0  501  502  0.00000000000E+00  0.00000000000E+00  0.79509798442E+02  0.79509798442E+02  0.00000000000E+00 0. -1.
          2   -1    0    0  502    0 -0.00000000000E+00 -0.00000000000E+00 -0.11441500079E+04  0.11441500079E+04  0.00000000000E+00 0. -1.
         23    2    1    2    0    0 -0.13930286242E+03 -0.89711543317E+02 -0.96268827480E+03  0.98053611819E+03  0.85023033006E+02 0.  0.
         23    2    1    2    0    0  0.96534038745E+02  0.96566425143E+02 -0.11189236584E+03  0.19868301018E+03  0.91165464405E+02 0.  0.
        -11    1    4    4    0    0  0.11370262108E+03  0.74187726866E+02 -0.88763640447E+02  0.16220693180E+03  0.00000000000E+00 0.  1.
         11    1    4    4    0    0 -0.17168582334E+02  0.22378698277E+02 -0.23128725397E+02  0.36476078386E+02  0.00000000000E+00 0. -1.
        -13    1    3    3    0    0 -0.10553475604E+03 -0.10214598863E+03 -0.83740552546E+03  0.85018786265E+03  0.00000000000E+00 0. -1.
         13    1    3    3    0    0 -0.33768106374E+02  0.12434445312E+02 -0.12528274934E+03  0.13034825554E+03  0.00000000000E+00 0.  1.
          2    1    1    2  501    0  0.42768823671E+02 -0.68548818264E+01  0.99404312204E+01  0.44440677941E+02  0.00000000000E+00 0. -1.
<scales pt_clust_5="13000.00000" pt_clust_6="13000.00000" pt_clust_7="13000.00000" pt_clust_8="13000.00000" pt_clust_9="43.31468"></scales>
<clustering>
<clus scale="   43.315">  1  9  2 -1</clus>
<clus scale="   85.023">  7  8 -1 -1</clus>
<clus scale="   91.165">  5  6 -1 -1</clus>
<clus scale="  181.423">  2  7  1 -1</clus>
<clus scale="   43.315">  1  5  2 -1</clus>
</clustering>
</event>
<event>
 9    1  0.1464797E-005  0.1094576E+03  0.7546771E-02  0.1261844E+00
         21   -1    0    0  501  502  0.00000000000E+00  0.00000000000E+00  0.88284398495E+02  0.88284398495E+02  0.00000000000E+00 0. -1.
          1   -1    0    0  502    0 -0.00000000000E+00 -0.00000000000E+00 -0.36914560891E+03  0.36914560891E+03  0.00000000000E+00 0. -1.
         23    2    1    2    0    0  0.21638784385E+02  0.73714329368E+02 -0.23353625074E+03  0.26239759505E+03  0.91713020548E+02 0.  0.
         23    2    1    2    0    0  0.14835738897E+02 -0.36462961143E+02 -0.85073124135E+02  0.13066643375E+03  0.91030949538E+02 0.  0.
        -11    1    4    4    0    0 -0.83761856024E+01 -0.62444162218E+02 -0.44210454774E+02  0.76967513872E+02  0.00000000000E+00 0. -1.
         11    1    4    4    0    0  0.23211924500E+02  0.25981201075E+02 -0.40862669361E+02  0.53698919873E+02  0.00000000000E+00 0.  1.
        -13    1    3    3    0    0 -0.77612986099E+01  0.19578243487E+02 -0.19515237273E+00  0.21061421097E+02  0.00000000000E+00 0.  1.
         13    1    3    3    0    0  0.29400082995E+02  0.54136085881E+02 -0.23334109836E+03  0.24133617396E+03  0.00000000000E+00 0. -1.
          1    1    1    2  501    0 -0.36474523282E+02 -0.37251368225E+02  0.37748164451E+02  0.64365978612E+02  0.00000000000E+00 0. -1.
<scales pt_clust_5="13000.00000" pt_clust_6="13000.00000" pt_clust_7="13000.00000" pt_clust_8="13000.00000" pt_clust_9="52.13497"></scales>
<clustering>
<clus scale="   52.135">  1  9  2 -1</clus>
<clus scale="   91.031">  5  6 -1 -1</clus>
<clus scale="   91.713">  7  8 -1 -1</clus>
<clus scale="  108.887">  1  5  2 -1</clus>
<clus scale="   52.135">  1  5  2 -1</clus>
</clustering>
</event>
<event>
 9    1  0.1464797E-005  0.1000282E+03  0.7546771E-02  0.1281216E+00
          2   -1    0    0  502    0 -0.00000000000E+00  0.00000000000E+00  0.43356212162E+03  0.43356212162E+03  0.00000000000E+00 0. -1.
         21   -1    0    0  501  502  0.00000000000E+00 -0.00000000000E+00 -0.35737309911E+02  0.35737309911E+02  0.00000000000E+00 0.  1.
         23    2    1    2    0    0  0.23275475678E+02 -0.17607666793E+02  0.24417074111E+03  0.26240434288E+03  0.91569157751E+02 0.  0.
         23    2    1    2    0    0 -0.52240981015E+02  0.71986484022E+01  0.12561665922E+03  0.16526043241E+03  0.93544239860E+02 0.  0.
        -13    1    3    3    0    0 -0.15028419423E+02  0.18916537142E+02  0.18011742925E+02  0.30134890923E+02  0.00000000000E+00 0.  1.
         13    1    3    3    0    0  0.38303895102E+02 -0.36524203935E+02  0.22615899819E+03  0.23226945196E+03  0.00000000000E+00 0. -1.
        -13    1    4    4    0    0 -0.73981718788E+02 -0.15168969235E+02  0.80170703636E+02  0.11013961169E+03  0.00000000000E+00 0.  1.
         13    1    4    4    0    0  0.21740737773E+02  0.22367617637E+02  0.45445955586E+02  0.55120820719E+02  0.00000000000E+00 0. -1.
          2    1    1    2  501    0  0.28965505336E+02  0.10409018391E+02  0.28037411378E+02  0.41634656238E+02  0.00000000000E+00 0. -1.
<scales pt_clust_5="13000.00000" pt_clust_6="13000.00000" pt_clust_7="13000.00000" pt_clust_8="13000.00000" pt_clust_9="30.77902"></scales>
<clustering>
<clus scale="   30.779">  2  9  1 -1</clus>
<clus scale="   91.569">  5  6 -1 -1</clus>
<clus scale="   93.544">  7  8 -1 -1</clus>
<clus scale="   98.184">  1  5  2 -1</clus>
<clus scale="   30.779">  2  5  1 -1</clus>
</clustering>
</event>
<event>
 9    1  0.1464797E-005  0.1439576E+03  0.7546771E-02  0.1208552E+00
          2   -1    0    0  502    0 -0.00000000000E+00  0.00000000000E+00  0.37234960354E+03  0.37234960354E+03  0.00000000000E+00 0. -1.
         21   -1    0    0  501  502  0.00000000000E+00 -0.00000000000E+00 -0.47424583157E+03  0.47424583157E+03  0.00000000000E+00 0.  1.
         23    2    1    2    0    0 -0.28033573827E+02  0.10245307589E+03  0.28735886704E+03  0.31961891506E+03  0.91096752841E+02 0.  0.
         23    2    1    2    0    0 -0.52114026952E+02 -0.19855735986E+03 -0.28950800141E+03  0.36694791635E+03  0.93246948866E+02 0.  0.
        -11    1    4    4    0    0 -0.91685499594E+01 -0.13276399045E+03 -0.11623726502E+03  0.17669590048E+03  0.00000000000E+00 0. -1.
         11    1    4    4    0    0 -0.42945476992E+02 -0.65793369417E+02 -0.17327073639E+03  0.19025201587E+03  0.00000000000E+00 0.  1.
        -13    1    3    3    0    0 -0.48538737480E+02  0.37213497723E+02  0.76480531403E+02  0.97929184274E+02  0.00000000000E+00 0.  1.
         13    1    3    3    0    0  0.20505163653E+02  0.65239578163E+02  0.21087833564E+03  0.22168973079E+03  0.00000000000E+00 0. -1.
          2    1    1    2  501    0  0.80147600779E+02  0.96104283977E+02 -0.99747093658E+02  0.16002860370E+03  0.00000000000E+00 0. -1.
<scales pt_clust_5="13000.00000" pt_clust_6="13000.00000" pt_clust_7="13000.00000" pt_clust_8="13000.00000" pt_clust_9="125.13861"></scales>
<clustering>
<clus scale="   91.097">  7  8 -1 -1</clus>
<clus scale="   93.247">  5  6 -1 -1</clus>
<clus scale="  125.139">  2  9  1 -1</clus>
<clus scale="  142.574">  1  7  2 -1</clus>
<clus scale="  125.139">  2  5  1 -1</clus>
</clustering>
</event>
<event>
 9    1  0.1464797E-005  0.1430491E+03  0.7546771E-02  0.1209800E+00
          2   -1    0    0  502    0 -0.00000000000E+00  0.00000000000E+00  0.53951048059E+03  0.53951048059E+03  0.00000000000E+00 0. -1.
         21   -1    0    0  501  502  0.00000000000E+00 -0.00000000000E+00 -0.14631335349E+03  0.14631335349E+03  0.00000000000E+00 0. -1.
         23    2    1    2    0    0 -0.74416174082E+02  0.79418285900E+02  0.32132392732E+03  0.35099072465E+03  0.90002174518E+02 0.  0.
         23    2    1    2    0    0  0.94939229869E+02 -0.59577390071E+02  0.17521706178E+03  0.22761925407E+03  0.92447732843E+02 0.  0.
        -11    1    4    4    0    0  0.78139042320E+02 -0.37107192313E+02  0.51309348377E+02  0.10057486210E+03  0.00000000000E+00 0.  1.
         11    1    4    4    0    0  0.16800187549E+02 -0.22470197759E+02  0.12390771341E+03  0.12704439197E+03  0.00000000000E+00 0. -1.
        -13    1    3    3    0    0 -0.76092200920E+02  0.19997727792E+02  0.14578530791E+03  0.16566015863E+03  0.00000000000E+00 0. -1.
         13    1    3    3    0    0  0.16760268371E+01  0.59420558108E+02  0.17553861942E+03  0.18533056601E+03  0.00000000000E+00 0.  1.
          2    1    1    2  501    0 -0.20523055787E+02 -0.19840895829E+02 -0.10334386201E+03  0.10721385536E+03  0.00000000000E+00 0. -1.
<scales pt_clust_5="13000.00000" pt_clust_6="13000.00000" pt_clust_7="13000.00000" pt_clust_8="13000.00000" pt_clust_9="28.54570"></scales>
<clustering>
<clus scale="   28.546">  2  9  1 -1</clus>
<clus scale="   90.002">  7  8 -1 -1</clus>
<clus scale="   92.448">  5  6 -1 -1</clus>
<clus scale="  141.481">  1  7  2 -1</clus>
<clus scale="   28.546">  2  5  1 -1</clus>
</clustering>
</event>
<event>
 9    1  0.1464797E-005  0.9758754E+02  0.7546771E-02  0.1286440E+00
         21   -1    0    0  501  502  0.00000000000E+00  0.00000000000E+00  0.12128579854E+03  0.12128579854E+03  0.00000000000E+00 0. -1.
          1   -1    0    0  502    0 -0.00000000000E+00 -0.00000000000E+00 -0.44006952748E+03  0.44006952748E+03  0.00000000000E+00 0. -1.
         23    2    1    2    0    0  0.37928248050E+01 -0.20096699901E+02 -0.25167767763E+03  0.26867888665E+03  0.91806469518E+02 0.  0.
         23    2    1    2    0    0  0.15992431415E+02  0.39394720949E+02 -0.16307055097E+03  0.19281125437E+03  0.93682833632E+02 0.  0.
        -11    1    3    3    0    0 -0.29496834903E+01 -0.56708523745E+02 -0.14796673426E+03  0.15848883792E+03  0.00000000000E+00 0.  1.
         11    1    3    3    0    0  0.67425082953E+01  0.36611823844E+02 -0.10371094338E+03  0.11019004873E+03  0.00000000000E+00 0. -1.
        -13    1    4    4    0    0  0.53983714187E+02  0.16788039467E+02 -0.71694218763E+02  0.91302468043E+02  0.00000000000E+00 0.  1.
         13    1    4    4    0    0 -0.37991282772E+02  0.22606681482E+02 -0.91376332204E+02  0.10150878633E+03  0.00000000000E+00 0. -1.
          1    1    1    2  501    0 -0.19785256220E+02 -0.19298021048E+02  0.95964499662E+02  0.99865185002E+02  0.00000000000E+00 0. -1.
<scales pt_clust_5="13000.00000" pt_clust_6="13000.00000" pt_clust_7="13000.00000" pt_clust_8="13000.00000" pt_clust_9="27.63820"></scales>
<clustering>
<clus scale="   27.638">  1  9  2 -1</clus>
<clus scale="   91.806">  5  6 -1 -1</clus>
<clus scale="   93.683">  7  8 -1 -1</clus>
<clus scale="   95.788">  2  5  1 -1</clus>
<clus scale="   27.638">  1  5  2 -1</clus>
</clustering>
</event>
<event>
 9    1  0.1464797E-005  0.1023580E+03  0.7546771E-02  0.1275875E+00
         21   -1    0    0  501  502  0.00000000000E+00  0.00000000000E+00  0.16111148975E+03  0.16111148975E+03  0.00000000000E+00 0. -1.
          2   -1    0    0  502    0 -0.00000000000E+00 -0.00000000000E+00 -0.20314079184E+03  0.20314079184E+03  0.00000000000E+00 0. -1.
         23    2    1    2    0    0 -0.43979407811E+02 -0.28856837003E+01 -0.14995108885E+03  0.18062773468E+03  0.90545756436E+02 0.  0.
         23    2    1    2    0    0  0.55895159063E+02 -0.22624830729E+02  0.52695636397E+02  0.12163503845E+03  0.91553813198E+02 0.  0.
        -11    1    4    4    0    0  0.22338922490E+02  0.62182012083E+01  0.70290506928E+02  0.74016544424E+02  0.00000000000E+00 0.  1.
         11    1    4    4    0    0  0.33556236573E+02 -0.28843031937E+02 -0.17594870531E+02  0.47618494025E+02  0.00000000000E+00 0. -1.
        -13    1    3    3    0    0  0.85643301196E+01  0.29740027407E+02 -0.87159724449E+02  0.92491267407E+02  0.00000000000E+00 0.  1.
         13    1    3    3    0    0 -0.52543737930E+02 -0.32625711107E+02 -0.62791364400E+02  0.88136467277E+02  0.00000000000E+00 0. -1.
          2    1    1    2  501    0 -0.11915751252E+02  0.25510514429E+02  0.55226150365E+02  0.61989508455E+02  0.00000000000E+00 0. -1.
<scales pt_clust_5="13000.00000" pt_clust_6="13000.00000" pt_clust_7="13000.00000" pt_clust_8="13000.00000" pt_clust_9="28.15620"></scales>
<clustering>
<clus scale="   28.156">  1  9  2 -1</clus>
<clus scale="   90.546">  7  8 -1 -1</clus>
<clus scale="   91.554">  5  6 -1 -1</clus>
<clus scale="  101.457">  2  7  1 -1</clus>
<clus scale="   28.156">  1  5  2 -1</clus>
</clustering>
</event>
<event>
 9    1  0.1464797E-005  0.1630333E+03  0.7546771E-02  0.1186261E+00
          1   -1    0    0  502    0 -0.00000000000E+00  0.00000000000E+00  0.64801876509E+03  0.64801876509E+03  0.00000000000E+00 0. -1.
         21   -1    0    0  501  502  0.00000000000E+00 -0.00000000000E+00 -0.96698972506E+02  0.96698972506E+02  0.00000000000E+00 0.  1.
         23    2    1    2    0    0  0.12821809361E+03  0.42733869199E+02  0.52478780146E+03  0.55079182901E+03  0.98505528945E+02 0.  0.
         23    2    1    2    0    0 -0.10943614603E+03 -0.16652180096E+02  0.51382156986E+02  0.15329898642E+03  0.92773315246E+02 0.  0.
        -11    1    4    4    0    0 -0.32310792444E+02 -0.26170680956E+02 -0.21455852627E+02  0.46789373388E+02  0.00000000000E+00 0.  1.
         11    1    4    4    0    0 -0.77125353582E+02  0.95185008600E+01  0.72838009614E+02  0.10650961303E+03  0.00000000000E+00 0. -1.
        -11    1    3    3    0    0  0.69218876073E+02  0.67382561107E+02  0.38726039086E+03  0.39912688794E+03  0.00000000000E+00 0. -1.
         11    1    3    3    0    0  0.58999217538E+02 -0.24648691908E+02  0.13752741060E+03  0.15166494107E+03  0.00000000000E+00 0.  1.
          1    1    1    2  501    0 -0.18781947584E+02 -0.26081689103E+02 -0.24850165863E+02  0.40626922169E+02  0.00000000000E+00 0. -1.
<scales pt_clust_5="13000.00000" pt_clust_6="13000.00000" pt_clust_7="13000.00000" pt_clust_8="13000.00000" pt_clust_9="32.14057"></scales>
<clustering>
<clus scale="   32.141">  2  9  1 -1</clus>
<clus scale="   92.773">  5  6 -1 -1</clus>
<clus scale="   98.506">  7  8 -1 -1</clus>
<clus scale="  159.635">  2  5  1 -1</clus>
<clus scale="   32.141">  2  5  1 -1</clus>
</clustering>
</event>
<event>
 9    1  0.1464797E-005  0.9472625E+02  0.7546771E-02  0.1293449E+00
          3   -1    0    0  502    0 -0.00000000000E+00  0.00000000000E+00  0.30019434803E+02  0.30019434803E+02  0.00000000000E+00 0. -1.
         21   -1    0    0  501  502  0.00000000000E+00 -0.00000000000E+00 -0.56993641304E+03  0.56993641304E+03  0.00000000000E+00 0.  1.
         23    2    1    2    0    0  0.22029121828E+02  0.53134871583E+01 -0.76942630973E+02  0.12119857924E+03  0.90859296689E+02 0.  0.
         23    2    1    2    0    0 -0.36418047649E+02 -0.19729944111E+02 -0.32233542674E+03  0.33665103586E+03  0.87853558415E+02 0.  0.
        -11    1    4    4    0    0 -0.64326989408E+02 -0.16631786397E+02 -0.18754108724E+03  0.19896290430E+03  0.00000000000E+00 0. -1.
         11    1    4    4    0    0  0.27908941759E+02 -0.30981577142E+01 -0.13479433950E+03  0.13768813156E+03  0.00000000000E+00 0.  1.
        -11    1    3    3    0    0 -0.27567998631E+02  0.21649222795E+02 -0.10299686185E+02  0.36534462246E+02  0.00000000000E+00 0. -1.
         11    1    3    3    0    0  0.49597120459E+02 -0.16335735636E+02 -0.66642944788E+02  0.84664116995E+02  0.00000000000E+00 0.  1.
          3    1    1    2  501    0  0.14388925821E+02  0.14416456953E+02 -0.14063892052E+03  0.14210623274E+03  0.00000000000E+00 0. -1.
<scales pt_clust_5="13000.00000" pt_clust_6="13000.00000" pt_clust_7="13000.00000" pt_clust_8="13000.00000" pt_clust_9="20.36849"></scales>
<clustering>
<clus scale="   20.368">  2  9  1 -1</clus>
<clus scale="   87.854">  5  6 -1 -1</clus>
<clus scale="   90.859">  7  8 -1 -1</clus>
<clus scale="   91.847">  2  5  1 -1</clus>
<clus scale="   20.368">  2  5  1 -1</clus>
</clustering>
</event>
<event>
 9    1  0.1464797E-005  0.1679482E+03  0.7546771E-02  0.1180651E+00
          4   -1    0    0  502    0 -0.00000000000E+00  0.00000000000E+00  0.19928725833E+03  0.19928725833E+03  0.00000000000E+00 0. -1.
         21   -1    0    0  501  502  0.00000000000E+00 -0.00000000000E+00 -0.17665210777E+03  0.17665210777E+03  0.00000000000E+00 0. -1.
         23    2    1    2    0    0  0.33202394697E+02  0.12290966360E+03  0.10095515278E+02  0.15955025949E+03  0.95630442095E+02 0.  0.
         23    2    1    2    0    0 -0.10577919608E+02 -0.15189373971E+03  0.74737882685E-02  0.17754327525E+03  0.91312726301E+02 0.  0.
        -11    1    3    3    0    0  0.50470400638E+02  0.26849836959E+02  0.21942375085E+02  0.61234327870E+02  0.00000000000E+00 0. -1.
         11    1    3    3    0    0 -0.17268005941E+02  0.96059826638E+02 -0.11846859807E+02  0.98315931619E+02  0.00000000000E+00 0.  1.
        -13    1    4    4    0    0 -0.42390363952E+02 -0.12034655219E+03 -0.18765767300E+02  0.12896662205E+03  0.00000000000E+00 0.  1.
         13    1    4    4    0    0  0.31812444345E+02 -0.31547187526E+02  0.18773241088E+02  0.48576653208E+02  0.00000000000E+00 0. -1.
          4    1    1    2  501    0 -0.22624475089E+02  0.28984076118E+02  0.12532161496E+02  0.38845831349E+02  0.00000000000E+00 0. -1.
<scales pt_clust_5="13000.00000" pt_clust_6="13000.00000" pt_clust_7="13000.00000" pt_clust_8="13000.00000" pt_clust_9="36.76880"></scales>
<clustering>
<clus scale="   36.769">  2  9  1 -1</clus>
<clus scale="   91.313">  7  8 -1 -1</clus>
<clus scale="   95.630">  5  6 -1 -1</clus>
<clus scale="  165.528">  2  7  1 -1</clus>
<clus scale="   36.769">  2  5  1 -1</clus>
</clustering>
</event>
<event>
 9    1  0.1464797E-005  0.1552992E+03  0.7546771E-02  0.1194117E+00
         21   -1    0    0  501  502  0.00000000000E+00  0.00000000000E+00  0.17165579189E+03  0.17165579189E+03  0.00000000000E+00 0.  1.
          3   -1    0    0  502    0 -0.00000000000E+00 -0.00000000000E+00 -0.22526110465E+03  0.22526110465E+03  0.00000000000E+00 0. -1.
         23    2    1    2    0    0  0.52777533796E+02 -0.94124807561E+02  0.22842565644E+02  0.14315773601E+03  0.91254627833E+02 0.  0.
         23    2    1    2    0    0 -0.49183001361E+02  0.13559792320E+03 -0.45982553002E+01  0.17072116728E+03  0.91207503009E+02 0.  0.
        -11    1    4    4    0    0  0.71715571528E+01  0.27733145943E+02  0.32664075678E+02  0.43445373238E+02  0.00000000000E+00 0. -1.
         11    1    4    4    0    0 -0.56354558514E+02  0.10786477726E+03 -0.37262330978E+02  0.12727579404E+03  0.00000000000E+00 0.  1.
        -13    1    3    3    0    0  0.57625169471E+02 -0.13598101218E+02 -0.38089346165E+00  0.59209066815E+02  0.00000000000E+00 0.  1.
         13    1    3    3    0    0 -0.48476356747E+01 -0.80526706342E+02  0.23223459106E+02  0.83948669190E+02  0.00000000000E+00 0. -1.
          3    1    1    2  501    0 -0.35945324352E+01 -0.41473115641E+02 -0.71849623101E+02  0.83037993257E+02  0.00000000000E+00 0. -1.
<scales pt_clust_5="13000.00000" pt_clust_6="13000.00000" pt_clust_7="13000.00000" pt_clust_8="13000.00000" pt_clust_9="41.62862"></scales>
<clustering>
<clus scale="   41.629">  1  9  2 -1</clus>
<clus scale="   91.208">  5  6 -1 -1</clus>
<clus scale="   91.255">  7  8 -1 -1</clus>
<clus scale="  155.271">  1  5  2 -1</clus>
<clus scale="   41.629">  1  5  2 -1</clus>
</clustering>
</event>
<event>
 9    1  0.1746957E-005  0.9575321E+02  0.7546771E-02  0.1290291E+00
         21   -1    0    0  501  502  0.00000000000E+00  0.00000000000E+00  0.93497467711E+02  0.93497467711E+02  0.00000000000E+00 0. -1.
          1   -1    0    0  502    0 -0.00000000000E+00 -0.00000000000E+00 -0.44950213487E+03  0.44950213487E+03  0.00000000000E+00 0. -1.
         23    2    1    2    0    0  0.25054626413E+02 -0.15876743157E+02 -0.40467487089E+03  0.41564059211E+03  0.90086321934E+02 0.  0.
         23    2    1    2    0    0 -0.11134529386E+02 -0.51994588375E+01  0.36974137943E+02  0.99524259772E+02  0.91580452553E+02 0.  0.
        -11    1    4    4    0    0 -0.36668367725E+02  0.30670003072E+02  0.13733995396E+02  0.49737721194E+02  0.00000000000E+00 0.  1.
         11    1    4    4    0    0  0.25533838340E+02 -0.35869461909E+02  0.23240142546E+02  0.49786538578E+02  0.00000000000E+00 0. -1.
        -11    1    3    3    0    0 -0.58831815996E+01  0.34684347683E+02 -0.13296474599E+03  0.13753995593E+03  0.00000000000E+00 0.  1.
         11    1    3    3    0    0  0.30937808013E+02 -0.50561090839E+02 -0.27171012490E+03  0.27810063618E+03  0.00000000000E+00 0. -1.
          1    1    1    2  501    0 -0.13920097027E+02  0.21076201994E+02  0.11696065788E+02  0.27834750702E+02  0.00000000000E+00 0. -1.
<scales pt_clust_5="13000.00000" pt_clust_6="13000.00000" pt_clust_7="13000.00000" pt_clust_8="13000.00000" pt_clust_9="25.25817"></scales>
<clustering>
<clus scale="   25.258">  1  9  2 -1</clus>
<clus scale="   90.086">  7  8 -1 -1</clus>
<clus scale="   91.580">  5  6 -1 -1</clus>
<clus scale="   94.325">  2  7  1 -1</clus>
<clus scale="   25.258">  1  5  2 -1</clus>
</clustering>
</event>
<event>
 9    1  0.1464797E-005  0.2269273E+03  0.7546771E-02  0.1154625E+00
         21   -1    0    0  501  502  0.00000000000E+00  0.00000000000E+00  0.30332753483E+03  0.30332753483E+03  0.00000000000E+00 0. -1.
          1   -1    0    0  502    0 -0.00000000000E+00 -0.00000000000E+00 -0.58610060583E+03  0.58610060583E+03  0.00000000000E+00 0. -1.
         23    2    1    2    0    0 -0.60659464793E+02 -0.43791431682E+02 -0.79526459891E+01  0.12226213127E+03  0.96371800895E+02 0.  0.
         23    2    1    2    0    0 -0.11331341181E+03  0.16098079162E+03 -0.44618657857E+03  0.49630392924E+03  0.92088993498E+02 0.  0.
        -13    1    4    4    0    0 -0.13545713266E+02  0.88839728604E+02 -0.14081308406E+03  0.16704582715E+03  0.00000000000E+00 0.  1.
         13    1    4    4    0    0 -0.99767698543E+02  0.72141063011E+02 -0.30537349451E+03  0.32925810209E+03  0.00000000000E+00 0. -1.
        -13    1    3    3    0    0 -0.77842969831E+02 -0.29775951044E+02 -0.32251638219E+02  0.89366119869E+02  0.00000000000E+00 0. -1.
         13    1    3    3    0    0  0.17183505038E+02 -0.14015480638E+02  0.24298992230E+02  0.32896011404E+02  0.00000000000E+00 0.  1.
          1    1    1    2  501    0  0.17397287660E+03 -0.11718935993E+03  0.17136615356E+03  0.27086208014E+03  0.00000000000E+00 0. -1.
<scales pt_clust_5="13000.00000" pt_clust_6="13000.00000" pt_clust_7="13000.00000" pt_clust_8="13000.00000" pt_clust_9="207.40211"></scales>
<clustering>
<clus scale="   92.089">  5  6 -1 -1</clus>
<clus scale="   96.372">  7  8 -1 -1</clus>
<clus scale="  122.003">  2  7  1 -1</clus>
<clus scale="  207.402">  1  9  2 -1</clus>
<clus scale="  207.402">  1  5  2 -1</clus>
</clustering>
</event>
<event>
 9    1  0.1464797E-005  0.1674284E+03  0.7546771E-02  0.1180983E+00
         21   -1    0    0  501  502  0.00000000000E+00  0.00000000000E+00  0.35897945254E+03  0.35897945254E+03  0.00000000000E+00 0.  1.
         -3   -1    0    0    0  501 -0.00000000000E+00 -0.00000000000E+00 -0.17086228771E+03  0.17086228771E+03  0.00000000000E+00 0.  1.
         23    2    1    2    0    0  0.11417880366E+03 -0.25279291415E+02  0.11676436659E+02  0.14675265774E+03  0.87887209545E+02 0.  0.
         23    2    1    2    0    0 -0.14923657260E+03  0.13071755148E+03  0.69846778138E+02  0.22911329210E+03  0.90860856997E+02 0.  0.
        -13    1    3    3    0    0 -0.42505202433E+01 -0.19843330834E+02 -0.14998790037E+02  0.25234666701E+02  0.00000000000E+00 0. -1.
         13    1    3    3    0    0  0.11842932390E+03 -0.54359605816E+01  0.26675226697E+02  0.12151799104E+03  0.00000000000E+00 0.  1.
        -13    1    4    4    0    0 -0.10814716493E+03  0.11908347054E+03  0.87247596252E+02  0.18299952265E+03  0.00000000000E+00 0.  1.
         13    1    4    4    0    0 -0.41089407669E+02  0.11634080941E+02 -0.17400818114E+02  0.46113769451E+02  0.00000000000E+00 0. -1.
         -3    1    1    2    0  502  0.35057768943E+02 -0.10543826006E+03  0.10659395004E+03  0.15397579041E+03  0.00000000000E+00 0.  1.
<scales pt_clust_5="13000.00000" pt_clust_6="13000.00000" pt_clust_7="13000.00000" pt_clust_8="13000.00000" pt_clust_9="111.11379"></scales>
<clustering>
<clus scale="   87.887">  5  6 -1 -1</clus>
<clus scale="   90.861">  7  8 -1 -1</clus>
<clus scale="  111.114">  1  9  2 -1</clus>
<clus scale="  165.833">  2  5  1 -1</clus>
<clus scale="  111.114">  1  5  2 -1</clus>
</clustering>
</event>
<event>
 9    1  0.2185868E-005  0.1112952E+03  0.7546771E-02  0.1258230E+00
         21   -1    0    0  501  502  0.00000000000E+00  0.00000000000E+00  0.17434429607E+03  0.17434429607E+03  0.00000000000E+00 0. -1.
          1   -1    0    0  502    0 -0.00000000000E+00 -0.00000000000E+00 -0.42939250208E+03  0.42939250208E+03  0.00000000000E+00 0. -1.
         23    2    1    2    0    0  0.22251731170E+02  0.71515040389E+02 -0.35261988210E+03  0.37167201633E+03  0.90497325547E+02 0.  0.
         23    2    1    2    0    0  0.64655569670E+01 -0.28983648081E+02 -0.25686671557E+02  0.98549905362E+02  0.90390394778E+02 0.  0.
        -11    1    3    3    0    0  0.30323534837E+02 -0.12695223082E+02 -0.99135551630E+02  0.10444397087E+03  0.00000000000E+00 0.  1.
         11    1    3    3    0    0 -0.80718036666E+01  0.84210263471E+02 -0.25348433047E+03  0.26722804546E+03  0.00000000000E+00 0. -1.
        -11    1    4    4    0    0 -0.16752659573E+02  0.26005120928E+02 -0.23451081728E+02  0.38818438292E+02  0.00000000000E+00 0. -1.
         11    1    4    4    0    0  0.23218216540E+02 -0.54988769009E+02 -0.22355898297E+01  0.59731467070E+02  0.00000000000E+00 0.  1.
          1    1    1    2  501    0 -0.28717288137E+02 -0.42531392308E+02  0.12325834765E+03  0.13351487646E+03  0.00000000000E+00 0. -1.
<scales pt_clust_5="13000.00000" pt_clust_6="13000.00000" pt_clust_7="13000.00000" pt_clust_8="13000.00000" pt_clust_9="51.31863"></scales>
<clustering>
<clus scale="   51.319">  1  9  2 -1</clus>
<clus scale="   90.390">  7  8 -1 -1</clus>
<clus scale="   90.497">  5  6 -1 -1</clus>
<clus scale="  111.208">  1  7  2 -1</clus>
<clus scale="   51.319">  1  5  2 -1</clus>
</clustering>
</event>
<event>
 9    1  0.1464797E-005  0.1151498E+03  0.7546771E-02  0.1251345E+00
          2   -1    0    0  502    0 -0.00000000000E+00  0.00000000000E+00  0.17443644456E+03  0.17443644456E+03  0.00000000000E+00 0. -1.
         21   -1    0    0  501  502  0.00000000000E+00 -0.00000000000E+00 -0.13807273724E+03  0.13807273724E+03  0.00000000000E+00 0. -1.
         23    2    1    2    0    0 -0.63927772743E+02  0.42908524850E+01  0.52677645068E+02  0.12301561978E+03  0.90844575392E+02 0.  0.
         23    2    1    2    0    0  0.76162544575E+02 -0.24541752758E+02  0.40695431379E+02  0.12776952479E+03  0.90917008894E+02 0.  0.
        -11    1    3    3    0    0 -0.69885658837E+02 -0.29697188552E+02  0.42603349508E+02  0.87068787222E+02  0.00000000000E+00 0.  1.
         11    1    3    3    0    0  0.59578860943E+01  0.33988041037E+02  0.10074295560E+02  0.35946832563E+02  0.00000000000E+00 0. -1.
        -11    1    4    4    0    0  0.34116757176E+02 -0.52251195834E+02  0.45435622531E+02  0.77191556410E+02  0.00000000000E+00 0. -1.
         11    1    4    4    0    0  0.42045787399E+02  0.27709443076E+02 -0.47401911520E+01  0.50577968383E+02  0.00000000000E+00 0.  1.
          2    1    1    2  501    0 -0.12234771832E+02  0.20250900273E+02 -0.57009369127E+02  0.61724037230E+02  0.00000000000E+00 0. -1.
<scales pt_clust_5="13000.00000" pt_clust_6="13000.00000" pt_clust_7="13000.00000" pt_clust_8="13000.00000" pt_clust_9="23.65985"></scales>
<clustering>
<clus scale="   23.660">  2  9  1 -1</clus>
<clus scale="   90.845">  5  6 -1 -1</clus>
<clus scale="   90.917">  7  8 -1 -1</clus>
<clus scale="  115.093">  1  5  2 -1</clus>
<clus scale="   23.660">  2  5  1 -1</clus>
</clustering>
</event>
<event>
 9    1  0.1464797E-005  0.9359096E+02  0.7546771E-02  0.1295014E+00
         21   -1    0    0  501  502  0.00000000000E+00  0.00000000000E+00  0.74939128750E+02  0.74939128750E+02  0.00000000000E+00 0. -1.
          1   -1    0    0  502    0 -0.00000000000E+00 -0.00000000000E+00 -0.49063900524E+03  0.49063900524E+03  0.00000000000E+00 0. -1.
         23    2    1    2    0    0 -0.80234544851E+01  0.13971031290E+02 -0.34061186808E+03  0.35314862469E+03  0.91858265293E+02 0.  0.
         23    2    1    2    0    0  0.38982337705E+02  0.89487420288E+01 -0.11841568713E+03  0.15445489242E+03  0.90743243263E+02 0.  0.
        -11    1    3    3    0    0 -0.26176204786E+02 -0.27492926223E+02 -0.78968966510E+02  0.87619360651E+02  0.00000000000E+00 0.  1.
         11    1    3    3    0    0  0.18152750301E+02  0.41463957513E+02 -0.26164290157E+03  0.26552926404E+03  0.00000000000E+00 0. -1.
        -13    1    4    4    0    0  0.94628958665E+01  0.48668868721E+02 -0.55826898574E+02  0.74664903302E+02  0.00000000000E+00 0.  1.
         13    1    4    4    0    0  0.29519441839E+02 -0.39720126692E+02 -0.62588788556E+02  0.79789989120E+02  0.00000000000E+00 0. -1.
          1    1    1    2  501    0 -0.30958883220E+02 -0.22919773319E+02  0.43327678721E+02  0.57974616882E+02  0.00000000000E+00 0. -1.
<scales pt_clust_5="13000.00000" pt_clust_6="13000.00000" pt_clust_7="13000.00000" pt_clust_8="13000.00000" pt_clust_9="38.51972"></scales>
<clustering>
<clus scale="   38.520">  1  9  2 -1</clus>
<clus scale="   90.743">  7  8 -1 -1</clus>
<clus scale="   91.858">  5  6 -1 -1</clus>
<clus scale="   92.497">  1  7  2 -1</clus>
<clus scale="   38.520">  1  5  2 -1</clus>
</clustering>
</event>
<event>
 9    1  0.1464797E-005  0.1104069E+03  0.7546771E-02  0.1260773E+00
         21   -1    0    0  501  502  0.00000000000E+00  0.00000000000E+00  0.16389939446E+03  0.16389939446E+03  0.00000000000E+00 0. -1.
          2   -1    0    0  502    0 -0.00000000000E+00 -0.00000000000E+00 -0.13260341925E+03  0.13260341925E+03  0.00000000000E+00 0. -1.
         23    2    1    2    0    0  0.13802976515E+02 -0.55360053933E+02 -0.52455856341E+02  0.11637719635E+03  0.86814614175E+02 0.  0.
         23    2    1    2    0    0 -0.24986916046E+02  0.83705756341E+02  0.49850766341E+02  0.13454226984E+03  0.89361758318E+02 0.  0.
        -13    1    4    4    0    0  0.27898161075E+02  0.23518628407E+02 -0.58599837908E+01  0.36956361881E+02  0.00000000000E+00 0.  1.
         13    1    4    4    0    0 -0.52885077121E+02  0.60187127934E+02  0.55710750132E+02  0.97585907954E+02  0.00000000000E+00 0. -1.
        -13    1    3    3    0    0  0.23340542891E+02 -0.76506352034E+02 -0.34824215030E+02  0.87239491037E+02  0.00000000000E+00 0.  1.
         13    1    3    3    0    0 -0.95375663753E+01  0.21146298101E+02 -0.17631641312E+02  0.29137705316E+02  0.00000000000E+00 0. -1.
          2    1    1    2  501    0  0.11183939530E+02 -0.28345702408E+02  0.33901065216E+02  0.45583347521E+02  0.00000000000E+00 0. -1.
<scales pt_clust_5="13000.00000" pt_clust_6="13000.00000" pt_clust_7="13000.00000" pt_clust_8="13000.00000" pt_clust_9="30.47227"></scales>
<clustering>
<clus scale="   30.472">  1  9  2 -1</clus>
<clus scale="   86.815">  7  8 -1 -1</clus>
<clus scale="   89.362">  5  6 -1 -1</clus>
<clus scale="  108.356">  2  7  1 -1</clus>
<clus scale="   30.472">  1  5  2 -1</clus>
</clustering>
</event>
<event>
 9    1  0.1464797E-005  0.1385793E+03  0.7546771E-02  0.1215303E+00
         21   -1    0    0  501  502  0.00000000000E+00  0.00000000000E+00  0.20834208706E+03  0.20834208706E+03  0.00000000000E+00 0.  1.
          2   -1    0    0  502    0 -0.00000000000E+00 -0.00000000000E+00 -0.50968387534E+03  0.50968387534E+03  0.00000000000E+00 0. -1.
         23    2    1    2    0    0 -0.37985142028E+02  0.97354404413E+02 -0.31091581562E+03  0.34184006439E+03  0.96256086273E+02 0.  0.
         23    2    1    2    0    0  0.98177148438E+02 -0.48499827206E+02 -0.14358110197E+03  0.20452827078E+03  0.96048399208E+02 0.  0.
        -13    1    3    3    0    0  0.24884192656E+02  0.64785800178E+02 -0.12628524529E+03  0.14409852923E+03  0.00000000000E+00 0.  1.
         13    1    3    3    0    0 -0.62869334684E+02  0.32568604236E+02 -0.18463057034E+03  0.19774153516E+03  0.00000000000E+00 0. -1.
        -13    1    4    4    0    0  0.33898304214E+02  0.10108616163E+01  0.59229557810E+01  0.34426708744E+02  0.00000000000E+00 0.  1.
         13    1    4    4    0    0  0.64278844225E+02 -0.49510688822E+02 -0.14950405775E+03  0.17010156204E+03  0.00000000000E+00 0. -1.
          2    1    1    2  501    0 -0.60192006410E+02 -0.48854577208E+02  0.15315512932E+03  0.17165762723E+03  0.00000000000E+00 0. -1.
<scales pt_clust_5="13000.00000" pt_clust_6="13000.00000" pt_clust_7="13000.00000" pt_clust_8="13000.00000" pt_clust_9="77.52321"></scales>
<clustering>
<clus scale="   77.523">  1  9  2 -1</clus>
<clus scale="   96.048">  7  8 -1 -1</clus>
<clus scale="   96.256">  5  6 -1 -1</clus>
<clus scale="  138.435">  1  7  2 -1</clus>
<clus scale="   77.523">  1  5  2 -1</clus>
</clustering>
</event>
<event>
 9    1  0.1464797E-005  0.1496857E+03  0.7546771E-02  0.1219540E+00
          2   -1    0    0  502    0 -0.00000000000E+00  0.00000000000E+00  0.86417023071E+03  0.86417023071E+03  0.00000000000E+00 0. -1.
         21   -1    0    0  501  502  0.00000000000E+00 -0.00000000000E+00 -0.55470282421E+02  0.55470282421E+02  0.00000000000E+00 0. -1.
         23    2    1    2    0    0  0.36546397941E+02 -0.18769532045E+02  0.10369127093E+03  0.14437469650E+03  0.91674635457E+02 0.  0.
         23    2    1    2    0    0 -0.14508724202E+03 -0.93116849203E+01  0.59020671980E+03  0.61480037162E+03  0.92187361298E+02 0.  0.
        -13    1    3    3    0    0  0.65110776655E+02  0.13449369070E+01  0.61231295030E+02  0.89389560816E+02  0.00000000000E+00 0.  1.
         13    1    3    3    0    0 -0.28564378714E+02 -0.20114468952E+02  0.42459975903E+02  0.54985135684E+02  0.00000000000E+00 0. -1.
        -13    1    4    4    0    0 -0.14108413488E+03  0.17677284290E+02  0.44878862087E+03  0.47077430444E+03  0.00000000000E+00 0. -1.
         13    1    4    4    0    0 -0.40031071424E+01 -0.26988969211E+02  0.14141809892E+03  0.14402606718E+03  0.00000000000E+00 0.  1.
          2    1    1    2  501    0  0.10854084408E+03  0.28081216965E+02  0.11480195756E+03  0.16046544500E+03  0.00000000000E+00 0. -1.
<scales pt_clust_5="13000.00000" pt_clust_6="13000.00000" pt_clust_7="13000.00000" pt_clust_8="13000.00000" pt_clust_9="117.92927"></scales>
<clustering>
<clus scale="   91.675">  5  6 -1 -1</clus>
<clus scale="   92.187">  7  8 -1 -1</clus>
<clus scale="  100.460">  1  5  2 -1</clus>
<clus scale="  117.929">  2  9  1 -1</clus>
<clus scale="  117.929">  2  5  1 -1</clus>
</clustering>
</event>
<event>
 9    1  0.1464797E-005  0.1064230E+03  0.7546771E-02  0.1268967E+00
         21   -1    0    0  501  502  0.00000000000E+00  0.00000000000E+00  0.35419097859E+03  0.35419097859E+03  0.00000000000E+00 0. -1.
          2   -1    0    0  502    0 -0.00000000000E+00 -0.00000000000E+00 -0.18779144823E+03  0.18779144823E+03  0.00000000000E+00 0. -1.
         23    2    1    2    0    0 -0.64010190616E+02  0.18483841645E+02 -0.82575673111E+02  0.14281296626E+03  0.95592074132E+02 0.  0.
         23    2    1    2    0    0  0.14766073837E+01  0.69710753664E+02 -0.16186572794E+02  0.11281390664E+03  0.87196346521E+02 0.  0.
        -11    1    3    3    0    0  0.22105086172E+02  0.17668466262E+02 -0.32891038196E+02  0.43389283566E+02  0.00000000000E+00 0.  1.
         11    1    3    3    0    0 -0.86115276788E+02  0.81537538292E+00 -0.49684634915E+02  0.99423682692E+02  0.00000000000E+00 0. -1.
        -13    1    4    4    0    0  0.25653709264E+02  0.60186338242E+02 -0.40731839446E+02  0.77068741099E+02  0.00000000000E+00 0. -1.
         13    1    4    4    0    0 -0.24177101880E+02  0.95244154225E+01  0.24545266653E+02  0.35745165540E+02  0.00000000000E+00 0.  1.
          2    1    1    2  501    0  0.62533583233E+02 -0.88194595309E+02  0.26516177626E+03  0.28635555393E+03  0.00000000000E+00 0. -1.
<scales pt_clust_5="13000.00000" pt_clust_6="13000.00000" pt_clust_7="13000.00000" pt_clust_8="13000.00000" pt_clust_9="108.11446"></scales>
<clustering>
<clus scale="   87.196">  7  8 -1 -1</clus>
<clus scale="   95.592">  5  6 -1 -1</clus>
<clus scale="  108.114">  1  9  2 -1</clus>
<clus scale="  108.114">  1  7  2 -1</clus>
<clus scale="  106.423">  1  5  2 -1</clus>
</clustering>
</event>
<event>
 9    1  0.1464797E-005  0.1339179E+03  0.7546771E-02  0.1222557E+00
         21   -1    0    0  501  502  0.00000000000E+00  0.00000000000E+00  0.47507702876E+03  0.47507702876E+03  0.00000000000E+00 0. -1.
         -4   -1    0    0    0  501 -0.00000000000E+00 -0.00000000000E+00 -0.62919578014E+02  0.62919578014E+02  0.00000000000E+00 0.  1.
         23    2    1    2    0    0 -0.75873870660E+02  0.99470856745E+01  0.10140691316E+03  0.15697550419E+03  0.92207147861E+02 0.  0.
         23    2    1    2    0    0  0.13271316088E+03 -0.10728766314E+02  0.19706717481E+03  0.25391790471E+03  0.88943473320E+02 0.  0.
        -13    1    4    4    0    0  0.66332461632E+02 -0.39180569900E+02  0.14723733256E+03  0.16617444034E+03  0.00000000000E+00 0.  1.
         13    1    4    4    0    0  0.66380699250E+02  0.28451803586E+02  0.49829842247E+02  0.87743464364E+02  0.00000000000E+00 0. -1.
        -13    1    3    3    0    0 -0.56368616946E+02  0.44594937350E+02  0.35891813100E+02  0.80338979713E+02  0.00000000000E+00 0.  1.
         13    1    3    3    0    0 -0.19505253714E+02 -0.34647851675E+02  0.65515100060E+02  0.76636524478E+02  0.00000000000E+00 0. -1.
         -4    1    1    2    0  502 -0.56839290222E+02  0.78168063974E+00  0.11368336278E+03  0.12710319788E+03  0.00000000000E+00 0.  1.
<scales pt_clust_5="13000.00000" pt_clust_6="13000.00000" pt_clust_7="13000.00000" pt_clust_8="13000.00000" pt_clust_9="56.84466"></scales>
<clustering>
<clus scale="   56.845">  1  9  2 -1</clus>
<clus scale="   88.943">  5  6 -1 -1</clus>
<clus scale="   92.207">  7  8 -1 -1</clus>
<clus scale="  131.692">  1  5  2 -1</clus>
<clus scale="   56.845">  1  5  2 -1</clus>
</clustering>
</event>
<event>
 9    1  0.1464797E-005  0.1172201E+03  0.7546771E-02  0.1248866E+00
         -2   -1    0    0    0  501 -0.00000000000E+00  0.00000000000E+00  0.61015574038E+03  0.61015574038E+03  0.00000000000E+00 0.  1.
         21   -1    0    0  501  502  0.00000000000E+00 -0.00000000000E+00 -0.10651688077E+03  0.10651688077E+03  0.00000000000E+00 0.  1.
         23    2    1    2    0    0  0.78292771226E+02  0.33448202476E+01  0.44554119326E+03  0.46181667809E+03  0.92880263872E+02 0.  0.
         23    2    1    2    0    0 -0.44013096913E+02  0.67116728243E+02  0.10824560525E+03  0.16182507903E+03  0.89601547060E+02 0.  0.
        -13    1    3    3    0    0  0.44971843012E+01  0.34788729737E+02  0.76510829201E+02  0.84168802821E+02  0.00000000000E+00 0.  1.
         13    1    3    3    0    0  0.73795586924E+02 -0.31443909489E+02  0.36903036406E+03  0.37764787526E+03  0.00000000000E+00 0. -1.
        -13    1    4    4    0    0  0.81742693914E+01  0.24344101658E+02 -0.84426188080E+01  0.27032050939E+02  0.00000000000E+00 0. -1.
         13    1    4    4    0    0 -0.52187366304E+02  0.42772626585E+02  0.11668822406E+03  0.13479302809E+03  0.00000000000E+00 0.  1.
         -2    1    1    2    0  502 -0.34279674313E+02 -0.70461548491E+02 -0.50147938900E+02  0.93030864032E+02  0.00000000000E+00 0.  1.
<scales pt_clust_5="13000.00000" pt_clust_6="13000.00000" pt_clust_7="13000.00000" pt_clust_8="13000.00000" pt_clust_9="78.35768"></scales>
<clustering>
<clus scale="   78.358">  2  9  1 -1</clus>
<clus scale="   89.602">  7  8 -1 -1</clus>
<clus scale="   92.880">  5  6 -1 -1</clus>
<clus scale="  114.640">  2  7  1 -1</clus>
<clus scale="   78.358">  2  5  1 -1</clus>
</clustering>
</event>
<event>
 9    1  0.1464797E-005  0.9366799E+02  0.7546771E-02  0.1294673E+00
          1   -1    0    0  502    0 -0.00000000000E+00  0.00000000000E+00  0.38438652610E+03  0.38438652610E+03  0.00000000000E+00 0. -1.
         21   -1    0    0  501  502  0.00000000000E+00 -0.00000000000E+00 -0.60243679117E+02  0.60243679117E+02  0.00000000000E+00 0. -1.
         23    2    1    2    0    0  0.39685547706E+01  0.22721197675E+02  0.22385820614E+03  0.24271569287E+03  0.90919793540E+02 0.  0.
         23    2    1    2    0    0  0.41542782013E+02 -0.13047202511E+02  0.11564091348E+03  0.15291774645E+03  0.90083206418E+02 0.  0.
        -11    1    3    3    0    0  0.22326852046E+02  0.40712836646E+02  0.20660308516E+03  0.21175660129E+03  0.00000000000E+00 0. -1.
         11    1    3    3    0    0 -0.18358297275E+02 -0.17991638971E+02  0.17255120984E+02  0.30959091587E+02  0.00000000000E+00 0.  1.
        -13    1    4    4    0    0 -0.21816041322E+02  0.70469245998E+01  0.44195426289E+01  0.23348044079E+02  0.00000000000E+00 0.  1.
         13    1    4    4    0    0  0.63358823335E+02 -0.20094127111E+02  0.11122137085E+03  0.12956970237E+03  0.00000000000E+00 0. -1.
          1    1    1    2  501    0 -0.45511336783E+02 -0.96739951639E+01 -0.15356272645E+02  0.48996765891E+02  0.00000000000E+00 0. -1.
<scales pt_clust_5="13000.00000" pt_clust_6="13000.00000" pt_clust_7="13000.00000" pt_clust_8="13000.00000" pt_clust_9="46.52814"></scales>
<clustering>
<clus scale="   46.528">  2  9  1 -1</clus>
<clus scale="   90.083">  7  8 -1 -1</clus>
<clus scale="   90.920">  5  6 -1 -1</clus>
<clus scale="   92.856">  2  7  1 -1</clus>
<clus scale="   46.528">  2  5  1 -1</clus>
</clustering>
</event>
<event>
 9    1  0.1464797E-005  0.1370682E+03  0.7546771E-02  0.1217578E+00
         21   -1    0    0  501  502  0.00000000000E+00  0.00000000000E+00  0.19170394436E+03  0.19170394436E+03  0.00000000000E+00 0.  1.
          2   -1    0    0  502    0 -0.00000000000E+00 -0.00000000000E+00 -0.14833273559E+03  0.14833273559E+03  0.00000000000E+00 0. -1.
         23    2    1    2    0    0  0.72227486635E+02 -0.57813567737E+02 -0.75959665074E+01  0.13015523762E+03  0.91233046281E+02 0.  0.
         23    2    1    2    0    0 -0.70816222716E+02  0.10101208005E+03  0.62603887892E+02  0.16512078759E+03  0.90151261761E+02 0.  0.
        -11    1    3    3    0    0  0.83814149555E+02 -0.17876430603E+02 -0.17360882777E+02  0.87440143456E+02  0.00000000000E+00 0. -1.
         11    1    3    3    0    0 -0.11586662920E+02 -0.39937137134E+02  0.97649162696E+01  0.42715094169E+02  0.00000000000E+00 0.  1.
        -11    1    4    4    0    0 -0.86767228078E+02  0.55278970177E+02  0.31645643893E+02  0.10763718312E+03  0.00000000000E+00 0.  1.
         11    1    4    4    0    0  0.15951005361E+02  0.45733109878E+02  0.30958244000E+02  0.57483604469E+02  0.00000000000E+00 0. -1.
          2    1    1    2  501    0 -0.14112639194E+01 -0.43198512318E+02 -0.11636712620E+02  0.44760654742E+02  0.00000000000E+00 0. -1.
<scales pt_clust_5="13000.00000" pt_clust_6="13000.00000" pt_clust_7="13000.00000" pt_clust_8="13000.00000" pt_clust_9="43.22158"></scales>
<clustering>
<clus scale="   43.222">  1  9  2 -1</clus>
<clus scale="   90.151">  7  8 -1 -1</clus>
<clus scale="   91.233">  5  6 -1 -1</clus>
<clus scale="  136.351">  1  7  2 -1</clus>
<clus scale="   43.222">  1  5  2 -1</clus>
</clustering>
</event>
<event>
 9    1  0.1464797E-005  0.1071628E+03  0.7546771E-02  0.1268244E+00
         21   -1    0    0  501  502  0.00000000000E+00  0.00000000000E+00  0.41219722285E+02  0.41219722285E+02  0.00000000000E+00 0.  1.
          1   -1    0    0  502    0 -0.00000000000E+00 -0.00000000000E+00 -0.59681489987E+03  0.59681489987E+03  0.00000000000E+00 0. -1.
         23    2    1    2    0    0 -0.45641473042E+02 -0.22493621421E+01 -0.36155058155E+03  0.37480913278E+03  0.87606274319E+02 0.  0.
         23    2    1    2    0    0  0.83847793884E+02  0.23615821031E+02 -0.10969784394E+03  0.16819589869E+03  0.93102544697E+02 0.  0.
        -11    1    3    3    0    0  0.19880155250E+02  0.13578171101E+02 -0.43728146546E+02  0.49917312664E+02  0.00000000000E+00 0.  1.
         11    1    3    3    0    0 -0.65521628292E+02 -0.15827533243E+02 -0.31782243501E+03  0.32489182011E+03  0.00000000000E+00 0. -1.
        -13    1    4    4    0    0  0.52645327413E+02 -0.16666541864E+02 -0.10291372592E+03  0.11679271852E+03  0.00000000000E+00 0. -1.
         13    1    4    4    0    0  0.31202466471E+02  0.40282362895E+02 -0.67841180181E+01  0.51403180170E+02  0.00000000000E+00 0.  1.
          1    1    1    2  501    0 -0.38206320843E+02 -0.21366458889E+02 -0.84346752085E+02  0.95029590682E+02  0.00000000000E+00 0. -1.
<scales pt_clust_5="13000.00000" pt_clust_6="13000.00000" pt_clust_7="13000.00000" pt_clust_8="13000.00000" pt_clust_9="43.77500"></scales>
<clustering>
<clus scale="   43.775">  1  9  2 -1</clus>
<clus scale="   87.606">  5  6 -1 -1</clus>
<clus scale="   93.103">  7  8 -1 -1</clus>
<clus scale="  102.424">  2  5  1 -1</clus>
<clus scale="   43.775">  1  5  2 -1</clus>
</clustering>
</event>
<event>
 9    1  0.1464797E-005  0.9618793E+02  0.7546771E-02  0.1289258E+00
          1   -1    0    0  502    0 -0.00000000000E+00  0.00000000000E+00  0.15697797826E+03  0.15697797826E+03  0.00000000000E+00 0. -1.
         21   -1    0    0  501  502  0.00000000000E+00 -0.00000000000E+00 -0.87922068058E+02  0.87922068058E+02  0.00000000000E+00 0.  1.
         23    2    1    2    0    0 -0.11342880829E+02 -0.39895659880E+02  0.70746838701E+02  0.12112867289E+03  0.89144352531E+02 0.  0.
         23    2    1    2    0    0  0.18107128833E+02  0.97451616904E+01 -0.18969869892E+01  0.92870725334E+02  0.90545771704E+02 0.  0.
        -11    1    4    4    0    0  0.40815151201E+01 -0.39093985362E+02 -0.11928887035E+02  0.41076718505E+02  0.00000000000E+00 0.  1.
         11    1    4    4    0    0  0.14025613713E+02  0.48839147053E+02  0.10031900046E+02  0.51794006829E+02  0.00000000000E+00 0. -1.
        -13    1    3    3    0    0 -0.50317210147E+02 -0.22526935164E+02  0.46015331570E+02  0.71810132881E+02  0.00000000000E+00 0.  1.
         13    1    3    3    0    0  0.38974329318E+02 -0.17368724716E+02  0.24731507131E+02  0.49318540013E+02  0.00000000000E+00 0. -1.
          1    1    1    2  501    0 -0.67642480043E+01  0.30150498189E+02  0.20605848852E+00  0.30900648087E+02  0.00000000000E+00 0. -1.
<scales pt_clust_5="13000.00000" pt_clust_6="13000.00000" pt_clust_7="13000.00000" pt_clust_8="13000.00000" pt_clust_9="30.89996"></scales>
<clustering>
<clus scale="   30.900">  2  9  1 -1</clus>
<clus scale="   89.144">  7  8 -1 -1</clus>
<clus scale="   90.546">  5  6 -1 -1</clus>
<clus scale="   94.870">  1  7  2 -1</clus>
<clus scale="   30.900">  2  5  1 -1</clus>
</clustering>
</event>
<event>
 9    1  0.1464797E-005  0.1668133E+03  0.7546771E-02  0.1209588E+00
          1   -1    0    0  502    0 -0.00000000000E+00  0.00000000000E+00  0.13374500880E+04  0.13374500880E+04  0.00000000000E+00 0. -1.
         21   -1    0    0  501  502  0.00000000000E+00 -0.00000000000E+00 -0.35472083521E+02  0.35472083521E+02  0.00000000000E+00 0. -1.
         23    2    1    2    0    0  0.17129397967E+02  0.21843709287E+01  0.27344361555E+03  0.28775653556E+03  0.87944443383E+02 0.  0.
         23    2    1    2    0    0 -0.15248141452E+03 -0.75964367635E+01  0.79950051023E+03  0.81907171188E+03  0.91482871127E+02 0.  0.
        -11    1    3    3    0    0  0.52855780746E+02 -0.39280230696E+01  0.14923053479E+03  0.15836323890E+03  0.00000000000E+00 0.  1.
         11    1    3    3    0    0 -0.35726382780E+02  0.61123939983E+01  0.12421308077E+03  0.12939329666E+03  0.00000000000E+00 0. -1.
        -13    1    4    4    0    0 -0.98986173946E+02  0.32507131290E+02  0.59101999074E+03  0.60013298999E+03  0.00000000000E+00 0. -1.
         13    1    4    4    0    0 -0.53495240574E+02 -0.40103568053E+02  0.20848051949E+03  0.21893872189E+03  0.00000000000E+00 0.  1.
          1    1    1    2  501    0  0.13535201655E+03  0.54120658348E+01  0.22903387868E+03  0.26609392406E+03  0.00000000000E+00 0. -1.
<scales pt_clust_5="13000.00000" pt_clust_6="13000.00000" pt_clust_7="13000.00000" pt_clust_8="13000.00000" pt_clust_9="139.49036"></scales>
<clustering>
<clus scale="   87.944">  5  6 -1 -1</clus>
<clus scale="   89.624">  1  5  2 -1</clus>
<clus scale="   91.483">  7  8 -1 -1</clus>
<clus scale="  139.490">  2  9  1 -1</clus>
<clus scale="  139.490">  2  5  1 -1</clus>
</clustering>
</event>
<event>
 9    1  0.1464797E-005  0.1047808E+03  0.7546771E-02  0.1271137E+00
         21   -1    0    0  501  502  0.00000000000E+00  0.00000000000E+00  0.47367736287E+02  0.47367736287E+02  0.00000000000E+00 0. -1.
         -1   -1    0    0    0  501 -0.00000000000E+00 -0.00000000000E+00 -0.50498078553E+03  0.50498078553E+03  0.00000000000E+00 0.  1.
         23    2    1    2    0    0 -0.14856148922E+01  0.47453099649E+02 -0.36902374108E+03  0.38306891410E+03  0.91155185016E+02 0.  0.
         23    2    1    2    0    0 -0.14542173245E+02 -0.68596573224E+02 -0.85746609017E+02  0.14259595343E+03  0.89800669912E+02 0.  0.
        -13    1    3    3    0    0 -0.28871098134E+02  0.63359277203E+02 -0.22156619976E+03  0.23224883033E+03  0.00000000000E+00 0. -1.
         13    1    3    3    0    0  0.27385483242E+02 -0.15906177554E+02 -0.14745754132E+03  0.15082008377E+03  0.00000000000E+00 0.  1.
        -13    1    4    4    0    0 -0.39870962275E+02 -0.67016510678E+01 -0.10192478599E+02  0.41695232099E+02  0.00000000000E+00 0. -1.
         13    1    4    4    0    0  0.25328789030E+02 -0.61894922156E+02 -0.75554130418E+02  0.10090072133E+03  0.00000000000E+00 0.  1.
         -1    1    1    2    0  502  0.16027788137E+02  0.21143473575E+02 -0.28426991494E+01  0.26683654282E+02  0.00000000000E+00 0.  1.
<scales pt_clust_5="13000.00000" pt_clust_6="13000.00000" pt_clust_7="13000.00000" pt_clust_8="13000.00000" pt_clust_9="26.53180"></scales>
<clustering>
<clus scale="   26.532">  1  9  2 -1</clus>
<clus scale="   89.801">  7  8 -1 -1</clus>
<clus scale="   91.155">  5  6 -1 -1</clus>
<clus scale="  103.605">  1  7  2 -1</clus>
<clus scale="   26.532">  1  5  2 -1</clus>
</clustering>
</event>
<event>
 9    1  0.1464797E-005  0.9121732E+02  0.7546771E-02  0.1299975E+00
         21   -1    0    0  501  502  0.00000000000E+00  0.00000000000E+00  0.10181619077E+03  0.10181619077E+03  0.00000000000E+00 0.  1.
          1   -1    0    0  502    0 -0.00000000000E+00 -0.00000000000E+00 -0.23791223423E+03  0.23791223423E+03  0.00000000000E+00 0. -1.
         23    2    1    2    0    0 -0.18448352628E+02 -0.21365086889E+01 -0.16089426337E+03  0.18544692228E+03  0.90325470452E+02 0.  0.
         23    2    1    2    0    0 -0.22803823916E+02  0.26790268494E+02 -0.60185501928E+01  0.97191895419E+02  0.90400822549E+02 0.  0.
        -11    1    3    3    0    0  0.16613485690E+02 -0.33405147798E+02 -0.11014002106E+03  0.11628729959E+03  0.00000000000E+00 0. -1.
         11    1    3    3    0    0 -0.35061838319E+02  0.31268639109E+02 -0.50754242308E+02  0.69159622687E+02  0.00000000000E+00 0.  1.
        -11    1    4    4    0    0 -0.34282484429E+02  0.51666898016E+02  0.13618516162E+02  0.63484022176E+02  0.00000000000E+00 0.  1.
         11    1    4    4    0    0  0.11478660513E+02 -0.24876629522E+02 -0.19637066354E+02  0.33707873243E+02  0.00000000000E+00 0. -1.
          1    1    1    2  501    0  0.41252176544E+02 -0.24653759806E+02  0.30816770108E+02  0.57089607304E+02  0.00000000000E+00 0. -1.
<scales pt_clust_5="13000.00000" pt_clust_6="13000.00000" pt_clust_7="13000.00000" pt_clust_8="13000.00000" pt_clust_9="48.05778"></scales>
<clustering>
<clus scale="   48.058">  1  9  2 -1</clus>
<clus scale="   90.325">  5  6 -1 -1</clus>
<clus scale="   90.401">  7  8 -1 -1</clus>
<clus scale="   91.143">  2  5  1 -1</clus>
<clus scale="   48.058">  1  5  2 -1</clus>
</clustering>
</event>
<event>
 9    1  0.1464797E-005  0.1006354E+03  0.7546771E-02  0.1278998E+00
          1   -1    0    0  502    0 -0.00000000000E+00  0.00000000000E+00  0.61656415750E+03  0.61656415750E+03  0.00000000000E+00 0. -1.
         21   -1    0    0  501  502  0.00000000000E+00 -0.00000000000E+00 -0.43798721557E+02  0.43798721557E+02  0.00000000000E+00 0.  1.
         23    2    1    2    0    0 -0.28565934060E+02 -0.23033788697E+02  0.44242188132E+03  0.45326621427E+03  0.91468966963E+02 0.  0.
         23    2    1    2    0    0  0.71084047595E+02  0.15605099533E+02  0.10474932030E+03  0.15691658674E+03  0.91399858529E+02 0.  0.
        -13    1    4    4    0    0  0.49004871493E+02  0.35935374874E+02  0.15440738967E+02  0.62699641285E+02  0.00000000000E+00 0.  1.
         13    1    4    4    0    0  0.22079176102E+02 -0.20330275341E+02  0.89308581329E+02  0.94216945460E+02  0.00000000000E+00 0. -1.
        -13    1    3    3    0    0  0.28406384776E+02  0.12135474235E+02  0.11554177081E+03  0.11959972087E+03  0.00000000000E+00 0.  1.
         13    1    3    3    0    0 -0.56972318836E+02 -0.35169262931E+02  0.32688011051E+03  0.33366649340E+03  0.00000000000E+00 0. -1.
          1    1    1    2  501    0 -0.42518113535E+02  0.74286891642E+01  0.25594234322E+02  0.50180078038E+02  0.00000000000E+00 0. -1.
<scales pt_clust_5="13000.00000" pt_clust_6="13000.00000" pt_clust_7="13000.00000" pt_clust_8="13000.00000" pt_clust_9="43.16220"></scales>
<clustering>
<clus scale="   43.162">  2  9  1 -1</clus>
<clus scale="   91.400">  5  6 -1 -1</clus>
<clus scale="   91.469">  7  8 -1 -1</clus>
<clus scale="  100.573">  2  5  1 -1</clus>
<clus scale="   43.162">  2  5  1 -1</clus>
</clustering>
</event>
<event>
 9    1  0.1464797E-005  0.1326896E+03  0.7546771E-02  0.1224588E+00
          1   -1    0    0  502    0 -0.00000000000E+00  0.00000000000E+00  0.25935185684E+03  0.25935185684E+03  0.00000000000E+00 0. -1.
         21   -1    0    0  501  502  0.00000000000E+00 -0.00000000000E+00 -0.16899889445E+03  0.16899889445E+03  0.00000000000E+00 0. -1.
         23    2    1    2    0    0 -0.54936442914E+02 -0.65763333786E+02  0.12687087252E+03  0.17841451434E+03  0.91611635722E+02 0.  0.
         23    2    1    2    0    0  0.83518781777E+02  0.81664097329E+02  0.52577808435E+02  0.15502664080E+03  0.87317934674E+02 0.  0.
        -11    1    4    4    0    0  0.34664767737E+02  0.16490725508E+02 -0.22294173924E+02  0.44391669725E+02  0.00000000000E+00 0.  1.
         11    1    4    4    0    0  0.48854014041E+02  0.65173371821E+02  0.74871982359E+02  0.11063497107E+03  0.00000000000E+00 0. -1.
        -11    1    3    3    0    0 -0.36680552050E+02 -0.19964387928E+01  0.17221436291E+01  0.36775187902E+02  0.00000000000E+00 0.  1.
         11    1    3    3    0    0 -0.18255890864E+02 -0.63766894993E+02  0.12514872890E+03  0.14163932643E+03  0.00000000000E+00 0. -1.
          1    1    1    2  501    0 -0.28582338863E+02 -0.15900763543E+02 -0.89095718561E+02  0.94909596154E+02  0.00000000000E+00 0. -1.
<scales pt_clust_5="13000.00000" pt_clust_6="13000.00000" pt_clust_7="13000.00000" pt_clust_8="13000.00000" pt_clust_9="32.70756"></scales>
<clustering>
<clus scale="   32.708">  2  9  1 -1</clus>
<clus scale="   87.318">  5  6 -1 -1</clus>
<clus scale="   91.612">  7  8 -1 -1</clus>
<clus scale="  129.762">  2  5  1 -1</clus>
<clus scale="   32.708">  2  5  1 -1</clus>
</clustering>
</event>
<event>
 9    1  0.1464797E-005  0.1774016E+03  0.7546771E-02  0.1170474E+00
         21   -1    0    0  501  502  0.00000000000E+00  0.00000000000E+00  0.39507329678E+03  0.39507329678E+03  0.00000000000E+00 0.  1.
          2   -1    0    0  502    0 -0.00000000000E+00 -0.00000000000E+00 -0.18304830247E+03  0.18304830247E+03  0.00000000000E+00 0.  1.
         23    2    1    2    0    0  0.14491159668E+03  0.42300317504E+02 -0.74168249672E+02  0.19112381077E+03  0.90767252200E+02 0.  0.
         23    2    1    2    0    0 -0.14113843062E+03 -0.73283146495E+02  0.30089224536E+03  0.35249803317E+03  0.91805467778E+02 0.  0.
        -13    1    3    3    0    0  0.23092023590E+02  0.29095771114E+02  0.14498694068E+02  0.39875024513E+02  0.00000000000E+00 0. -1.
         13    1    3    3    0    0  0.12181957309E+03  0.13204546389E+02 -0.88666943740E+02  0.15124878626E+03  0.00000000000E+00 0.  1.
        -13    1    4    4    0    0 -0.64893050316E+02 -0.55273735097E+02  0.23549037796E+03  0.25044363015E+03  0.00000000000E+00 0.  1.
         13    1    4    4    0    0 -0.76245380305E+02 -0.18009411398E+02  0.65401867399E+02  0.10205440302E+03  0.00000000000E+00 0. -1.
          2    1    1    2  501    0 -0.37731660552E+01  0.30982828991E+02 -0.14699001376E+02  0.34499755301E+02  0.00000000000E+00 0.  1.
<scales pt_clust_5="13000.00000" pt_clust_6="13000.00000" pt_clust_7="13000.00000" pt_clust_8="13000.00000" pt_clust_9="31.21175"></scales>
<clustering>
<clus scale="   31.212">  1  9  2 -1</clus>
<clus scale="   90.767">  5  6 -1 -1</clus>
<clus scale="   91.805">  7  8 -1 -1</clus>
<clus scale="  176.867">  2  5  1 -1</clus>
<clus scale="   31.212">  1  5  2 -1</clus>
</clustering>
</event>
<event>
 9    1  0.1464797E-005  0.1024149E+03  0.7546771E-02  0.1278385E+00
          3   -1    0    0  502    0 -0.00000000000E+00  0.00000000000E+00  0.99762891122E+02  0.99762891122E+02  0.00000000000E+00 0. -1.
         21   -1    0    0  501  502  0.00000000000E+00 -0.00000000000E+00 -0.30198034190E+03  0.30198034190E+03  0.00000000000E+00 0. -1.
         23    2    1    2    0    0  0.27607603268E+02  0.30719421267E+02  0.48076391619E+02  0.11213873880E+03  0.92508889883E+02 0.  0.
         23    2    1    2    0    0 -0.16535426715E+02 -0.65288943307E+02 -0.19392338734E+03  0.22255769601E+03  0.85962674686E+02 0.  0.
        -11    1    3    3    0    0 -0.14251885758E+02  0.51988982089E+02  0.20415231464E+02  0.57643318624E+02  0.00000000000E+00 0.  1.
         11    1    3    3    0    0  0.41859489026E+02 -0.21269560822E+02  0.27661160156E+02  0.54495420177E+02  0.00000000000E+00 0. -1.
        -13    1    4    4    0    0 -0.38528144323E+02 -0.28083017519E+02 -0.16188010798E+03  0.16875497959E+03  0.00000000000E+00 0. -1.
         13    1    4    4    0    0  0.21992717607E+02 -0.37205925787E+02 -0.32043279367E+02  0.53802716419E+02  0.00000000000E+00 0.  1.
          3    1    1    2  501    0 -0.11072176553E+02  0.34569522040E+02 -0.56370455055E+02  0.67046798214E+02  0.00000000000E+00 0. -1.
<scales pt_clust_5="13000.00000" pt_clust_6="13000.00000" pt_clust_7="13000.00000" pt_clust_8="13000.00000" pt_clust_9="36.29938"></scales>
<clustering>
<clus scale="   36.299">  2  9  1 -1</clus>
<clus scale="   85.963">  7  8 -1 -1</clus>
<clus scale="   92.509">  5  6 -1 -1</clus>
<clus scale="   96.543">  2  7  1 -1</clus>
<clus scale="   36.299">  2  5  1 -1</clus>
</clustering>
</event>
<event>
 9    1  0.1464797E-005  0.2648182E+03  0.7546771E-02  0.1104298E+00
          2   -1    0    0  502    0 -0.00000000000E+00  0.00000000000E+00  0.20119609230E+04  0.20119609230E+04  0.00000000000E+00 0. -1.
         21   -1    0    0  501  502  0.00000000000E+00 -0.00000000000E+00 -0.68726089647E+02  0.68726089647E+02  0.00000000000E+00 0. -1.
         23    2    1    2    0    0  0.18470988608E+03 -0.39518369373E+02  0.55186187996E+03  0.59050354214E+03  0.91997039044E+02 0.  0.
         23    2    1    2    0    0 -0.29608529131E+03  0.90776993777E+02  0.12936436910E+04  0.13333940059E+04  0.92296335215E+02 0.  0.
        -11    1    4    4    0    0 -0.17396713087E+03  0.63397615072E+01  0.73847006746E+03  0.75871127297E+03  0.00000000000E+00 0.  1.
         11    1    4    4    0    0 -0.12211816044E+03  0.84437232270E+02  0.55517362355E+03  0.57468273298E+03  0.00000000000E+00 0. -1.
        -11    1    3    3    0    0  0.11959260152E+03 -0.20438709019E+02  0.46337139615E+03  0.47899183911E+03  0.00000000000E+00 0. -1.
         11    1    3    3    0    0  0.65117284557E+02 -0.19079660353E+02  0.88490483808E+02  0.11151170303E+03  0.00000000000E+00 0.  1.
          2    1    1    2  501    0  0.11137540523E+03 -0.51258624405E+02  0.97729262356E+02  0.15678946453E+03  0.00000000000E+00 0. -1.
<scales pt_clust_5="13000.00000" pt_clust_6="13000.00000" pt_clust_7="13000.00000" pt_clust_8="13000.00000" pt_clust_9="122.60476"></scales>
<clustering>
<clus scale="   91.997">  7  8 -1 -1</clus>
<clus scale="   92.296">  5  6 -1 -1</clus>
<clus scale="  122.605">  2  9  1 -1</clus>
<clus scale="  264.714">  1  7  2 -1</clus>
<clus scale="  122.605">  2  5  1 -1</clus>
</clustering>
</event>
<event>
 9    1  0.1464797E-005  0.1013854E+03  0.7546771E-02  0.1277739E+00
         -4   -1    0    0    0  501 -0.00000000000E+00  0.00000000000E+00  0.10970975842E+03  0.10970975842E+03  0.00000000000E+00 0. -1.
         21   -1    0    0  501  502  0.00000000000E+00 -0.00000000000E+00 -0.12366324420E+03  0.12366324420E+03  0.00000000000E+00 0.  1.
         23    2    1    2    0    0  0.29438107786E+02  0.34648176019E+02  0.47816688124E+01  0.10227934794E+03  0.91493728563E+02 0.  0.
         23    2    1    2    0    0 -0.43136594440E+02 -0.13963214552E+02 -0.26277828925E+01  0.10151387121E+03  0.90787794685E+02 0.  0.
        -13    1    3    3    0    0 -0.27701747911E+02  0.12248002880E+02  0.23254310707E+02  0.38185905493E+02  0.00000000000E+00 0.  1.
         13    1    3    3    0    0  0.57139855697E+02  0.22400173139E+02 -0.18472641895E+02  0.64093442444E+02  0.00000000000E+00 0. -1.
        -13    1    4    4    0    0 -0.33821093317E+00 -0.38231365128E+02  0.24422956459E+02  0.45367747006E+02  0.00000000000E+00 0. -1.
         13    1    4    4    0    0 -0.42798383507E+02  0.24268150576E+02 -0.27050739352E+02  0.56146124200E+02  0.00000000000E+00 0.  1.
         -4    1    1    2    0  502  0.13698486654E+02 -0.20684961466E+02 -0.16107371700E+02  0.29579783477E+02  0.00000000000E+00 0. -1.
<scales pt_clust_5="13000.00000" pt_clust_6="13000.00000" pt_clust_7="13000.00000" pt_clust_8="13000.00000" pt_clust_9="24.80960"></scales>
<clustering>
<clus scale="   24.810">  2  9  1 -1</clus>
<clus scale="   90.788">  7  8 -1 -1</clus>
<clus scale="   91.494">  5  6 -1 -1</clus>
<clus scale="  100.749">  2  7  1 -1</clus>
<clus scale="   24.810">  2  5  1 -1</clus>
</clustering>
</event>
<event>
 9    1  0.1464797E-005  0.1073620E+03  0.7546771E-02  0.1268313E+00
         21   -1    0    0  501  502  0.00000000000E+00  0.00000000000E+00  0.15702605187E+03  0.15702605187E+03  0.00000000000E+00 0.  1.
          3   -1    0    0  502    0 -0.00000000000E+00 -0.00000000000E+00 -0.93471747036E+02  0.93471747036E+02  0.00000000000E+00 0. -1.
         23    2    1    2    0    0  0.12403680037E+02 -0.44230920953E+02  0.41044864478E+01  0.10049513166E+03  0.89287171713E+02 0.  0.
         23    2    1    2    0    0  0.11080933759E+02  0.55403239170E+02  0.42485684309E+02  0.11895223045E+03  0.95667621249E+02 0.  0.
        -11    1    4    4    0    0  0.42468886656E+02 -0.42907039417E+01  0.88745190924E+01  0.43597861912E+02  0.00000000000E+00 0. -1.
         11    1    4    4    0    0 -0.31387952898E+02  0.59693943111E+02  0.33611165216E+02  0.75354368543E+02  0.00000000000E+00 0.  1.
        -13    1    3    3    0    0 -0.33166875477E+01 -0.69658691253E+02 -0.28731941296E+01  0.69796768749E+02  0.00000000000E+00 0. -1.
         13    1    3    3    0    0  0.15720367585E+02  0.25427770300E+02  0.69776805773E+01  0.30698362915E+02  0.00000000000E+00 0.  1.
          3    1    1    2  501    0 -0.23484613796E+02 -0.11172318217E+02  0.16964134074E+02  0.31050436782E+02  0.00000000000E+00 0. -1.
<scales pt_clust_5="13000.00000" pt_clust_6="13000.00000" pt_clust_7="13000.00000" pt_clust_8="13000.00000" pt_clust_9="26.00669"></scales>
<clustering>
<clus scale="   26.007">  1  9  2 -1</clus>
<clus scale="   89.287">  7  8 -1 -1</clus>
<clus scale="   95.668">  5  6 -1 -1</clus>
<clus scale="  101.718">  2  7  1 -1</clus>
<clus scale="   26.007">  1  5  2 -1</clus>
</clustering>
</event>
<event>
 9    1  0.1464797E-005  0.9465451E+02  0.7546771E-02  0.1295092E+00
         -1   -1    0    0    0  501 -0.00000000000E+00  0.00000000000E+00  0.11289771765E+03  0.11289771765E+03  0.00000000000E+00 0.  1.
         21   -1    0    0  501  502  0.00000000000E+00 -0.00000000000E+00 -0.18063569087E+03  0.18063569087E+03  0.00000000000E+00 0. -1.
         23    2    1    2    0    0 -0.35362186348E+01  0.20087803867E+02  0.66036965243E+02  0.11615873587E+03  0.93359233251E+02 0.  0.
         23    2    1    2    0    0  0.15189413644E+01  0.79249475855E+01 -0.10471049002E+03  0.13695777253E+03  0.87909230227E+02 0.  0.
        -13    1    4    4    0    0  0.32231969663E+02  0.21690844644E+02 -0.15891006248E+02  0.41975191355E+02  0.00000000000E+00 0.  1.
         13    1    4    4    0    0 -0.30713028298E+02 -0.13765897058E+02 -0.88819483775E+02  0.94982581178E+02  0.00000000000E+00 0. -1.
        -13    1    3    3    0    0  0.44108650292E+01  0.40748563388E+02  0.80068909032E+02  0.89949604458E+02  0.00000000000E+00 0.  1.
         13    1    3    3    0    0 -0.79470836640E+01 -0.20660759520E+02 -0.14031943789E+02  0.26209131409E+02  0.00000000000E+00 0. -1.
         -1    1    1    2    0  502  0.20172772704E+01 -0.28012751453E+02 -0.29064448440E+02  0.40416900112E+02  0.00000000000E+00 0.  1.
<scales pt_clust_5="13000.00000" pt_clust_6="13000.00000" pt_clust_7="13000.00000" pt_clust_8="13000.00000" pt_clust_9="28.08529"></scales>
<clustering>
<clus scale="   28.085">  2  9  1 -1</clus>
<clus scale="   87.909">  5  6 -1 -1</clus>
<clus scale="   89.284">  2  5  1 -1</clus>
<clus scale="   93.359">  7  8 -1 -1</clus>
<clus scale="   28.085">  2  5  1 -1</clus>
</clustering>
</event>
<event>
 9    1  0.1464797E-005  0.9612772E+02  0.7546771E-02  0.1289795E+00
          1   -1    0    0  502    0 -0.00000000000E+00  0.00000000000E+00  0.81951747701E+02  0.81951747701E+02  0.00000000000E+00 0. -1.
         21   -1    0    0  501  502  0.00000000000E+00 -0.00000000000E+00 -0.32188714990E+03  0.32188714990E+03  0.00000000000E+00 0. -1.
         23    2    1    2    0    0  0.14759521644E+02 -0.38695549041E+00  0.22190980129E+01  0.93588578213E+02  0.92389958124E+02 0.  0.
         23    2    1    2    0    0 -0.38355523537E+02  0.65719500815E+02 -0.11209509042E+03  0.16280350572E+03  0.90274432744E+02 0.  0.
        -11    1    3    3    0    0 -0.36211007014E+02 -0.43484637778E+01  0.17187407430E+02  0.40318149020E+02  0.00000000000E+00 0. -1.
         11    1    3    3    0    0  0.50970528658E+02  0.39615082874E+01 -0.14968309417E+02  0.53270429193E+02  0.00000000000E+00 0.  1.
        -13    1    4    4    0    0 -0.60031438320E+02  0.22358154400E+02 -0.38694530801E+02  0.74839343722E+02  0.00000000000E+00 0. -1.
         13    1    4    4    0    0  0.21675914783E+02  0.43361346415E+02 -0.73400559617E+02  0.87964162002E+02  0.00000000000E+00 0.  1.
          1    1    1    2  501    0  0.23596001893E+02 -0.65332545325E+02 -0.13005940979E+03  0.14744681367E+03  0.00000000000E+00 0. -1.
<scales pt_clust_5="13000.00000" pt_clust_6="13000.00000" pt_clust_7="13000.00000" pt_clust_8="13000.00000" pt_clust_9="69.46303"></scales>
<clustering>
<clus scale="   69.463">  2  9  1 -1</clus>
<clus scale="   90.274">  7  8 -1 -1</clus>
<clus scale="   92.390">  5  6 -1 -1</clus>
<clus scale="   94.096">  2  7  1 -1</clus>
<clus scale="   69.463">  2  5  1 -1</clus>
</clustering>
</event>
<event>
 9    1  0.1464797E-005  0.1595500E+03  0.7546771E-02  0.1206488E+00
         21   -1    0    0  501  502  0.00000000000E+00  0.00000000000E+00  0.20526021034E+03  0.20526021034E+03  0.00000000000E+00 0. -1.
          1   -1    0    0  502    0 -0.00000000000E+00 -0.00000000000E+00 -0.30410045259E+03  0.30410045259E+03  0.00000000000E+00 0. -1.
         23    2    1    2    0    0  0.52435235634E+02  0.29755926248E+02  0.60573641998E+02  0.12510599943E+03  0.91364522139E+02 0.  0.
         23    2    1    2    0    0 -0.13644027425E+03  0.64098685533E+02 -0.18414999169E+03  0.25589030054E+03  0.94042737888E+02 0.  0.
        -11    1    3    3    0    0  0.19674640186E+02  0.55171918548E+01  0.78111485447E+02  0.80739922165E+02  0.00000000000E+00 0. -1.
         11    1    3    3    0    0  0.32760595447E+02  0.24238734394E+02 -0.17537843449E+02  0.44366077265E+02  0.00000000000E+00 0.  1.
        -13    1    4    4    0    0 -0.16679264639E+02  0.54428957846E+02 -0.69220526154E+02  0.89622489154E+02  0.00000000000E+00 0.  1.
         13    1    4    4    0    0 -0.11976100961E+03  0.96697276868E+01 -0.11492946553E+03  0.16626781139E+03  0.00000000000E+00 0. -1.
          1    1    1    2  501    0  0.84005038618E+02 -0.93854611781E+02  0.24736107440E+02  0.12836436296E+03  0.00000000000E+00 0. -1.
<scales pt_clust_5="13000.00000" pt_clust_6="13000.00000" pt_clust_7="13000.00000" pt_clust_8="13000.00000" pt_clust_9="128.88815"></scales>
<clustering>
<clus scale="   91.365">  5  6 -1 -1</clus>
<clus scale="   94.043">  7  8 -1 -1</clus>
<clus scale="  109.464">  2  5  1 -1</clus>
<clus scale="  128.888">  1  9  2 -1</clus>
<clus scale="  128.888">  1  5  2 -1</clus>
</clustering>
</event>
<event>
 9    1  0.1464797E-005  0.1063471E+03  0.7546771E-02  0.1268550E+00
          1   -1    0    0  502    0 -0.00000000000E+00  0.00000000000E+00  0.79822611303E+03  0.79822611303E+03  0.00000000000E+00 0. -1.
         21   -1    0    0  501  502  0.00000000000E+00 -0.00000000000E+00 -0.54046888125E+02  0.54046888125E+02  0.00000000000E+00 0. -1.
         23    2    1    2    0    0 -0.48993598512E+02  0.51324294012E+02  0.54314364158E+03  0.55320054262E+03  0.77403288742E+02 0.  0.
         23    2    1    2    0    0  0.95046507483E+02  0.13351534782E+02  0.17574347791E+03  0.21574464895E+03  0.80298701464E+02 0.  0.
        -11    1    4    4    0    0  0.50127978007E+02 -0.25547100384E+02  0.12694650161E+03  0.13885561849E+03  0.00000000000E+00 0.  1.
         11    1    4    4    0    0  0.44918529476E+02  0.38898635166E+02  0.48796976304E+02  0.76889030457E+02  0.00000000000E+00 0. -1.
        -13    1    3    3    0    0 -0.21220215678E+02 -0.19445300390E+02  0.13448028879E+03  0.13752587151E+03  0.00000000000E+00 0.  1.
         13    1    3    3    0    0 -0.27773382833E+02  0.70769594403E+02  0.40866335279E+03  0.41567467111E+03  0.00000000000E+00 0. -1.
          1    1    1    2  501    0 -0.46052908972E+02 -0.64675828795E+02  0.25292105415E+02  0.83327809592E+02  0.00000000000E+00 0. -1.
<scales pt_clust_5="13000.00000" pt_clust_6="13000.00000" pt_clust_7="13000.00000" pt_clust_8="13000.00000" pt_clust_9="79.39668"></scales>
<clustering>
<clus scale="   77.403">  7  8 -1 -1</clus>
<clus scale="   79.397">  2  9  1 -1</clus>
<clus scale="   80.299">  5  6 -1 -1</clus>
<clus scale="  104.178">  1  7  2 -1</clus>
<clus scale="   79.397">  2  5  1 -1</clus>
</clustering>
</event>
<event>
 9    1  0.1464797E-005  0.1217122E+03  0.7546771E-02  0.1240994E+00
         21   -1    0    0  501  502  0.00000000000E+00  0.00000000000E+00  0.60048526933E+03  0.60048526933E+03  0.00000000000E+00 0. -1.
          1   -1    0    0  502    0 -0.00000000000E+00 -0.00000000000E+00 -0.38166794523E+02  0.38166794523E+02  0.00000000000E+00 0. -1.
         23    2    1    2    0    0 -0.48262590678E+02  0.33455602555E+02  0.18696452350E+03  0.21623404030E+03  0.91394048691E+02 0.  0.
         23    2    1    2    0    0  0.90075130754E+02 -0.63338516326E+02  0.25867229898E+03  0.29491945481E+03  0.89111333353E+02 0.  0.
        -11    1    4    4    0    0  0.14039558330E+02 -0.47150983924E+02  0.41874161218E+02  0.64604720112E+02  0.00000000000E+00 0. -1.
         11    1    4    4    0    0  0.76035572425E+02 -0.16187532402E+02  0.21679813776E+03  0.23031473469E+03  0.00000000000E+00 0.  1.
        -13    1    3    3    0    0 -0.71649248820E+01  0.23451592118E+02 -0.23503549517E-01  0.24521702100E+02  0.00000000000E+00 0.  1.
         13    1    3    3    0    0 -0.41097665796E+02  0.10004010436E+02  0.18698802705E+03  0.19171233820E+03  0.00000000000E+00 0. -1.
          1    1    1    2  501    0 -0.41812540076E+02  0.29882913771E+02  0.11668165233E+03  0.12749856875E+03  0.00000000000E+00 0. -1.
<scales pt_clust_5="13000.00000" pt_clust_6="13000.00000" pt_clust_7="13000.00000" pt_clust_8="13000.00000" pt_clust_9="51.39336"></scales>
<clustering>
<clus scale="   51.393">  1  9  2 -1</clus>
<clus scale="   89.111">  5  6 -1 -1</clus>
<clus scale="   91.394">  7  8 -1 -1</clus>
<clus scale="  120.008">  1  5  2 -1</clus>
<clus scale="   51.393">  1  5  2 -1</clus>
</clustering>
</event>
<event>
 9    1  0.1464797E-005  0.1127464E+03  0.7546771E-02  0.1257803E+00
         21   -1    0    0  501  502  0.00000000000E+00  0.00000000000E+00  0.78722587394E+02  0.78722587394E+02  0.00000000000E+00 0. -1.
          2   -1    0    0  502    0 -0.00000000000E+00 -0.00000000000E+00 -0.34313979864E+03  0.34313979864E+03  0.00000000000E+00 0. -1.
         23    2    1    2    0    0  0.48950130580E+02  0.29957231281E+02 -0.16521674658E+03  0.19655722658E+03  0.89691799974E+02 0.  0.
         23    2    1    2    0    0 -0.31334960521E+02 -0.61829907667E+02 -0.13146084711E+03  0.17665442470E+03  0.95498765479E+02 0.  0.
        -11    1    4    4    0    0  0.13028947081E+02  0.20296560864E+02 -0.34196154504E+02  0.41845917696E+02  0.00000000000E+00 0. -1.
         11    1    4    4    0    0 -0.44363907602E+02 -0.82126468531E+02 -0.97264692608E+02  0.13480850700E+03  0.00000000000E+00 0.  1.
        -11    1    3    3    0    0  0.72156891572E+02  0.37594401665E+02 -0.13590793138E+03  0.15840114220E+03  0.00000000000E+00 0. -1.
         11    1    3    3    0    0 -0.23206760993E+02 -0.76371703841E+01 -0.29308815198E+02  0.38156084385E+02  0.00000000000E+00 0.  1.
          2    1    1    2  501    0 -0.17615170059E+02  0.31872676385E+02  0.32260382448E+02  0.48650734751E+02  0.00000000000E+00 0. -1.
<scales pt_clust_5="13000.00000" pt_clust_6="13000.00000" pt_clust_7="13000.00000" pt_clust_8="13000.00000" pt_clust_9="36.41650"></scales>
<clustering>
<clus scale="   36.417">  1  9  2 -1</clus>
<clus scale="   89.692">  7  8 -1 -1</clus>
<clus scale="   95.499">  5  6 -1 -1</clus>
<clus scale="  107.872">  2  7  1 -1</clus>
<clus scale="   36.417">  1  5  2 -1</clus>
</clustering>
</event>
<event>
 9    1  0.1464797E-005  0.2138400E+03  0.7546771E-02  0.1138987E+00
          1   -1    0    0  502    0 -0.00000000000E+00  0.00000000000E+00  0.76168970737E+03  0.76168970737E+03  0.00000000000E+00 0. -1.
         21   -1    0    0  501  502  0.00000000000E+00 -0.00000000000E+00 -0.16797996933E+03  0.16797996933E+03  0.00000000000E+00 0.  1.
         23    2    1    2    0    0  0.11857380843E+03 -0.14088499111E+03  0.49403974214E+03  0.53505418129E+03  0.91100940373E+02 0.  0.
         23    2    1    2    0    0 -0.20306790017E+03  0.13471421919E+03 -0.24106645690E+01  0.26195882876E+03  0.96083941068E+02 0.  0.
        -11    1    4    4    0    0 -0.94314905136E+02  0.54294444469E+02 -0.48390131707E+02  0.11909992812E+03  0.00000000000E+00 0.  1.
         11    1    4    4    0    0 -0.10875299503E+03  0.80419774718E+02  0.45979467138E+02  0.14285890064E+03  0.00000000000E+00 0. -1.
        -13    1    3    3    0    0  0.95261603755E+02 -0.42793038162E+02  0.26283131563E+03  0.28281852439E+03  0.00000000000E+00 0. -1.
         13    1    3    3    0    0  0.23312204674E+02 -0.98091952950E+02  0.23120842651E+03  0.25223565690E+03  0.00000000000E+00 0.  1.
          1    1    1    2  501    0  0.84494091741E+02  0.61707719254E+01  0.10208066047E+03  0.13265666665E+03  0.00000000000E+00 0. -1.
<scales pt_clust_5="13000.00000" pt_clust_6="13000.00000" pt_clust_7="13000.00000" pt_clust_8="13000.00000" pt_clust_9="84.71917"></scales>
<clustering>
<clus scale="   84.719">  2  9  1 -1</clus>
<clus scale="   91.101">  7  8 -1 -1</clus>
<clus scale="   96.084">  5  6 -1 -1</clus>
<clus scale="  211.648">  1  7  2 -1</clus>
<clus scale="   84.719">  2  5  1 -1</clus>
</clustering>
</event>
<event>
 9    1  0.1464797E-005  0.1396203E+03  0.7546771E-02  0.1215751E+00
         21   -1    0    0  501  502  0.00000000000E+00  0.00000000000E+00  0.13649664049E+03  0.13649664049E+03  0.00000000000E+00 0.  1.
          1   -1    0    0  502    0 -0.00000000000E+00 -0.00000000000E+00 -0.18261946507E+03  0.18261946507E+03  0.00000000000E+00 0. -1.
         23    2    1    2    0    0  0.98872475778E+02  0.41768095263E+02 -0.76193724535E+02  0.16465111070E+03  0.98914934911E+02 0.  0.
         23    2    1    2    0    0 -0.76694439193E+02 -0.36737204003E+02  0.11364231646E+02  0.12501818497E+03  0.90932621491E+02 0.  0.
        -11    1    3    3    0    0  0.10369311250E+02 -0.22692203813E+02 -0.43907207252E+02  0.50500510674E+02  0.00000000000E+00 0. -1.
         11    1    3    3    0    0  0.88503164528E+02  0.64460299076E+02 -0.32286517282E+02  0.11415060003E+03  0.00000000000E+00 0.  1.
        -13    1    4    4    0    0 -0.16486615266E+02  0.30132846395E+02  0.60799409507E+01  0.34882124315E+02  0.00000000000E+00 0.  1.
         13    1    4    4    0    0 -0.60207823927E+02 -0.66870050398E+02  0.52842906957E+01  0.90136060655E+02  0.00000000000E+00 0. -1.
          1    1    1    2  501    0 -0.22178036584E+02 -0.50308912603E+01  0.18706668310E+02  0.29446809893E+02  0.00000000000E+00 0. -1.
<scales pt_clust_5="13000.00000" pt_clust_6="13000.00000" pt_clust_7="13000.00000" pt_clust_8="13000.00000" pt_clust_9="22.74149"></scales>
<clustering>
<clus scale="   22.741">  1  9  2 -1</clus>
<clus scale="   90.933">  7  8 -1 -1</clus>
<clus scale="   98.915">  5  6 -1 -1</clus>
<clus scale="  134.084">  1  7  2 -1</clus>
<clus scale="   22.741">  1  5  2 -1</clus>
</clustering>
</event>
<event>
 9    1  0.1464797E-005  0.9437382E+02  0.7546771E-02  0.1293049E+00
         21   -1    0    0  501  502  0.00000000000E+00  0.00000000000E+00  0.92564263141E+02  0.92564263141E+02  0.00000000000E+00 0. -1.
         -2   -1    0    0    0  501 -0.00000000000E+00 -0.00000000000E+00 -0.22095298302E+03  0.22095298302E+03  0.00000000000E+00 0.  1.
         23    2    1    2    0    0  0.23702650049E+02 -0.18719047453E+02 -0.12952639529E+03  0.16107802283E+03  0.90867067774E+02 0.  0.
         23    2    1    2    0    0  0.23129033063E+02  0.31149753418E+02  0.20674150161E+02  0.10019553625E+03  0.90035913341E+02 0.  0.
        -11    1    4    4    0    0  0.49970827794E+02  0.45211880617E+02  0.18141661322E+02  0.69787661194E+02  0.00000000000E+00 0. -1.
         11    1    4    4    0    0 -0.26841794731E+02 -0.14062127199E+02  0.25324888389E+01  0.30407875057E+02  0.00000000000E+00 0.  1.
        -13    1    3    3    0    0 -0.32189913658E+02 -0.10647386518E+02 -0.76217939654E+02  0.83419012857E+02  0.00000000000E+00 0.  1.
         13    1    3    3    0    0  0.55892563707E+02 -0.80716609355E+01 -0.53308455633E+02  0.77659009973E+02  0.00000000000E+00 0. -1.
         -2    1    1    2    0  502 -0.46831683112E+02 -0.12430705965E+02 -0.19536474749E+02  0.52243687078E+02  0.00000000000E+00 0.  1.
<scales pt_clust_5="13000.00000" pt_clust_6="13000.00000" pt_clust_7="13000.00000" pt_clust_8="13000.00000" pt_clust_9="48.45337"></scales>
<clustering>
<clus scale="   48.453">  1  9  2 -1</clus>
<clus scale="   90.036">  5  6 -1 -1</clus>
<clus scale="   90.867">  7  8 -1 -1</clus>
<clus scale="   93.574">  1  5  2 -1</clus>
<clus scale="   48.453">  1  5  2 -1</clus>
</clustering>
</event>
<event>
 9    1  0.1464797E-005  0.1035682E+03  0.7546771E-02  0.1276782E+00
         21   -1    0    0  501  502  0.00000000000E+00  0.00000000000E+00  0.13744570382E+03  0.13744570382E+03  0.00000000000E+00 0. -1.
         -4   -1    0    0    0  501 -0.00000000000E+00 -0.00000000000E+00 -0.24467039952E+03  0.24467039952E+03  0.00000000000E+00 0.  1.
         23    2    1    2    0    0  0.11119049048E+01 -0.33027950224E+02 -0.19567026688E+03  0.22153993216E+03  0.98493686953E+02 0.  0.
         23    2    1    2    0    0 -0.30609871786E+02  0.22783483846E+02  0.48188350652E+02  0.10962793328E+03  0.90775080440E+02 0.  0.
        -11    1    4    4    0    0 -0.51717667246E+02  0.43578663490E+02  0.25380113254E+02  0.72235497961E+02  0.00000000000E+00 0. -1.
         11    1    4    4    0    0  0.21107795460E+02 -0.20795179643E+02  0.22808237398E+02  0.37392435315E+02  0.00000000000E+00 0.  1.
        -11    1    3    3    0    0 -0.35773637034E+02  0.50015592541E+01 -0.28012480359E+02  0.45710696314E+02  0.00000000000E+00 0. -1.
         11    1    3    3    0    0  0.36885541939E+02 -0.38029509478E+02 -0.16765778652E+03  0.17582923584E+03  0.00000000000E+00 0.  1.
         -4    1    1    2    0  502  0.29497966881E+02  0.10244466378E+02  0.40257220525E+02  0.50948237907E+02  0.00000000000E+00 0.  1.
<scales pt_clust_5="13000.00000" pt_clust_6="13000.00000" pt_clust_7="13000.00000" pt_clust_8="13000.00000" pt_clust_9="31.22626"></scales>
<clustering>
<clus scale="   31.226">  1  9  2 -1</clus>
<clus scale="   90.775">  5  6 -1 -1</clus>
<clus scale="   96.257">  1  5  2 -1</clus>
<clus scale="   98.494">  7  8 -1 -1</clus>
<clus scale="   31.226">  1  5  2 -1</clus>
</clustering>
</event>
<event>
 9    1  0.1464797E-005  0.1204370E+03  0.7546771E-02  0.1244016E+00
         21   -1    0    0  501  502  0.00000000000E+00  0.00000000000E+00  0.61705874197E+02  0.61705874197E+02  0.00000000000E+00 0. -1.
          1   -1    0    0  502    0 -0.00000000000E+00 -0.00000000000E+00 -0.43475699340E+03  0.43475699340E+03  0.00000000000E+00 0. -1.
         23    2    1    2    0    0 -0.85537906928E+02  0.12083493010E+02 -0.31048816175E+03  0.33533767212E+03  0.92659114125E+02 0.  0.
         23    2    1    2    0    0  0.56869914416E+02  0.11734097572E+00 -0.74002675394E+02  0.12793511728E+03  0.87503127563E+02 0.  0.
        -11    1    4    4    0    0  0.78538234363E+02 -0.90916954343E+01 -0.46468543725E+02  0.91707353787E+02  0.00000000000E+00 0.  1.
         11    1    4    4    0    0 -0.21668319947E+02  0.92090364100E+01 -0.27534131669E+02  0.36227763493E+02  0.00000000000E+00 0. -1.
        -13    1    3    3    0    0 -0.85192676514E+02  0.34937199882E+02 -0.29126299056E+03  0.30547099656E+03  0.00000000000E+00 0. -1.
         13    1    3    3    0    0 -0.34523041390E+00 -0.22853706872E+02 -0.19225171188E+02  0.29866675560E+02  0.00000000000E+00 0.  1.
          1    1    1    2  501    0  0.28667992512E+02 -0.12200833985E+02  0.11439717937E+02  0.33190078202E+02  0.00000000000E+00 0. -1.
<scales pt_clust_5="13000.00000" pt_clust_6="13000.00000" pt_clust_7="13000.00000" pt_clust_8="13000.00000" pt_clust_9="31.15629"></scales>
<clustering>
<clus scale="   31.156">  1  9  2 -1</clus>
<clus scale="   87.503">  5  6 -1 -1</clus>
<clus scale="   92.659">  7  8 -1 -1</clus>
<clus scale="  116.517">  1  5  2 -1</clus>
<clus scale="   31.156">  1  5  2 -1</clus>
</clustering>
</event>
<event>
 9    1  0.1464797E-005  0.1253367E+03  0.7546771E-02  0.1234676E+00
         21   -1    0    0  501  502  0.00000000000E+00  0.00000000000E+00  0.54487703276E+02  0.54487703276E+02  0.00000000000E+00 0.  1.
          1   -1    0    0  502    0 -0.00000000000E+00 -0.00000000000E+00 -0.44117225108E+03  0.44117225108E+03  0.00000000000E+00 0. -1.
         23    2    1    2    0    0  0.31584190409E+01  0.77290459919E+02 -0.20696172482E+03  0.23857183646E+03  0.89997637777E+02 0.  0.
         23    2    1    2    0    0  0.15151487101E+02 -0.99853811529E+02 -0.18309535009E+03  0.22783523021E+03  0.90468965181E+02 0.  0.
        -11    1    3    3    0    0  0.21209489941E+02 -0.10208145679E+02 -0.18264599416E+02  0.29793359890E+02  0.00000000000E+00 0.  1.
         11    1    3    3    0    0 -0.18051070900E+02  0.87498605598E+02 -0.18869712541E+03  0.20877847657E+03  0.00000000000E+00 0. -1.
        -11    1    4    4    0    0 -0.34761783537E+02 -0.40878790094E+02 -0.10534533486E+03  0.11822477173E+03  0.00000000000E+00 0. -1.
         11    1    4    4    0    0  0.49913270638E+02 -0.58975021435E+02 -0.77750015230E+02  0.10961045848E+03  0.00000000000E+00 0.  1.
          1    1    1    2  501    0 -0.18309906142E+02  0.22563351610E+02  0.33725271109E+01  0.29252887685E+02  0.00000000000E+00 0. -1.
<scales pt_clust_5="13000.00000" pt_clust_6="13000.00000" pt_clust_7="13000.00000" pt_clust_8="13000.00000" pt_clust_9="29.05783"></scales>
<clustering>
<clus scale="   29.058">  1  9  2 -1</clus>
<clus scale="   89.998">  5  6 -1 -1</clus>
<clus scale="   90.469">  7  8 -1 -1</clus>
<clus scale="  124.997">  2  5  1 -1</clus>
<clus scale="   29.058">  1  5  2 -1</clus>
</clustering>
</event>
<event>
 9    1  0.1464797E-005  0.1434986E+03  0.7546771E-02  0.1210670E+00
         21   -1    0    0  501  502  0.00000000000E+00  0.00000000000E+00  0.80409249037E+02  0.80409249037E+02  0.00000000000E+00 0. -1.
         -1   -1    0    0    0  501 -0.00000000000E+00 -0.00000000000E+00 -0.33670280821E+03  0.33670280821E+03  0.00000000000E+00 0.  1.
         23    2    1    2    0    0 -0.92407691101E+02  0.12440187402E+02 -0.13369748111E+03  0.19101162079E+03  0.99581540381E+02 0.  0.
         23    2    1    2    0    0  0.10913552412E+03 -0.46056181095E+02 -0.11333695811E+03  0.18742762001E+03  0.90841137298E+02 0.  0.
        -11    1    4    4    0    0  0.64039945737E+02  0.44058406208E+01 -0.99409741301E+02  0.11833352334E+03  0.00000000000E+00 0.  1.
         11    1    4    4    0    0  0.45095578384E+02 -0.50462021716E+02 -0.13927216807E+02  0.69094096661E+02  0.00000000000E+00 0. -1.
        -13    1    3    3    0    0 -0.56637994072E+02 -0.32865307216E+02 -0.29344302830E+02  0.71757082574E+02  0.00000000000E+00 0. -1.
         13    1    3    3    0    0 -0.35769697029E+02  0.45305494618E+02 -0.10435317828E+03  0.11925453822E+03  0.00000000000E+00 0.  1.
         -1    1    1    2    0  502 -0.16727833019E+02  0.33615993693E+02 -0.92591199461E+01  0.38672816444E+02  0.00000000000E+00 0.  1.
<scales pt_clust_5="13000.00000" pt_clust_6="13000.00000" pt_clust_7="13000.00000" pt_clust_8="13000.00000" pt_clust_9="37.54804"></scales>
<clustering>
<clus scale="   37.548">  1  9  2 -1</clus>
<clus scale="   90.841">  5  6 -1 -1</clus>
<clus scale="   99.582">  7  8 -1 -1</clus>
<clus scale="  137.577">  1  5  2 -1</clus>
<clus scale="   37.548">  1  5  2 -1</clus>
</clustering>
</event>
<event>
 9    1  0.1464797E-005  0.1085934E+03  0.7546771E-02  0.1263679E+00
          1   -1    0    0  502    0 -0.00000000000E+00  0.00000000000E+00  0.76150198557E+02  0.76150198557E+02  0.00000000000E+00 0. -1.
         21   -1    0    0  501  502  0.00000000000E+00 -0.00000000000E+00 -0.36488572536E+03  0.36488572536E+03  0.00000000000E+00 0.  1.
         23    2    1    2    0    0  0.20534177411E+02 -0.48866046195E+02  0.31350731588E+01  0.10567361337E+03  0.91364878189E+02 0.  0.
         23    2    1    2    0    0 -0.18741240346E+02  0.86365220848E+02 -0.24189006495E+03  0.27285265847E+03  0.90153115583E+02 0.  0.
        -11    1    3    3    0    0 -0.56048966165E+01 -0.52417803651E+02  0.35772878980E+02  0.63708240254E+02  0.00000000000E+00 0. -1.
         11    1    3    3    0    0  0.26139074027E+02  0.35517574563E+01 -0.32637805822E+02  0.41965373117E+02  0.00000000000E+00 0.  1.
        -13    1    4    4    0    0 -0.46593742811E+02  0.53243016591E+02 -0.87574428312E+02  0.11258364081E+03  0.00000000000E+00 0. -1.
         13    1    4    4    0    0  0.27852502465E+02  0.33122204257E+02 -0.15431563664E+03  0.16026901765E+03  0.00000000000E+00 0.  1.
          1    1    1    2  501    0 -0.17929370642E+01 -0.37499174652E+02 -0.49980535010E+02  0.62509652077E+02  0.00000000000E+00 0. -1.
<scales pt_clust_5="13000.00000" pt_clust_6="13000.00000" pt_clust_7="13000.00000" pt_clust_8="13000.00000" pt_clust_9="37.54201"></scales>
<clustering>
<clus scale="   37.542">  2  9  1 -1</clus>
<clus scale="   90.153">  7  8 -1 -1</clus>
<clus scale="   91.365">  5  6 -1 -1</clus>
<clus scale="  107.576">  2  7  1 -1</clus>
<clus scale="   37.542">  2  5  1 -1</clus>
</clustering>
</event>
<event>
 9    1  0.1464797E-005  0.1178374E+03  0.7546771E-02  0.1246746E+00
          3   -1    0    0  502    0 -0.00000000000E+00  0.00000000000E+00  0.25721762480E+03  0.25721762480E+03  0.00000000000E+00 0. -1.
         21   -1    0    0  501  502  0.00000000000E+00 -0.00000000000E+00 -0.75644241708E+02  0.75644241708E+02  0.00000000000E+00 0.  1.
         23    2    1    2    0    0  0.81056006552E+02 -0.30112089451E+02  0.10829818780E+03  0.16635071562E+03  0.92017655791E+02 0.  0.
         23    2    1    2    0    0 -0.61597873640E+02  0.46084983417E+01  0.75773699340E+02  0.13433515644E+03  0.92134382570E+02 0.  0.
        -13    1    4    4    0    0 -0.31353560367E+02 -0.28332564973E+02 -0.44470194124E+01  0.42491834125E+02  0.00000000000E+00 0.  1.
         13    1    4    4    0    0 -0.30244313273E+02  0.32941063315E+02  0.80220718752E+02  0.91843322320E+02  0.00000000000E+00 0. -1.
        -13    1    3    3    0    0  0.39004901164E+02 -0.61876374236E+02  0.56151355750E+02  0.92211944757E+02  0.00000000000E+00 0. -1.
         13    1    3    3    0    0  0.42051105388E+02  0.31764284785E+02  0.52146832049E+02  0.74138770863E+02  0.00000000000E+00 0.  1.
          3    1    1    2  501    0 -0.19458132912E+02  0.25503591109E+02 -0.24985040480E+01  0.32175994442E+02  0.00000000000E+00 0. -1.
<scales pt_clust_5="13000.00000" pt_clust_6="13000.00000" pt_clust_7="13000.00000" pt_clust_8="13000.00000" pt_clust_9="32.07884"></scales>
<clustering>
<clus scale="   32.079">  2  9  1 -1</clus>
<clus scale="   92.018">  7  8 -1 -1</clus>
<clus scale="   92.134">  5  6 -1 -1</clus>
<clus scale="  117.746">  1  7  2 -1</clus>
<clus scale="   32.079">  2  5  1 -1</clus>
</clustering>
</event>
<event>
 9    1  0.1464797E-005  0.1778762E+03  0.7546771E-02  0.1171433E+00
         21   -1    0    0  501  502  0.00000000000E+00  0.00000000000E+00  0.42590853990E+02  0.42590853990E+02  0.00000000000E+00 0. -1.
          1   -1    0    0  502    0 -0.00000000000E+00 -0.00000000000E+00 -0.10303244810E+04  0.10303244810E+04  0.00000000000E+00 0. -1.
         23    2    1    2    0    0 -0.58661915061E+02 -0.12269513562E+03 -0.50854514845E+03  0.53337279645E+03  0.85866497541E+02 0.  0.
         23    2    1    2    0    0  0.45478928609E+02  0.16843532475E+03 -0.39855318921E+03  0.44590490763E+03  0.97712591070E+02 0.  0.
        -11    1    4    4    0    0  0.53528713500E+02  0.14374783607E+03 -0.38914676244E+03  0.41828694250E+03  0.00000000000E+00 0. -1.
         11    1    4    4    0    0 -0.80497848916E+01  0.24687488674E+02 -0.94064267684E+01  0.27617965138E+02  0.00000000000E+00 0.  1.
        -13    1    3    3    0    0 -0.70786993458E+02 -0.49477933629E+02 -0.28848847255E+03  0.30113861119E+03  0.00000000000E+00 0. -1.
         13    1    3    3    0    0  0.12125078397E+02 -0.73217201987E+02 -0.22005667590E+03  0.23223418526E+03  0.00000000000E+00 0.  1.
          1    1    1    2  501    0  0.13182986452E+02 -0.45740189129E+02 -0.80635289378E+02  0.93637630931E+02  0.00000000000E+00 0. -1.
<scales pt_clust_5="13000.00000" pt_clust_6="13000.00000" pt_clust_7="13000.00000" pt_clust_8="13000.00000" pt_clust_9="47.60206"></scales>
<clustering>
<clus scale="   47.602">  1  9  2 -1</clus>
<clus scale="   85.866">  7  8 -1 -1</clus>
<clus scale="   97.713">  5  6 -1 -1</clus>
<clus scale="  171.654">  2  7  1 -1</clus>
<clus scale="   47.602">  1  5  2 -1</clus>
</clustering>
</event>
<event>
 9    1  0.1464797E-005  0.1258344E+03  0.7546771E-02  0.1235303E+00
          1   -1    0    0  502    0 -0.00000000000E+00  0.00000000000E+00  0.31514466554E+03  0.31514466554E+03  0.00000000000E+00 0. -1.
         21   -1    0    0  501  502  0.00000000000E+00 -0.00000000000E+00 -0.20822957841E+03  0.20822957841E+03  0.00000000000E+00 0. -1.
         23    2    1    2    0    0  0.89401406816E+02 -0.27079549795E+02  0.23149094605E+03  0.26598215048E+03  0.91828822903E+02 0.  0.
         23    2    1    2    0    0 -0.48867555947E+02  0.53286889105E+02  0.11255753295E+02  0.11323924204E+03  0.86422817474E+02 0.  0.
        -11    1    3    3    0    0  0.29248188534E+02 -0.13887663593E+02  0.69048571921E+01  0.33105902577E+02  0.00000000000E+00 0.  1.
         11    1    3    3    0    0  0.60153218282E+02 -0.13191886202E+02  0.22458608886E+03  0.23287624791E+03  0.00000000000E+00 0. -1.
        -13    1    4    4    0    0 -0.40323537921E+01  0.65910020143E+02  0.85203743466E+01  0.66580683471E+02  0.00000000000E+00 0.  1.
         13    1    4    4    0    0 -0.44835202155E+02 -0.12623131039E+02  0.27353789480E+01  0.46658558566E+02  0.00000000000E+00 0. -1.
          1    1    1    2  501    0 -0.40533850869E+02 -0.26207339309E+02 -0.13583161221E+03  0.14415285143E+03  0.00000000000E+00 0. -1.
<scales pt_clust_5="13000.00000" pt_clust_6="13000.00000" pt_clust_7="13000.00000" pt_clust_8="13000.00000" pt_clust_9="48.26819"></scales>
<clustering>
<clus scale="   48.268">  2  9  1 -1</clus>
<clus scale="   86.423">  7  8 -1 -1</clus>
<clus scale="   91.829">  5  6 -1 -1</clus>
<clus scale="  121.945">  2  7  1 -1</clus>
<clus scale="   48.268">  2  5  1 -1</clus>
</clustering>
</event>
<event>
 9    1  0.1464797E-005  0.1122657E+03  0.7546771E-02  0.1256499E+00
         21   -1    0    0  501  502  0.00000000000E+00  0.00000000000E+00  0.51109771483E+02  0.51109771483E+02  0.00000000000E+00 0.  1.
         -1   -1    0    0    0  501 -0.00000000000E+00 -0.00000000000E+00 -0.57874765956E+03  0.57874765956E+03  0.00000000000E+00 0.  1.
         23    2    1    2    0    0  0.58997241644E+02  0.16920022765E+01 -0.29979863140E+03  0.31913802761E+03  0.92121245560E+02 0.  0.
         23    2    1    2    0    0 -0.61359355404E+02 -0.61091208997E+02 -0.21584269970E+03  0.25007484292E+03  0.91936117687E+02 0.  0.
        -11    1    4    4    0    0 -0.26376655776E+02 -0.58829960922E+02 -0.20258364105E+03  0.21259544654E+03  0.00000000000E+00 0.  1.
         11    1    4    4    0    0 -0.34982699629E+02 -0.22612480755E+01 -0.13259058651E+02  0.37479396373E+02  0.00000000000E+00 0. -1.
        -11    1    3    3    0    0  0.69720785180E+02 -0.29283026139E+02 -0.18817733593E+03  0.20280333642E+03  0.00000000000E+00 0.  1.
         11    1    3    3    0    0 -0.10723543536E+02  0.30975028415E+02 -0.11162129547E+03  0.11633469119E+03  0.00000000000E+00 0. -1.
         -1    1    1    2    0  502  0.23621137601E+01  0.59399206721E+02 -0.11996556976E+02  0.60644560512E+02  0.00000000000E+00 0.  1.
<scales pt_clust_5="13000.00000" pt_clust_6="13000.00000" pt_clust_7="13000.00000" pt_clust_8="13000.00000" pt_clust_9="59.44615"></scales>
<clustering>
<clus scale="   59.446">  1  9  2 -1</clus>
<clus scale="   91.936">  5  6 -1 -1</clus>
<clus scale="   92.121">  7  8 -1 -1</clus>
<clus scale="  112.114">  1  5  2 -1</clus>
<clus scale="   59.446">  1  5  2 -1</clus>
</clustering>
</event>
<event>
 9    1  0.1464797E-005  0.1005176E+03  0.7546771E-02  0.1279567E+00
         21   -1    0    0  501  502  0.00000000000E+00  0.00000000000E+00  0.49685021956E+02  0.49685021956E+02  0.00000000000E+00 0.  1.
          1   -1    0    0  502    0 -0.00000000000E+00 -0.00000000000E+00 -0.33319766097E+03  0.33319766097E+03  0.00000000000E+00 0. -1.
         23    2    1    2    0    0  0.38868901047E+01 -0.37549287070E+02 -0.18819106303E+03  0.21214139261E+03  0.90349528944E+02 0.  0.
         23    2    1    2    0    0 -0.18801613916E+02  0.54247108236E+02 -0.47013281883E+02  0.11749697140E+03  0.91099067923E+02 0.  0.
        -11    1    3    3    0    0 -0.34967584825E+02 -0.39790922178E+02 -0.70507528963E+02  0.88189348091E+02  0.00000000000E+00 0. -1.
         11    1    3    3    0    0  0.38854474930E+02  0.22416351086E+01 -0.11768353407E+03  0.12395204452E+03  0.00000000000E+00 0.  1.
        -13    1    4    4    0    0 -0.45186738466E+02  0.33625580741E+00 -0.79460440583E+01  0.45881303570E+02  0.00000000000E+00 0. -1.
         13    1    4    4    0    0  0.26385124550E+02  0.53910852428E+02 -0.39067237824E+02  0.71615667827E+02  0.00000000000E+00 0.  1.
          1    1    1    2  501    0  0.14914723811E+02 -0.16697821166E+02 -0.48308294100E+02  0.53244318917E+02  0.00000000000E+00 0. -1.
<scales pt_clust_5="13000.00000" pt_clust_6="13000.00000" pt_clust_7="13000.00000" pt_clust_8="13000.00000" pt_clust_9="22.38899"></scales>
<clustering>
<clus scale="   22.389">  1  9  2 -1</clus>
<clus scale="   90.350">  5  6 -1 -1</clus>
<clus scale="   91.099">  7  8 -1 -1</clus>
<clus scale="   99.839">  2  5  1 -1</clus>
<clus scale="   22.389">  1  5  2 -1</clus>
</clustering>
</event>
<event>
 9    1  0.1464797E-005  0.9796105E+02  0.7546771E-02  0.1286454E+00
         -1   -1    0    0    0  501 -0.00000000000E+00  0.00000000000E+00  0.52832521262E+03  0.52832521262E+03  0.00000000000E+00 0.  1.
         21   -1    0    0  501  502  0.00000000000E+00 -0.00000000000E+00 -0.34014104012E+02  0.34014104012E+02  0.00000000000E+00 0. -1.
         23    2    1    2    0    0 -0.24276083207E+02  0.10873686476E+02  0.24579025778E+03  0.26231221925E+03  0.87677159357E+02 0.  0.
         23    2    1    2    0    0  0.52769796574E+02  0.26209188048E+02  0.21975640361E+03  0.24512332057E+03  0.91219473762E+02 0.  0.
        -11    1    3    3    0    0 -0.17373786246E+02  0.49250121596E+02  0.12835421268E+03  0.13857209979E+03  0.00000000000E+00 0.  1.
         11    1    3    3    0    0 -0.69022969611E+01 -0.38376435121E+02  0.11743604510E+03  0.12374011946E+03  0.00000000000E+00 0. -1.
        -13    1    4    4    0    0  0.12787867308E+02 -0.30587157558E+02  0.37355852344E+02  0.49945605033E+02  0.00000000000E+00 0.  1.
         13    1    4    4    0    0  0.39981929265E+02  0.56796345606E+02  0.18240055126E+03  0.19517771554E+03  0.00000000000E+00 0. -1.
         -1    1    1    2    0  502 -0.28493713367E+02 -0.37082874524E+02  0.28764447220E+02  0.54903776813E+02  0.00000000000E+00 0.  1.
<scales pt_clust_5="13000.00000" pt_clust_6="13000.00000" pt_clust_7="13000.00000" pt_clust_8="13000.00000" pt_clust_9="46.76571"></scales>
<clustering>
<clus scale="   46.766">  2  9  1 -1</clus>
<clus scale="   87.677">  5  6 -1 -1</clus>
<clus scale="   91.219">  7  8 -1 -1</clus>
<clus scale="   94.671">  1  5  2 -1</clus>
<clus scale="   46.766">  2  5  1 -1</clus>
</clustering>
</event>
<event>
 9    1  0.1464797E-005  0.1555862E+03  0.7546771E-02  0.1195457E+00
          2   -1    0    0  502    0 -0.00000000000E+00  0.00000000000E+00  0.76006076390E+03  0.76006076390E+03  0.00000000000E+00 0. -1.
         21   -1    0    0  501  502  0.00000000000E+00 -0.00000000000E+00 -0.39283304941E+02  0.39283304941E+02  0.00000000000E+00 0.  1.
         23    2    1    2    0    0 -0.91841654510E+02 -0.57218546657E+02  0.35989286086E+03  0.38904325026E+03  0.10061276108E+03 0.  0.
         23    2    1    2    0    0  0.10355645912E+03  0.82003173761E+02  0.33911259374E+03  0.37529318282E+03  0.91646937226E+02 0.  0.
        -11    1    4    4    0    0  0.39792190759E+02  0.86845788083E+02  0.17927858977E+03  0.20314138452E+03  0.00000000000E+00 0.  1.
         11    1    4    4    0    0  0.63764268360E+02 -0.48426143216E+01  0.15983400397E+03  0.17215179830E+03  0.00000000000E+00 0. -1.
        -13    1    3    3    0    0 -0.29389690111E+02 -0.48098423085E+02  0.28761992721E+03  0.29309117134E+03  0.00000000000E+00 0. -1.
         13    1    3    3    0    0 -0.62451964400E+02 -0.91201235717E+01  0.72272933648E+02  0.95952078922E+02  0.00000000000E+00 0.  1.
          2    1    1    2  501    0 -0.11714804609E+02 -0.24784627104E+02  0.21772004352E+02  0.35007635756E+02  0.00000000000E+00 0. -1.
<scales pt_clust_5="13000.00000" pt_clust_6="13000.00000" pt_clust_7="13000.00000" pt_clust_8="13000.00000" pt_clust_9="27.41376"></scales>
<clustering>
<clus scale="   27.414">  2  9  1 -1</clus>
<clus scale="   91.647">  5  6 -1 -1</clus>
<clus scale="  100.613">  7  8 -1 -1</clus>
<clus scale="  149.944">  2  5  1 -1</clus>
<clus scale="   27.414">  2  5  1 -1</clus>
</clustering>
</event>
<event>
 9    1  0.1464797E-005  0.9642792E+02  0.7546771E-02  0.1289725E+00
         21   -1    0    0  501  502  0.00000000000E+00  0.00000000000E+00  0.52113396251E+03  0.52113396251E+03  0.00000000000E+00 0. -1.
          1   -1    0    0  502    0 -0.00000000000E+00 -0.00000000000E+00 -0.29468268148E+02  0.29468268148E+02  0.00000000000E+00 0. -1.
         23    2    1    2    0    0 -0.30463944991E+02 -0.20630690984E+02  0.12206002893E+03  0.15715305994E+03  0.91895354794E+02 0.  0.
         23    2    1    2    0    0  0.46383429569E+01  0.23193684963E+02  0.17961222974E+03  0.20169141660E+03  0.88653331623E+02 0.  0.
        -11    1    3    3    0    0 -0.60849023815E+02 -0.27054455348E+02  0.70625963183E+02  0.97069943489E+02  0.00000000000E+00 0. -1.
         11    1    3    3    0    0  0.30385078825E+02  0.64237643642E+01  0.51434065742E+02  0.60083116452E+02  0.00000000000E+00 0.  1.
        -13    1    4    4    0    0  0.42886270806E+02 -0.58850913173E+01  0.94790537189E+02  0.10420706533E+03  0.00000000000E+00 0.  1.
         13    1    4    4    0    0 -0.38247927849E+02  0.29078776280E+02  0.84821692554E+02  0.97484351269E+02  0.00000000000E+00 0. -1.
          1    1    1    2  501    0  0.25825602034E+02 -0.25629939790E+01  0.18999343570E+03  0.19175775412E+03  0.00000000000E+00 0. -1.
<scales pt_clust_5="13000.00000" pt_clust_6="13000.00000" pt_clust_7="13000.00000" pt_clust_8="13000.00000" pt_clust_9="25.95247"></scales>
<clustering>
<clus scale="   25.952">  1  9  2 -1</clus>
<clus scale="   88.653">  7  8 -1 -1</clus>
<clus scale="   91.895">  5  6 -1 -1</clus>
<clus scale="   93.343">  1  7  2 -1</clus>
<clus scale="   25.952">  1  5  2 -1</clus>
</clustering>
</event>
<event>
 9    1  0.1464797E-005  0.1072680E+03  0.7546771E-02  0.1266206E+00
         21   -1    0    0  501  502  0.00000000000E+00  0.00000000000E+00  0.12870879386E+03  0.12870879386E+03  0.00000000000E+00 0. -1.
         -3   -1    0    0    0  501 -0.00000000000E+00 -0.00000000000E+00 -0.16733355419E+03  0.16733355419E+03  0.00000000000E+00 0.  1.
         23    2    1    2    0    0  0.12378495749E+02  0.48394038612E+02 -0.92337742557E+02  0.13943877681E+03  0.91769840628E+02 0.  0.
         23    2    1    2    0    0 -0.27198308189E+02 -0.67845722823E+02  0.25283855232E+02  0.11910410296E+03  0.90574411021E+02 0.  0.
        -13    1    4    4    0    0 -0.22013496473E+02 -0.87260560024E+02  0.43699307158E+01  0.90100475343E+02  0.00000000000E+00 0.  1.
         13    1    4    4    0    0 -0.51848117163E+01  0.19414837200E+02  0.20913924517E+02  0.29003627613E+02  0.00000000000E+00 0. -1.
        -13    1    3    3    0    0  0.32004587892E+02  0.68969062996E+02 -0.68303867782E+02  0.10220784535E+03  0.00000000000E+00 0. -1.
         13    1    3    3    0    0 -0.19626092143E+02 -0.20575024384E+02 -0.24033874774E+02  0.37230931466E+02  0.00000000000E+00 0.  1.
         -3    1    1    2    0  502  0.14819812440E+02  0.19451684212E+02  0.28429126990E+02  0.37499468274E+02  0.00000000000E+00 0.  1.
<scales pt_clust_5="13000.00000" pt_clust_6="13000.00000" pt_clust_7="13000.00000" pt_clust_8="13000.00000" pt_clust_9="24.45393"></scales>
<clustering>
<clus scale="   24.454">  1  9  2 -1</clus>
<clus scale="   90.574">  5  6 -1 -1</clus>
<clus scale="   91.770">  7  8 -1 -1</clus>
<clus scale="  106.247">  1  5  2 -1</clus>
<clus scale="   24.454">  1  5  2 -1</clus>
</clustering>
</event>
<event>
 9    1  0.1464797E-005  0.1426597E+03  0.7546771E-02  0.1210830E+00
         -1   -1    0    0    0  501 -0.00000000000E+00  0.00000000000E+00  0.20084572659E+03  0.20084572659E+03  0.00000000000E+00 0.  1.
         21   -1    0    0  501  502  0.00000000000E+00 -0.00000000000E+00 -0.49724000762E+03  0.49724000762E+03  0.00000000000E+00 0.  1.
         23    2    1    2    0    0  0.39056629017E+02 -0.96832684870E+02  0.12832272624E+03  0.18850176925E+03  0.90355994888E+02 0.  0.
         23    2    1    2    0    0 -0.67073380394E+02  0.11888879128E+03 -0.44029113874E+03  0.47067427776E+03  0.95103132657E+02 0.  0.
        -11    1    4    4    0    0 -0.46434511446E+02  0.11917050120E+03 -0.42788777447E+03  0.44659346139E+03  0.00000000000E+00 0.  1.
         11    1    4    4    0    0 -0.20638868948E+02 -0.28170992370E+00 -0.12403364264E+02  0.24080816369E+02  0.00000000000E+00 0. -1.
        -13    1    3    3    0    0  0.58751683605E+02 -0.33504432873E+02  0.87622201082E+02  0.11068856071E+03  0.00000000000E+00 0.  1.
         13    1    3    3    0    0 -0.19695054588E+02 -0.63328251997E+02  0.40700525160E+02  0.77813208548E+02  0.00000000000E+00 0. -1.
         -1    1    1    2    0  502  0.28016751377E+02 -0.22056106406E+02  0.15574131456E+02  0.38909687201E+02  0.00000000000E+00 0.  1.
<scales pt_clust_5="13000.00000" pt_clust_6="13000.00000" pt_clust_7="13000.00000" pt_clust_8="13000.00000" pt_clust_9="35.65686"></scales>
<clustering>
<clus scale="   35.657">  2  9  1 -1</clus>
<clus scale="   90.356">  7  8 -1 -1</clus>
<clus scale="   95.103">  5  6 -1 -1</clus>
<clus scale="  139.540">  1  7  2 -1</clus>
<clus scale="   35.657">  2  5  1 -1</clus>
</clustering>
</event>
<event>
 9    1  0.1464797E-005  0.1752409E+03  0.7546771E-02  0.1172591E+00
         21   -1    0    0  501  502  0.00000000000E+00  0.00000000000E+00  0.16762024573E+03  0.16762024573E+03  0.00000000000E+00 0.  1.
          1   -1    0    0  502    0 -0.00000000000E+00 -0.00000000000E+00 -0.22138089311E+03  0.22138089311E+03  0.00000000000E+00 0. -1.
         23    2    1    2    0    0  0.66060592395E+02 -0.11580995794E+03 -0.14164466250E+02  0.16226190049E+03  0.91391159414E+02 0.  0.
         23    2    1    2    0    0 -0.75508699235E+02  0.14678182591E+03 -0.43880511182E+02  0.19407612748E+03  0.92160598509E+02 0.  0.
        -13    1    4    4    0    0 -0.98001897126E+01  0.67916330142E+02  0.22049768613E+02  0.72075404364E+02  0.00000000000E+00 0. -1.
         13    1    4    4    0    0 -0.65708509522E+02  0.78865495768E+02 -0.65930279795E+02  0.12200072311E+03  0.00000000000E+00 0.  1.
        -13    1    3    3    0    0 -0.13030622551E+02 -0.18171447032E+02  0.22142209794E+02  0.31468652114E+02  0.00000000000E+00 0.  1.
         13    1    3    3    0    0  0.79091214946E+02 -0.97638510909E+02 -0.36306676044E+02  0.13079324837E+03  0.00000000000E+00 0. -1.
          1    1    1    2  501    0  0.94481068395E+01 -0.30971867969E+02  0.42843300488E+01  0.32663110879E+02  0.00000000000E+00 0. -1.
<scales pt_clust_5="13000.00000" pt_clust_6="13000.00000" pt_clust_7="13000.00000" pt_clust_8="13000.00000" pt_clust_9="32.38091"></scales>
<clustering>
<clus scale="   32.381">  1  9  2 -1</clus>
<clus scale="   91.391">  7  8 -1 -1</clus>
<clus scale="   92.161">  5  6 -1 -1</clus>
<clus scale="  174.837">  2  7  1 -1</clus>
<clus scale="   32.381">  1  5  2 -1</clus>
</clustering>
</event>
<event>
 9    1  0.1464797E-005  0.9836623E+02  0.7546771E-02  0.1286324E+00
         21   -1    0    0  501  502  0.00000000000E+00  0.00000000000E+00  0.97721960233E+02  0.97721960233E+02  0.00000000000E+00 0. -1.
          1   -1    0    0  502    0 -0.00000000000E+00 -0.00000000000E+00 -0.12292864485E+03  0.12292864485E+03  0.00000000000E+00 0. -1.
         23    2    1    2    0    0  0.14120476325E+02 -0.23160776032E+02 -0.68190170639E+01  0.92126660305E+02  0.87778204283E+02 0.  0.
         23    2    1    2    0    0 -0.36049904675E+02  0.21008484469E+02 -0.31111407121E+01  0.10171155102E+03  0.92707110663E+02 0.  0.
        -11    1    4    4    0    0 -0.39609870411E+02 -0.83611030005E+01 -0.38306572075E+02  0.55733682289E+02  0.00000000000E+00 0.  1.
         11    1    4    4    0    0  0.35599657355E+01  0.29369587469E+02  0.35195431363E+02  0.45977868730E+02  0.00000000000E+00 0. -1.
        -11    1    3    3    0    0  0.41865511547E+02  0.11358955337E+02  0.10401665530E+02  0.44608761127E+02  0.00000000000E+00 0.  1.
         11    1    3    3    0    0 -0.27745035222E+02 -0.34519731369E+02 -0.17220682594E+02  0.47517899178E+02  0.00000000000E+00 0. -1.
          1    1    1    2  501    0  0.21929428350E+02  0.21522915639E+01 -0.15276526842E+02  0.26812393759E+02  0.00000000000E+00 0. -1.
<scales pt_clust_5="13000.00000" pt_clust_6="13000.00000" pt_clust_7="13000.00000" pt_clust_8="13000.00000" pt_clust_9="22.03481"></scales>
<clustering>
<clus scale="   22.035">  1  9  2 -1</clus>
<clus scale="   87.778">  7  8 -1 -1</clus>
<clus scale="   92.707">  5  6 -1 -1</clus>
<clus scale="   93.735">  2  7  1 -1</clus>
<clus scale="   22.035">  1  5  2 -1</clus>
</clustering>
</event>
<event>
 9    1  0.1464797E-005  0.9907342E+02  0.7546771E-02  0.1282270E+00
         21   -1    0    0  501  502  0.00000000000E+00  0.00000000000E+00  0.31829171501E+03  0.31829171501E+03  0.00000000000E+00 0.  1.
          1   -1    0    0  502    0 -0.00000000000E+00 -0.00000000000E+00 -0.55215843024E+02  0.55215843024E+02  0.00000000000E+00 0. -1.
         23    2    1    2    0    0 -0.35398639011E+02 -0.31509428807E+02  0.67629032941E+02  0.12303675548E+03  0.91205533580E+02 0.  0.
         23    2    1    2    0    0 -0.36847290630E+01  0.38608184612E+02  0.76955163684E+02  0.12549808903E+03  0.91233239481E+02 0.  0.
        -13    1    3    3    0    0 -0.16420524031E+02  0.31643417963E+02  0.15044359865E+02  0.38694602642E+02  0.00000000000E+00 0.  1.
         13    1    3    3    0    0 -0.18978114980E+02 -0.63152846770E+02  0.52584673076E+02  0.84342152841E+02  0.00000000000E+00 0. -1.
        -13    1    4    4    0    0 -0.40684813905E+02  0.45327228985E+02  0.54282663224E+02  0.81586881891E+02  0.00000000000E+00 0.  1.
         13    1    4    4    0    0  0.37000084842E+02 -0.67190443729E+01  0.22672500459E+02  0.43911207142E+02  0.00000000000E+00 0. -1.
          1    1    1    2  501    0  0.39083368074E+02 -0.70987558054E+01  0.11849167537E+03  0.12497271352E+03  0.00000000000E+00 0. -1.
<scales pt_clust_5="13000.00000" pt_clust_6="13000.00000" pt_clust_7="13000.00000" pt_clust_8="13000.00000" pt_clust_9="39.72281"></scales>
<clustering>
<clus scale="   39.723">  1  9  2 -1</clus>
<clus scale="   91.206">  5  6 -1 -1</clus>
<clus scale="   91.233">  7  8 -1 -1</clus>
<clus scale="   99.048">  2  5  1 -1</clus>
<clus scale="   39.723">  1  5  2 -1</clus>
</clustering>
</event>
<event>
 9    1  0.1464797E-005  0.1004732E+03  0.7546771E-02  0.1282500E+00
         21   -1    0    0  501  502  0.00000000000E+00  0.00000000000E+00  0.26559032760E+02  0.26559032760E+02  0.00000000000E+00 0. -1.
          2   -1    0    0  502    0 -0.00000000000E+00 -0.00000000000E+00 -0.60243412884E+03  0.60243412884E+03  0.00000000000E+00 0. -1.
         23    2    1    2    0    0  0.10013293532E+02  0.45609622813E+02 -0.43689721754E+03  0.44897167862E+03  0.92281557014E+02 0.  0.
         23    2    1    2    0    0 -0.90892967665E+01 -0.21160707442E+02 -0.11859872885E+03  0.14817948281E+03  0.85796910123E+02 0.  0.
        -13    1    4    4    0    0 -0.35975403165E+01  0.31850802404E+02 -0.65630294502E+02  0.73039382983E+02  0.00000000000E+00 0. -1.
         13    1    4    4    0    0 -0.54917564500E+01 -0.53011509846E+02 -0.52968434343E+02  0.75140099826E+02  0.00000000000E+00 0.  1.
        -13    1    3    3    0    0 -0.31362048392E+02  0.52443063379E+02 -0.27773668045E+03  0.28437917759E+03  0.00000000000E+00 0. -1.
         13    1    3    3    0    0  0.41375341924E+02 -0.68334405668E+01 -0.15916053709E+03  0.16459250103E+03  0.00000000000E+00 0.  1.
          2    1    1    2  501    0 -0.92399676547E+00 -0.24448915371E+02 -0.20379149695E+02  0.31842000175E+02  0.00000000000E+00 0. -1.
<scales pt_clust_5="13000.00000" pt_clust_6="13000.00000" pt_clust_7="13000.00000" pt_clust_8="13000.00000" pt_clust_9="24.46637"></scales>
<clustering>
<clus scale="   24.466">  1  9  2 -1</clus>
<clus scale="   85.797">  5  6 -1 -1</clus>
<clus scale="   92.282">  7  8 -1 -1</clus>
<clus scale="   94.552">  1  5  2 -1</clus>
<clus scale="   24.466">  1  5  2 -1</clus>
</clustering>
</event>
<event>
 9    1  0.1464797E-005  0.1009521E+03  0.7546771E-02  0.1282250E+00
         21   -1    0    0  501  502  0.00000000000E+00  0.00000000000E+00  0.24750512451E+03  0.24750512451E+03  0.00000000000E+00 0. -1.
          1   -1    0    0  502    0 -0.00000000000E+00 -0.00000000000E+00 -0.21369606622E+03  0.21369606622E+03  0.00000000000E+00 0. -1.
         23    2    1    2    0    0  0.41644393165E+02 -0.21233535214E+02 -0.99371152284E+02  0.13769928275E+03  0.83074352621E+02 0.  0.
         23    2    1    2    0    0 -0.18726666296E+02  0.39774095682E+02 -0.66833220187E+02  0.12132785655E+03  0.91220078588E+02 0.  0.
        -11    1    4    4    0    0  0.20205146343E+02 -0.20696635164E+02 -0.14303959555E+02  0.32267660355E+02  0.00000000000E+00 0.  1.
         11    1    4    4    0    0 -0.38931812639E+02  0.60470730846E+02 -0.52529260632E+02  0.89060196199E+02  0.00000000000E+00 0. -1.
        -13    1    3    3    0    0 -0.53527172612E+01  0.27266809561E+02 -0.28773317196E+02  0.40000428349E+02  0.00000000000E+00 0.  1.
         13    1    3    3    0    0  0.46997110426E+02 -0.48500344775E+02 -0.70597835088E+02  0.97698854399E+02  0.00000000000E+00 0. -1.
          1    1    1    2  501    0 -0.22917726869E+02 -0.18540560467E+02  0.20001343076E+03  0.20217405143E+03  0.00000000000E+00 0. -1.
<scales pt_clust_5="13000.00000" pt_clust_6="13000.00000" pt_clust_7="13000.00000" pt_clust_8="13000.00000" pt_clust_9="29.47837"></scales>
<clustering>
<clus scale="   29.478">  1  9  2 -1</clus>
<clus scale="   83.074">  7  8 -1 -1</clus>
<clus scale="   91.220">  5  6 -1 -1</clus>
<clus scale="   93.657">  2  7  1 -1</clus>
<clus scale="   29.478">  1  5  2 -1</clus>
</clustering>
</event>
<event>
 9    1  0.1464797E-005  0.1160068E+03  0.7546771E-02  0.1249987E+00
         -4   -1    0    0    0  501 -0.00000000000E+00  0.00000000000E+00  0.31619924239E+02  0.31619924239E+02  0.00000000000E+00 0.  1.
         21   -1    0    0  501  502  0.00000000000E+00 -0.00000000000E+00 -0.10994327044E+04  0.10994327044E+04  0.00000000000E+00 0. -1.
         23    2    1    2    0    0  0.52852647816E+02  0.18415681529E+02 -0.14595841248E+03  0.18064596001E+03  0.90534882720E+02 0.  0.
         23    2    1    2    0    0 -0.10125728387E+03 -0.56184378606E+02 -0.42541038070E+03  0.45018060425E+03  0.90988254720E+02 0.  0.
        -11    1    3    3    0    0  0.43524892213E+02 -0.27259061851E+02 -0.11123326371E+03  0.12251657705E+03  0.00000000000E+00 0.  1.
         11    1    3    3    0    0  0.93277556030E+01  0.45674743380E+02 -0.34725148765E+02  0.58129382967E+02  0.00000000000E+00 0. -1.
        -11    1    4    4    0    0 -0.63792870155E+01  0.21019963732E+02 -0.10368821834E+03  0.10598953156E+03  0.00000000000E+00 0.  1.
         11    1    4    4    0    0 -0.94877996854E+02 -0.77204342338E+02 -0.32172216236E+03  0.34419107269E+03  0.00000000000E+00 0. -1.
         -4    1    1    2    0  502  0.48404636053E+02  0.37768697077E+02 -0.49644398698E+03  0.50022606437E+03  0.00000000000E+00 0.  1.
<scales pt_clust_5="13000.00000" pt_clust_6="13000.00000" pt_clust_7="13000.00000" pt_clust_8="13000.00000" pt_clust_9="61.39612"></scales>
<clustering>
<clus scale="   61.396">  2  9  1 -1</clus>
<clus scale="   90.535">  5  6 -1 -1</clus>
<clus scale="   90.988">  7  8 -1 -1</clus>
<clus scale="  115.652">  1  5  2 -1</clus>
<clus scale="   61.396">  2  5  1 -1</clus>
</clustering>
</event>
<event>
 9    1  0.1464797E-005  0.1012004E+03  0.7546771E-02  0.1278516E+00
         -1   -1    0    0    0  501 -0.00000000000E+00  0.00000000000E+00  0.68551328643E+03  0.68551328643E+03  0.00000000000E+00 0.  1.
         21   -1    0    0  501  502  0.00000000000E+00 -0.00000000000E+00 -0.24043668236E+02  0.24043668236E+02  0.00000000000E+00 0. -1.
         23    2    1    2    0    0  0.66931223672E+01 -0.36205660568E+02  0.40244812619E+03  0.41378055977E+03  0.88849364835E+02 0.  0.
         23    2    1    2    0    0 -0.10091321104E+02  0.64502711232E+02  0.22697229038E+03  0.25288790977E+03  0.90407078212E+02 0.  0.
        -11    1    4    4    0    0  0.14017151263E+02  0.69983412684E+02  0.96125397630E+02  0.11972573094E+03  0.00000000000E+00 0. -1.
         11    1    4    4    0    0 -0.24108472367E+02 -0.54807014520E+01  0.13084689275E+03  0.13316217882E+03  0.00000000000E+00 0.  1.
        -13    1    3    3    0    0  0.19761757179E+02  0.24897359066E+02  0.17709215218E+03  0.17992230518E+03  0.00000000000E+00 0. -1.
         13    1    3    3    0    0 -0.13068634811E+02 -0.61103019634E+02  0.22535597400E+03  0.23385825460E+03  0.00000000000E+00 0.  1.
         -1    1    1    2    0  502  0.33981987365E+01 -0.28297050663E+02  0.32049201627E+02  0.42888485119E+02  0.00000000000E+00 0.  1.
<scales pt_clust_5="13000.00000" pt_clust_6="13000.00000" pt_clust_7="13000.00000" pt_clust_8="13000.00000" pt_clust_9="28.50037"></scales>
<clustering>
<clus scale="   28.500">  2  9  1 -1</clus>
<clus scale="   88.849">  7  8 -1 -1</clus>
<clus scale="   90.407">  5  6 -1 -1</clus>
<clus scale="   99.811">  1  7  2 -1</clus>
<clus scale="   28.500">  2  5  1 -1</clus>
</clustering>
</event>
<event>
 9    1  0.1464797E-005  0.9122922E+02  0.7546771E-02  0.1299977E+00
          2   -1    0    0  502    0 -0.00000000000E+00  0.00000000000E+00  0.56869400436E+03  0.56869400436E+03  0.00000000000E+00 0. -1.
         21   -1    0    0  501  502  0.00000000000E+00 -0.00000000000E+00 -0.21163247448E+02  0.21163247448E+02  0.00000000000E+00 0.  1.
         23    2    1    2    0    0 -0.14939392277E+02  0.48215521999E+01  0.28638763163E+03  0.30086830248E+03  0.90870386160E+02 0.  0.
         23    2    1    2    0    0 -0.63524914754E+01 -0.35879041449E+01  0.24717537560E+03  0.26349455323E+03  0.90997176183E+02 0.  0.
        -11    1    3    3    0    0  0.77859519706E+01 -0.40450612847E+02  0.11521342031E+03  0.12235605971E+03  0.00000000000E+00 0.  1.
         11    1    3    3    0    0 -0.22725344248E+02  0.45272165047E+02  0.17117421132E+03  0.17851224278E+03  0.00000000000E+00 0. -1.
        -13    1    4    4    0    0 -0.46908711494E+02 -0.36672278556E+01  0.95085930509E+02  0.10609057430E+03  0.00000000000E+00 0.  1.
         13    1    4    4    0    0  0.40556220019E+02  0.79323710640E-01  0.15208944509E+03  0.15740397893E+03  0.00000000000E+00 0. -1.
          2    1    1    2  501    0  0.21291883753E+02 -0.12336480549E+01  0.13967749685E+02  0.25494396100E+02  0.00000000000E+00 0. -1.
<scales pt_clust_5="13000.00000" pt_clust_6="13000.00000" pt_clust_7="13000.00000" pt_clust_8="13000.00000" pt_clust_9="21.32759"></scales>
<clustering>
<clus scale="   21.328">  2  9  1 -1</clus>
<clus scale="   90.870">  5  6 -1 -1</clus>
<clus scale="   90.997">  7  8 -1 -1</clus>
<clus scale="   91.103">  1  5  2 -1</clus>
<clus scale="   21.328">  2  5  1 -1</clus>
</clustering>
</event>
<event>
 9    1  0.1464797E-005  0.1164133E+03  0.7546771E-02  0.1249244E+00
         21   -1    0    0  501  502  0.00000000000E+00  0.00000000000E+00  0.99267821286E+02  0.99267821286E+02  0.00000000000E+00 0.  1.
          1   -1    0    0  502    0 -0.00000000000E+00 -0.00000000000E+00 -0.31856148285E+03  0.31856148285E+03  0.00000000000E+00 0. -1.
         23    2    1    2    0    0  0.12899154656E+02  0.69543657445E+02 -0.15171959789E+03  0.19052017245E+03  0.90974673651E+02 0.  0.
         23    2    1    2    0    0  0.22255015063E+02 -0.76662231581E+02 -0.11571910950E+03  0.16727218319E+03  0.90645945977E+02 0.  0.
        -13    1    3    3    0    0  0.43453493585E+02  0.57004166648E+02 -0.61500323496E+02  0.94445597622E+02  0.00000000000E+00 0.  1.
         13    1    3    3    0    0 -0.30554338929E+02  0.12539490797E+02 -0.90219274392E+02  0.96074574830E+02  0.00000000000E+00 0. -1.
        -13    1    4    4    0    0 -0.34667211207E+02 -0.24865131139E+02 -0.52680219185E+02  0.67788610937E+02  0.00000000000E+00 0. -1.
         13    1    4    4    0    0  0.56922226269E+02 -0.51797100442E+02 -0.63038890310E+02  0.99483572257E+02  0.00000000000E+00 0.  1.
          1    1    1    2  501    0 -0.35154169719E+02  0.71185741363E+01  0.48145045823E+02  0.60036948487E+02  0.00000000000E+00 0. -1.
<scales pt_clust_5="13000.00000" pt_clust_6="13000.00000" pt_clust_7="13000.00000" pt_clust_8="13000.00000" pt_clust_9="35.86767"></scales>
<clustering>
<clus scale="   35.868">  1  9  2 -1</clus>
<clus scale="   90.646">  7  8 -1 -1</clus>
<clus scale="   90.975">  5  6 -1 -1</clus>
<clus scale="  116.157">  1  7  2 -1</clus>
<clus scale="   35.868">  1  5  2 -1</clus>
</clustering>
</event>
<event>
 9    1  0.1464797E-005  0.1228997E+03  0.7546771E-02  0.1238503E+00
          1   -1    0    0  502    0 -0.00000000000E+00  0.00000000000E+00  0.35643777407E+03  0.35643777407E+03  0.00000000000E+00 0. -1.
         21   -1    0    0  501  502  0.00000000000E+00 -0.00000000000E+00 -0.23594157422E+03  0.23594157422E+03  0.00000000000E+00 0. -1.
         23    2    1    2    0    0  0.41732278846E+02 -0.77446973674E+02  0.29713905913E+03  0.32329857325E+03  0.92145158170E+02 0.  0.
         23    2    1    2    0    0 -0.13401520641E+02  0.48721840709E+02 -0.19137012211E+02  0.10648970215E+03  0.91762807879E+02 0.  0.
        -11    1    4    4    0    0  0.24431578614E+02  0.48372732441E+02  0.14245142424E+02  0.56033448582E+02  0.00000000000E+00 0.  1.
         11    1    4    4    0    0 -0.37833099256E+02  0.34910826859E+00 -0.33382154635E+02  0.50456253566E+02  0.00000000000E+00 0. -1.
        -13    1    3    3    0    0 -0.38322071013E+01 -0.63945546789E+02  0.88114515957E+02  0.10893983058E+03  0.00000000000E+00 0. -1.
         13    1    3    3    0    0  0.45564485948E+02 -0.13501426885E+02  0.20902454317E+03  0.21435874266E+03  0.00000000000E+00 0.  1.
          1    1    1    2  501    0 -0.28330758205E+02  0.28725132965E+02 -0.15750584707E+03  0.16259107289E+03  0.00000000000E+00 0. -1.
<scales pt_clust_5="13000.00000" pt_clust_6="13000.00000" pt_clust_7="13000.00000" pt_clust_8="13000.00000" pt_clust_9="40.34557"></scales>
<clustering>
<clus scale="   40.346">  2  9  1 -1</clus>
<clus scale="   91.763">  5  6 -1 -1</clus>
<clus scale="   92.145">  7  8 -1 -1</clus>
<clus scale="  122.613">  2  5  1 -1</clus>
<clus scale="   40.346">  2  5  1 -1</clus>
</clustering>
</event>
<event>
 9    1  0.1464797E-005  0.1425077E+03  0.7546771E-02  0.1210174E+00
         21   -1    0    0  501  502  0.00000000000E+00  0.00000000000E+00  0.10215577922E+03  0.10215577922E+03  0.00000000000E+00 0. -1.
          2   -1    0    0  502    0 -0.00000000000E+00 -0.00000000000E+00 -0.48423848784E+03  0.48423848784E+03  0.00000000000E+00 0. -1.
         23    2    1    2    0    0 -0.65569320775E+01 -0.92400999591E+02 -0.24481868776E+03  0.27749303455E+03  0.92115450730E+02 0.  0.
         23    2    1    2    0    0  0.64082386165E+02  0.13978987295E+03 -0.14902768344E+03  0.23344749208E+03  0.92955474997E+02 0.  0.
        -11    1    4    4    0    0 -0.24128638467E+02  0.37741489555E+02 -0.37958465347E+02  0.58715043384E+02  0.00000000000E+00 0.  1.
         11    1    4    4    0    0  0.88211024633E+02  0.10204838340E+03 -0.11106921809E+03  0.17473244870E+03  0.00000000000E+00 0. -1.
        -11    1    3    3    0    0 -0.19468258488E+02 -0.15687344279E+02 -0.51656044605E+01  0.25530165071E+02  0.00000000000E+00 0.  1.
         11    1    3    3    0    0  0.12911326411E+02 -0.76713655313E+02 -0.23965308330E+03  0.25196286948E+03  0.00000000000E+00 0. -1.
          2    1    1    2  501    0 -0.57525454088E+02 -0.47388873362E+02  0.11763662574E+02  0.75453740422E+02  0.00000000000E+00 0. -1.
<scales pt_clust_5="13000.00000" pt_clust_6="13000.00000" pt_clust_7="13000.00000" pt_clust_8="13000.00000" pt_clust_9="74.53109"></scales>
<clustering>
<clus scale="   74.531">  1  9  2 -1</clus>
<clus scale="   92.115">  7  8 -1 -1</clus>
<clus scale="   92.955">  5  6 -1 -1</clus>
<clus scale="  141.961">  2  7  1 -1</clus>
<clus scale="   74.531">  1  5  2 -1</clus>
</clustering>
</event>
<event>
 9    1  0.1464797E-005  0.2782782E+03  0.7546771E-02  0.1096666E+00
         21   -1    0    0  501  502  0.00000000000E+00  0.00000000000E+00  0.10320917341E+03  0.10320917341E+03  0.00000000000E+00 0. -1.
          2   -1    0    0  502    0 -0.00000000000E+00 -0.00000000000E+00 -0.12533242908E+04  0.12533242908E+04  0.00000000000E+00 0. -1.
         23    2    1    2    0    0 -0.22564359723E+02  0.28570567742E+03 -0.81599990299E+03  0.86970456031E+03  0.91614933848E+02 0.  0.
         23    2    1    2    0    0  0.23318571678E+02 -0.22705269906E+03 -0.34854049291E+03  0.42642336307E+03  0.90883031634E+02 0.  0.
        -11    1    4    4    0    0 -0.20628809564E+01 -0.19841787957E+03 -0.24041183963E+03  0.31172385704E+03  0.00000000000E+00 0.  1.
         11    1    4    4    0    0  0.25381452634E+02 -0.28634819496E+02 -0.10812865328E+03  0.11469950604E+03  0.00000000000E+00 0. -1.
        -13    1    3    3    0    0 -0.32475254420E+02  0.41853535098E+02 -0.20580419492E+03  0.21251288713E+03  0.00000000000E+00 0.  1.
         13    1    3    3    0    0  0.99108946966E+01  0.24385214233E+03 -0.61019570807E+03  0.65719167318E+03  0.00000000000E+00 0. -1.
          2    1    1    2  501    0 -0.75421195446E+00 -0.58652978362E+02  0.14425278491E+02  0.60405540855E+02  0.00000000000E+00 0. -1.
<scales pt_clust_5="13000.00000" pt_clust_6="13000.00000" pt_clust_7="13000.00000" pt_clust_8="13000.00000" pt_clust_9="58.65783"></scales>
<clustering>
<clus scale="   58.658">  1  9  2 -1</clus>
<clus scale="   90.883">  5  6 -1 -1</clus>
<clus scale="   91.615">  7  8 -1 -1</clus>
<clus scale="  278.038">  1  5  2 -1</clus>
<clus scale="   58.658">  1  5  2 -1</clus>
</clustering>
</event>
<event>
 9    1  0.1464797E-005  0.1004966E+03  0.7546771E-02  0.1279364E+00
          2   -1    0    0  502    0 -0.00000000000E+00  0.00000000000E+00  0.40405638899E+02  0.40405638899E+02  0.00000000000E+00 0. -1.
         21   -1    0    0  501  502  0.00000000000E+00 -0.00000000000E+00 -0.61073964121E+03  0.61073964121E+03  0.00000000000E+00 0. -1.
         23    2    1    2    0    0 -0.43647059306E+02  0.26763318606E+02 -0.11037900788E+03  0.15200282662E+03  0.91104296886E+02 0.  0.
         23    2    1    2    0    0  0.40908653230E+02  0.30643060646E+02 -0.14274547201E+03  0.17676864506E+03  0.90875568892E+02 0.  0.
        -11    1    4    4    0    0 -0.95716630904E+01  0.22198655404E+02  0.98797515596E+00  0.24194485549E+02  0.00000000000E+00 0. -1.
         11    1    4    4    0    0  0.50480316320E+02  0.84444052419E+01 -0.14373344717E+03  0.15257415951E+03  0.00000000000E+00 0.  1.
        -13    1    3    3    0    0 -0.17187465154E+02  0.34289340816E+02 -0.11748762703E+03  0.12359009005E+03  0.00000000000E+00 0.  1.
         13    1    3    3    0    0 -0.26459594152E+02 -0.75260222105E+01  0.71086191586E+01  0.28412736569E+02  0.00000000000E+00 0. -1.
          2    1    1    2  501    0  0.27384060758E+01 -0.57406379251E+02 -0.31720952243E+03  0.32237380843E+03  0.00000000000E+00 0. -1.
<scales pt_clust_5="13000.00000" pt_clust_6="13000.00000" pt_clust_7="13000.00000" pt_clust_8="13000.00000" pt_clust_9="57.47166"></scales>
<clustering>
<clus scale="   57.472">  2  9  1 -1</clus>
<clus scale="   90.876">  5  6 -1 -1</clus>
<clus scale="   91.104">  7  8 -1 -1</clus>
<clus scale="  100.289">  2  5  1 -1</clus>
<clus scale="   57.472">  2  5  1 -1</clus>
</clustering>
</event>
<event>
 9    1  0.1464797E-005  0.3744695E+03  0.7546771E-02  0.1053001E+00
         -2   -1    0    0    0  501 -0.00000000000E+00  0.00000000000E+00  0.51272193445E+03  0.51272193445E+03  0.00000000000E+00 0.  1.
         21   -1    0    0  501  502  0.00000000000E+00 -0.00000000000E+00 -0.42358261659E+03  0.42358261659E+03  0.00000000000E+00 0.  1.
         23    2    1    2    0    0 -0.34101517039E+03 -0.52014404382E+02  0.18475416159E+03  0.40154547925E+03  0.90043472744E+02 0.  0.
         23    2    1    2    0    0  0.40471466599E+03  0.89504098882E+02 -0.14226946835E+03  0.44735336870E+03  0.89885984892E+02 0.  0.
        -11    1    4    4    0    0  0.38621563688E+03  0.99479875273E+02 -0.14827800460E+03  0.42549398398E+03  0.00000000000E+00 0.  1.
         11    1    4    4    0    0  0.18499029114E+02 -0.99757763918E+01  0.60085362467E+01  0.21859384726E+02  0.00000000000E+00 0. -1.
        -11    1    3    3    0    0 -0.90297966540E+02  0.17989429507E+02  0.76183556784E+02  0.11950429557E+03  0.00000000000E+00 0. -1.
         11    1    3    3    0    0 -0.25071720385E+03 -0.70003833889E+02  0.10857060481E+03  0.28204118368E+03  0.00000000000E+00 0.  1.
         -2    1    1    2    0  502 -0.63699495599E+02 -0.37489694499E+02  0.46654624619E+02  0.87405703084E+02  0.00000000000E+00 0.  1.
<scales pt_clust_5="13000.00000" pt_clust_6="13000.00000" pt_clust_7="13000.00000" pt_clust_8="13000.00000" pt_clust_9="73.91284"></scales>
<clustering>
<clus scale="   73.913">  2  9  1 -1</clus>
<clus scale="   89.886">  5  6 -1 -1</clus>
<clus scale="   90.043">  7  8 -1 -1</clus>
<clus scale="  374.432">  2  5  1 -1</clus>
<clus scale="   73.913">  2  5  1 -1</clus>
</clustering>
</event>
<event>
 9    1  0.1464797E-005  0.1332767E+03  0.7546771E-02  0.1222790E+00
         21   -1    0    0  501  502  0.00000000000E+00  0.00000000000E+00  0.61624948696E+02  0.61624948696E+02  0.00000000000E+00 0.  1.
         -1   -1    0    0    0  501 -0.00000000000E+00 -0.00000000000E+00 -0.74711308908E+03  0.74711308908E+03  0.00000000000E+00 0.  1.
         23    2    1    2    0    0 -0.82089873716E+02 -0.59102513186E+02 -0.30949999087E+03  0.33831401391E+03  0.91838299364E+02 0.  0.
         23    2    1    2    0    0  0.11622668761E+03 -0.57538992231E+02 -0.24054724894E+03  0.28844929925E+03  0.92307316758E+02 0.  0.
        -11    1    4    4    0    0  0.13604953865E+02 -0.18441546394E+02 -0.13223026956E+03  0.13420145152E+03  0.00000000000E+00 0. -1.
         11    1    4    4    0    0  0.10262173374E+03 -0.39097445837E+02 -0.10831697939E+03  0.15424784774E+03  0.00000000000E+00 0.  1.
        -13    1    3    3    0    0 -0.29555383162E+02 -0.70087078844E+02 -0.12651404514E+03  0.14761952077E+03  0.00000000000E+00 0.  1.
         13    1    3    3    0    0 -0.52534490554E+02  0.10984565658E+02 -0.18298594573E+03  0.19069449314E+03  0.00000000000E+00 0. -1.
         -1    1    1    2    0  502 -0.34136813892E+02  0.11664150542E+03 -0.13544090057E+03  0.18197472461E+03  0.00000000000E+00 0.  1.
<scales pt_clust_5="13000.00000" pt_clust_6="13000.00000" pt_clust_7="13000.00000" pt_clust_8="13000.00000" pt_clust_9="121.53420"></scales>
<clustering>
<clus scale="   91.838">  7  8 -1 -1</clus>
<clus scale="   92.307">  5  6 -1 -1</clus>
<clus scale="  121.534">  1  9  2 -1</clus>
<clus scale="  132.952">  2  7  1 -1</clus>
<clus scale="  121.534">  1  5  2 -1</clus>
</clustering>
</event>
<event>
 9    1  0.1464797E-005  0.1421428E+03  0.7546771E-02  0.1210664E+00
         21   -1    0    0  501  502  0.00000000000E+00  0.00000000000E+00  0.88946329378E+02  0.88946329378E+02  0.00000000000E+00 0.  1.
          1   -1    0    0  502    0 -0.00000000000E+00 -0.00000000000E+00 -0.51920874888E+03  0.51920874888E+03  0.00000000000E+00 0. -1.
         23    2    1    2    0    0 -0.65671207773E+02  0.61605040182E+02 -0.22659746459E+03  0.26047518166E+03  0.91613431305E+02 0.  0.
         23    2    1    2    0    0  0.58478707289E+02 -0.14468624167E+03 -0.19190884885E+03  0.26346336536E+03  0.90719738120E+02 0.  0.
        -13    1    3    3    0    0 -0.57729531629E+02  0.15499543839E+02 -0.19516176720E+03  0.20411038694E+03  0.00000000000E+00 0.  1.
         13    1    3    3    0    0 -0.79416761444E+01  0.46105496344E+02 -0.31435697391E+02  0.56364794718E+02  0.00000000000E+00 0. -1.
        -13    1    4    4    0    0  0.81906221034E+02 -0.12709629434E+03 -0.15962910972E+03  0.21987166654E+03  0.00000000000E+00 0.  1.
         13    1    4    4    0    0 -0.23427513745E+02 -0.17589947337E+02 -0.32279739129E+02  0.43591698818E+02  0.00000000000E+00 0. -1.
          1    1    1    2  501    0  0.71925004845E+01  0.83081201491E+02 -0.11756106065E+02  0.84216531241E+02  0.00000000000E+00 0. -1.
<scales pt_clust_5="13000.00000" pt_clust_6="13000.00000" pt_clust_7="13000.00000" pt_clust_8="13000.00000" pt_clust_9="83.39195"></scales>
<clustering>
<clus scale="   83.392">  1  9  2 -1</clus>
<clus scale="   90.720">  7  8 -1 -1</clus>
<clus scale="   91.613">  5  6 -1 -1</clus>
<clus scale="  141.568">  1  7  2 -1</clus>
<clus scale="   83.392">  1  5  2 -1</clus>
</clustering>
</event>
<event>
 9    1  0.1464797E-005  0.1117727E+03  0.7546771E-02  0.1261556E+00
          2   -1    0    0  502    0 -0.00000000000E+00  0.00000000000E+00  0.81935763006E+03  0.81935763006E+03  0.00000000000E+00 0. -1.
         21   -1    0    0  501  502  0.00000000000E+00 -0.00000000000E+00 -0.26843010831E+02  0.26843010831E+02  0.00000000000E+00 0.  1.
         23    2    1    2    0    0 -0.14598109134E+02  0.71972410357E+02  0.63165346457E+03  0.64237668440E+03  0.90931692603E+02 0.  0.
         23    2    1    2    0    0 -0.30458235777E+01 -0.43250815433E+02  0.12668417762E+03  0.15582078850E+03  0.79695214377E+02 0.  0.
        -11    1    4    4    0    0 -0.39979275571E+02 -0.17816231021E+02  0.45895200854E+02  0.63420265093E+02  0.00000000000E+00 0.  1.
         11    1    4    4    0    0  0.36933451993E+02 -0.25434584412E+02  0.80788976764E+02  0.92400523412E+02  0.00000000000E+00 0. -1.
        -13    1    3    3    0    0  0.88636140925E+01 -0.20017105324E+02  0.11071021854E+03  0.11285389071E+03  0.00000000000E+00 0. -1.
         13    1    3    3    0    0 -0.23461723227E+02  0.91989515681E+02  0.52094324603E+03  0.52952279369E+03  0.00000000000E+00 0.  1.
          2    1    1    2  501    0  0.17643932712E+02 -0.28721594924E+02  0.34176977037E+02  0.48003167978E+02  0.00000000000E+00 0. -1.
<scales pt_clust_5="13000.00000" pt_clust_6="13000.00000" pt_clust_7="13000.00000" pt_clust_8="13000.00000" pt_clust_9="33.70814"></scales>
<clustering>
<clus scale="   33.708">  2  9  1 -1</clus>
<clus scale="   79.695">  5  6 -1 -1</clus>
<clus scale="   90.932">  7  8 -1 -1</clus>
<clus scale="  102.839">  2  5  1 -1</clus>
<clus scale="   33.708">  2  5  1 -1</clus>
</clustering>
</event>
<event>
 9    1  0.1464797E-005  0.1355724E+03  0.7546771E-02  0.1220070E+00
          2   -1    0    0  502    0 -0.00000000000E+00  0.00000000000E+00  0.60097132410E+03  0.60097132410E+03  0.00000000000E+00 0. -1.
         21   -1    0    0  501  502  0.00000000000E+00 -0.00000000000E+00 -0.76763374099E+02  0.76763374099E+02  0.00000000000E+00 0. -1.
         23    2    1    2    0    0 -0.25736447330E+02 -0.67409681011E+02  0.22505183628E+03  0.25429924355E+03  0.93879425013E+02 0.  0.
         23    2    1    2    0    0  0.11750191833E+03  0.12022339387E+03  0.21824431023E+03  0.29018039892E+03  0.91179601458E+02 0.  0.
        -11    1    3    3    0    0 -0.26783639854E+02 -0.16538841994E+02  0.95839608913E+01  0.32905151036E+02  0.00000000000E+00 0.  1.
         11    1    3    3    0    0  0.10471925240E+01 -0.50870839017E+02  0.21546787539E+03  0.22139409252E+03  0.00000000000E+00 0. -1.
        -13    1    4    4    0    0  0.45332826397E+02  0.59253092544E+02  0.16652648729E+03  0.18247483414E+03  0.00000000000E+00 0. -1.
         13    1    4    4    0    0  0.72169091935E+02  0.60970301328E+02  0.51717822944E+02  0.10770556478E+03  0.00000000000E+00 0.  1.
          2    1    1    2  501    0 -0.91765471002E+02 -0.52813712861E+02  0.80911803489E+02  0.13325505573E+03  0.00000000000E+00 0. -1.
<scales pt_clust_5="13000.00000" pt_clust_6="13000.00000" pt_clust_7="13000.00000" pt_clust_8="13000.00000" pt_clust_9="105.87818"></scales>
<clustering>
<clus scale="   91.180">  7  8 -1 -1</clus>
<clus scale="   93.879">  5  6 -1 -1</clus>
<clus scale="  105.878">  2  9  1 -1</clus>
<clus scale="  133.717">  2  7  1 -1</clus>
<clus scale="  105.878">  2  5  1 -1</clus>
</clustering>
</event>
<event>
 9    1  0.1464797E-005  0.2011728E+03  0.7546771E-02  0.1167327E+00
         21   -1    0    0  501  502  0.00000000000E+00  0.00000000000E+00  0.10929433808E+03  0.10929433808E+03  0.00000000000E+00 0. -1.
          2   -1    0    0  502    0 -0.00000000000E+00 -0.00000000000E+00 -0.78218892834E+03  0.78218892834E+03  0.00000000000E+00 0. -1.
         23    2    1    2    0    0  0.81595044489E+02 -0.43411905308E+02 -0.32010443975E+03  0.34562950114E+03  0.91926899786E+02 0.  0.
         23    2    1    2    0    0 -0.66933848388E+02 -0.15835040926E+03 -0.94279017361E+02  0.21759930877E+03  0.94371255631E+02 0.  0.
        -11    1    3    3    0    0  0.40171525505E+02  0.23287431591E+02 -0.74551512427E+02  0.87829288604E+02  0.00000000000E+00 0.  1.
         11    1    3    3    0    0  0.41423518984E+02 -0.66699336899E+02 -0.24555292732E+03  0.25780021253E+03  0.00000000000E+00 0. -1.
        -11    1    4    4    0    0 -0.85043110209E+02 -0.84831208064E+02 -0.52151580545E+02  0.13095209738E+03  0.00000000000E+00 0. -1.
         11    1    4    4    0    0  0.18109261821E+02 -0.73519201199E+02 -0.42127436816E+02  0.86647211389E+02  0.00000000000E+00 0.  1.
          2    1    1    2  501    0 -0.14661196101E+02  0.20176231457E+03 -0.25851113315E+03  0.32825445651E+03  0.00000000000E+00 0. -1.
<scales pt_clust_5="13000.00000" pt_clust_6="13000.00000" pt_clust_7="13000.00000" pt_clust_8="13000.00000" pt_clust_9="177.66422"></scales>
<clustering>
<clus scale="   91.927">  5  6 -1 -1</clus>
<clus scale="   94.371">  7  8 -1 -1</clus>
<clus scale="  130.357">  2  5  1 -1</clus>
<clus scale="  177.664">  1  9  2 -1</clus>
<clus scale="  177.664">  1  5  2 -1</clus>
</clustering>
</event>
<event>
 9    1  0.1464797E-005  0.2158545E+03  0.7546771E-02  0.1169553E+00
          1   -1    0    0  502    0 -0.00000000000E+00  0.00000000000E+00  0.35919630037E+03  0.35919630037E+03  0.00000000000E+00 0. -1.
         21   -1    0    0  501  502  0.00000000000E+00 -0.00000000000E+00 -0.26447158372E+03  0.26447158372E+03  0.00000000000E+00 0. -1.
         23    2    1    2    0    0  0.12535472175E+02 -0.38278974845E+02  0.22433609025E+02  0.10275052019E+03  0.91825838454E+02 0.  0.
         23    2    1    2    0    0  0.66875906751E+02 -0.14970459768E+03  0.20520400852E+03  0.27738126828E+03  0.89150599602E+02 0.  0.
        -11    1    3    3    0    0 -0.46712959418E+01 -0.65726350147E+02  0.24476251973E+02  0.70291258490E+02  0.00000000000E+00 0. -1.
         11    1    3    3    0    0  0.17206768117E+02  0.27447375302E+02 -0.20426429485E+01  0.32459261701E+02  0.00000000000E+00 0.  1.
        -13    1    4    4    0    0 -0.19116717919E+02 -0.34357245510E+02  0.24222958966E+02  0.46180309268E+02  0.00000000000E+00 0.  1.
         13    1    4    4    0    0  0.85992624670E+02 -0.11534735217E+03  0.18098104955E+03  0.23120095901E+03  0.00000000000E+00 0. -1.
          1    1    1    2  501    0 -0.79411378926E+02  0.18798357253E+03 -0.13291290089E+03  0.24353609561E+03  0.00000000000E+00 0. -1.
<scales pt_clust_5="13000.00000" pt_clust_6="13000.00000" pt_clust_7="13000.00000" pt_clust_8="13000.00000" pt_clust_9="196.58420"></scales>
<clustering>
<clus scale="   89.151">  7  8 -1 -1</clus>
<clus scale="   91.826">  5  6 -1 -1</clus>
<clus scale="  100.272">  1  5  2 -1</clus>
<clus scale="  196.584">  2  9  1 -1</clus>
<clus scale="  196.584">  2  5  1 -1</clus>
</clustering>
</event>
<event>
 9    1  0.1464797E-005  0.9027354E+02  0.7546771E-02  0.1302645E+00
         -1   -1    0    0    0  501 -0.00000000000E+00  0.00000000000E+00  0.42491559721E+03  0.42491559721E+03  0.00000000000E+00 0.  1.
         21   -1    0    0  501  502  0.00000000000E+00 -0.00000000000E+00 -0.40131335563E+02  0.40131335563E+02  0.00000000000E+00 0.  1.
         23    2    1    2    0    0 -0.63246918466E+01  0.81448605509E+00  0.23206228514E+03  0.24890232367E+03  0.89770805009E+02 0.  0.
         23    2    1    2    0    0 -0.23212794066E+02  0.22538120240E+02  0.15125538577E+03  0.17846227659E+03  0.89015682708E+02 0.  0.
        -11    1    4    4    0    0 -0.49533329513E+02 -0.74958247026E+01  0.11088606698E+03  0.12167768066E+03  0.00000000000E+00 0.  1.
         11    1    4    4    0    0  0.26320535447E+02  0.30033944943E+02  0.40369318796E+02  0.56784595931E+02  0.00000000000E+00 0. -1.
        -11    1    3    3    0    0 -0.26102772324E+02  0.38811750647E+02  0.10955766837E+03  0.11912426038E+03  0.00000000000E+00 0.  1.
         11    1    3    3    0    0  0.19778080477E+02 -0.37997264592E+02  0.12250461677E+03  0.12977806330E+03  0.00000000000E+00 0. -1.
         -1    1    1    2    0  502  0.29537485912E+02 -0.23352606296E+02  0.14665907341E+01  0.37682332507E+02  0.00000000000E+00 0.  1.
<scales pt_clust_5="13000.00000" pt_clust_6="13000.00000" pt_clust_7="13000.00000" pt_clust_8="13000.00000" pt_clust_9="37.65378"></scales>
<clustering>
<clus scale="   37.654">  2  9  1 -1</clus>
<clus scale="   89.016">  5  6 -1 -1</clus>
<clus scale="   89.523">  2  5  1 -1</clus>
<clus scale="   89.771">  7  8 -1 -1</clus>
<clus scale="   37.654">  2  5  1 -1</clus>
</clustering>
</event>
<event>
 9    1  0.1464797E-005  0.9266816E+02  0.7546771E-02  0.1296677E+00
         -2   -1    0    0    0  501 -0.00000000000E+00  0.00000000000E+00  0.74876268573E+02  0.74876268573E+02  0.00000000000E+00 0.  1.
         21   -1    0    0  501  502  0.00000000000E+00 -0.00000000000E+00 -0.51440225687E+03  0.51440225687E+03  0.00000000000E+00 0. -1.
         23    2    1    2    0    0 -0.23198090677E+01  0.20526041617E+01  0.21598300827E+02  0.94601244373E+02  0.92050606409E+02 0.  0.
         23    2    1    2    0    0  0.22821771817E+02 -0.43187410224E+02 -0.16509411292E+03  0.19510046626E+03  0.91772218806E+02 0.  0.
        -11    1    4    4    0    0  0.42418775376E+02  0.40186677554E+01 -0.34382204202E+02  0.54750690961E+02  0.00000000000E+00 0.  1.
         11    1    4    4    0    0 -0.19597003558E+02 -0.47206077980E+02 -0.13071190872E+03  0.14034977530E+03  0.00000000000E+00 0. -1.
        -13    1    3    3    0    0 -0.31988226624E+02 -0.53943482235E+01 -0.23535667383E+02  0.40078339218E+02  0.00000000000E+00 0. -1.
         13    1    3    3    0    0  0.29668417556E+02  0.74469523852E+01  0.45133968211E+02  0.54522905155E+02  0.00000000000E+00 0.  1.
         -2    1    1    2    0  502 -0.20501962749E+02  0.41134806063E+02 -0.29603017621E+03  0.29957681481E+03  0.00000000000E+00 0.  1.
<scales pt_clust_5="13000.00000" pt_clust_6="13000.00000" pt_clust_7="13000.00000" pt_clust_8="13000.00000" pt_clust_9="45.96088"></scales>
<clustering>
<clus scale="   45.961">  2  9  1 -1</clus>
<clus scale="   91.772">  5  6 -1 -1</clus>
<clus scale="   92.051">  7  8 -1 -1</clus>
<clus scale="   92.392">  2  5  1 -1</clus>
<clus scale="   45.961">  2  5  1 -1</clus>
</clustering>
</event>
<event>
 9    1  0.1464797E-005  0.9388544E+02  0.7546771E-02  0.1294922E+00
         21   -1    0    0  501  502  0.00000000000E+00  0.00000000000E+00  0.53648103560E+02  0.53648103560E+02  0.00000000000E+00 0. -1.
          1   -1    0    0  502    0 -0.00000000000E+00 -0.00000000000E+00 -0.29708315123E+03  0.29708315123E+03  0.00000000000E+00 0. -1.
         23    2    1    2    0    0  0.21268743449E+02  0.32809380566E+01 -0.13952277114E+03  0.16793373219E+03  0.90950595036E+02 0.  0.
         23    2    1    2    0    0  0.22462341340E+02 -0.24322560649E+02 -0.51620795042E+02  0.11145639355E+03  0.93068133360E+02 0.  0.
        -13    1    4    4    0    0  0.64122954722E+01  0.34586412304E+02 -0.70825424040E+01  0.35881748232E+02  0.00000000000E+00 0.  1.
         13    1    4    4    0    0  0.16050045867E+02 -0.58908972953E+02 -0.44538252638E+02  0.75574645317E+02  0.00000000000E+00 0. -1.
        -13    1    3    3    0    0 -0.28147401373E+02  0.10781637702E+02 -0.14821647178E+02  0.33588705552E+02  0.00000000000E+00 0.  1.
         13    1    3    3    0    0  0.49416144822E+02 -0.75006996453E+01 -0.12470112396E+03  0.13434502664E+03  0.00000000000E+00 0. -1.
          1    1    1    2  501    0 -0.43731084789E+02  0.21041622592E+02 -0.52291481481E+02  0.71341129047E+02  0.00000000000E+00 0. -1.
<scales pt_clust_5="13000.00000" pt_clust_6="13000.00000" pt_clust_7="13000.00000" pt_clust_8="13000.00000" pt_clust_9="48.52999"></scales>
<clustering>
<clus scale="   48.530">  1  9  2 -1</clus>
<clus scale="   90.951">  7  8 -1 -1</clus>
<clus scale="   91.787">  2  7  1 -1</clus>
<clus scale="   93.068">  5  6 -1 -1</clus>
<clus scale="   48.530">  1  5  2 -1</clus>
</clustering>
</event>
<event>
 9    1  0.1464797E-005  0.1385608E+03  0.7546771E-02  0.1219167E+00
         -1   -1    0    0    0  501 -0.00000000000E+00  0.00000000000E+00  0.49907137053E+03  0.49907137053E+03  0.00000000000E+00 0.  1.
         21   -1    0    0  501  502  0.00000000000E+00 -0.00000000000E+00 -0.19918146341E+03  0.19918146341E+03  0.00000000000E+00 0.  1.
         23    2    1    2    0    0  0.48893724392E+02 -0.68204229505E+02  0.31093738725E+03  0.33878330309E+03  0.10511733660E+03 0.  0.
         23    2    1    2    0    0 -0.45348007469E+02  0.93171551562E+02  0.14595065097E+03  0.20045898892E+03  0.90248733626E+02 0.  0.
        -11    1    4    4    0    0 -0.21960522957E+01  0.52676125969E+02  0.12829254088E+03  0.13870318287E+03  0.00000000000E+00 0.  1.
         11    1    4    4    0    0 -0.43151955173E+02  0.40495425593E+02  0.17658110081E+02  0.61755806049E+02  0.00000000000E+00 0. -1.
        -11    1    3    3    0    0 -0.31997611843E+02 -0.21402389384E+02  0.63153092190E+02  0.73960952456E+02  0.00000000000E+00 0. -1.
         11    1    3    3    0    0  0.80891336235E+02 -0.46801840121E+02  0.24778429506E+03  0.26482235063E+03  0.00000000000E+00 0.  1.
         -1    1    1    2    0  502 -0.35457169229E+01 -0.24967322057E+02 -0.15699813109E+03  0.15901054193E+03  0.00000000000E+00 0.  1.
<scales pt_clust_5="13000.00000" pt_clust_6="13000.00000" pt_clust_7="13000.00000" pt_clust_8="13000.00000" pt_clust_9="25.21784"></scales>
<clustering>
<clus scale="   25.218">  2  9  1 -1</clus>
<clus scale="   90.249">  5  6 -1 -1</clus>
<clus scale="  105.117">  7  8 -1 -1</clus>
<clus scale="  127.649">  2  5  1 -1</clus>
<clus scale="   25.218">  2  5  1 -1</clus>
</clustering>
</event>
<event>
 9    1  0.1464797E-005  0.1591865E+03  0.7546771E-02  0.1207059E+00
         21   -1    0    0  501  502  0.00000000000E+00  0.00000000000E+00  0.72193730817E+02  0.72193730817E+02  0.00000000000E+00 0. -1.
          2   -1    0    0  502    0 -0.00000000000E+00 -0.00000000000E+00 -0.74882341469E+03  0.74882341469E+03  0.00000000000E+00 0. -1.
         23    2    1    2    0    0  0.15568577005E+02 -0.51039440817E+02 -0.13808803414E+03  0.17584593846E+03  0.94900388782E+02 0.  0.
         23    2    1    2    0    0  0.95232182137E+02  0.17527787248E+02 -0.50223655374E+03  0.52385385814E+03  0.11315881291E+03 0.  0.
        -11    1    3    3    0    0  0.53874031718E+02 -0.17374563221E+02 -0.85937409660E+02  0.10290541832E+03  0.00000000000E+00 0. -1.
         11    1    3    3    0    0 -0.38305454713E+02 -0.33664877596E+02 -0.52150624477E+02  0.72940520136E+02  0.00000000000E+00 0.  1.
        -13    1    4    4    0    0 -0.17167772426E+02  0.21253007162E+02 -0.42211006923E+02  0.50281127961E+02  0.00000000000E+00 0.  1.
         13    1    4    4    0    0  0.11239995456E+03 -0.37252199137E+01 -0.46002554682E+03  0.47357273018E+03  0.00000000000E+00 0. -1.
          2    1    1    2  501    0 -0.11080075914E+03  0.33511653569E+02 -0.36305096000E+02  0.12131734891E+03  0.00000000000E+00 0. -1.
<scales pt_clust_5="13000.00000" pt_clust_6="13000.00000" pt_clust_7="13000.00000" pt_clust_8="13000.00000" pt_clust_9="111.96164"></scales>
<clustering>
<clus scale="   94.900">  5  6 -1 -1</clus>
<clus scale="  108.874">  2  5  1 -1</clus>
<clus scale="  111.962">  1  9  2 -1</clus>
<clus scale="  113.159">  7  8 -1 -1</clus>
<clus scale="  111.962">  1  5  2 -1</clus>
</clustering>
</event>
<event>
 9    1  0.1464797E-005  0.1289781E+03  0.7546771E-02  0.1229060E+00
          1   -1    0    0  502    0 -0.00000000000E+00  0.00000000000E+00  0.28271863660E+03  0.28271863660E+03  0.00000000000E+00 0. -1.
         21   -1    0    0  501  502  0.00000000000E+00 -0.00000000000E+00 -0.86939258801E+02  0.86939258801E+02  0.00000000000E+00 0.  1.
         23    2    1    2    0    0  0.84422935987E+01 -0.86891547709E+02  0.13744326746E+03  0.18705093763E+03  0.92065129742E+02 0.  0.
         23    2    1    2    0    0  0.24528410912E+02  0.97606572328E+02  0.34387869876E+02  0.14047149373E+03  0.91766165077E+02 0.  0.
        -11    1    3    3    0    0  0.41295875872E+02 -0.88969235724E+01  0.45522340754E+02  0.62103044376E+02  0.00000000000E+00 0.  1.
         11    1    3    3    0    0 -0.32853582274E+02 -0.77994624137E+02  0.91920926703E+02  0.12494789325E+03  0.00000000000E+00 0. -1.
        -13    1    4    4    0    0  0.35999624894E+02  0.78971779509E+02 -0.13487862352E+02  0.87831869968E+02  0.00000000000E+00 0.  1.
         13    1    4    4    0    0 -0.11471213981E+02  0.18634792819E+02  0.47875732227E+02  0.52639623763E+02  0.00000000000E+00 0. -1.
          1    1    1    2  501    0 -0.32970704511E+02 -0.10715024619E+02  0.23948240471E+02  0.42135464044E+02  0.00000000000E+00 0. -1.
<scales pt_clust_5="13000.00000" pt_clust_6="13000.00000" pt_clust_7="13000.00000" pt_clust_8="13000.00000" pt_clust_9="34.66815"></scales>
<clustering>
<clus scale="   34.668">  2  9  1 -1</clus>
<clus scale="   91.766">  7  8 -1 -1</clus>
<clus scale="   92.065">  5  6 -1 -1</clus>
<clus scale="  128.765">  2  7  1 -1</clus>
<clus scale="   34.668">  2  5  1 -1</clus>
</clustering>
</event>
<event>
 9    1  0.1464797E-005  0.3166594E+03  0.7546771E-02  0.1077205E+00
          1   -1    0    0  502    0 -0.00000000000E+00  0.00000000000E+00  0.18366921318E+04  0.18366921318E+04  0.00000000000E+00 0. -1.
         21   -1    0    0  501  502  0.00000000000E+00 -0.00000000000E+00 -0.11311244071E+03  0.11311244071E+03  0.00000000000E+00 0. -1.
         23    2    1    2    0    0 -0.10051777019E+03 -0.30120810680E+03  0.14291789125E+04  0.14668801939E+04  0.91405654008E+02 0.  0.
         23    2    1    2    0    0  0.15360141768E+03  0.20853642029E+03  0.19381083040E+03  0.33621291761E+03  0.91627800849E+02 0.  0.
        -11    1    4    4    0    0  0.43496129243E+02  0.10514882692E+02  0.53350930869E+02  0.69633309858E+02  0.00000000000E+00 0. -1.
         11    1    4    4    0    0  0.11010528844E+03  0.19802153760E+03  0.14045989953E+03  0.26657960776E+03  0.00000000000E+00 0.  1.
        -13    1    3    3    0    0 -0.11593397822E+03 -0.26482307669E+03  0.12008428950E+04  0.12351500345E+04  0.00000000000E+00 0. -1.
         13    1    3    3    0    0  0.15416208031E+02 -0.36385030115E+02  0.22833601750E+03  0.23173015939E+03  0.00000000000E+00 0.  1.
          1    1    1    2  501    0 -0.53083647492E+02  0.92671686512E+02  0.10058994819E+03  0.14671146100E+03  0.00000000000E+00 0. -1.
<scales pt_clust_5="13000.00000" pt_clust_6="13000.00000" pt_clust_7="13000.00000" pt_clust_8="13000.00000" pt_clust_9="106.79848"></scales>
<clustering>
<clus scale="   91.406">  7  8 -1 -1</clus>
<clus scale="   91.628">  5  6 -1 -1</clus>
<clus scale="  106.798">  2  9  1 -1</clus>
<clus scale="  316.595">  1  7  2 -1</clus>
<clus scale="  106.798">  2  5  1 -1</clus>
</clustering>
</event>
<event>
 9    1  0.1464797E-005  0.1000499E+03  0.7546771E-02  0.1283006E+00
          1   -1    0    0  502    0 -0.00000000000E+00  0.00000000000E+00  0.59893363513E+03  0.59893363513E+03  0.00000000000E+00 0. -1.
         21   -1    0    0  501  502  0.00000000000E+00 -0.00000000000E+00 -0.34360289735E+02  0.34360289735E+02  0.00000000000E+00 0. -1.
         23    2    1    2    0    0 -0.43019875697E+02  0.25299261543E+02  0.34360262847E+03  0.35870409228E+03  0.90083834209E+02 0.  0.
         23    2    1    2    0    0  0.11140520224E+01  0.21080427239E+02  0.15811117878E+03  0.18594167905E+03  0.95548613954E+02 0.  0.
        -11    1    4    4    0    0 -0.21439224859E+02 -0.30637206539E+02  0.38390181895E+02  0.53591835693E+02  0.00000000000E+00 0. -1.
         11    1    4    4    0    0  0.22553276881E+02  0.51717633778E+02  0.11972099689E+03  0.13234984336E+03  0.00000000000E+00 0.  1.
        -13    1    3    3    0    0 -0.57890705241E+02 -0.68425802438E+01  0.13400052130E+03  0.14613108624E+03  0.00000000000E+00 0. -1.
         13    1    3    3    0    0  0.14870829545E+02  0.32141841787E+02  0.20960210717E+03  0.21257300604E+03  0.00000000000E+00 0.  1.
          1    1    1    2  501    0  0.41905823674E+02 -0.46379688782E+02  0.62859538137E+02  0.88648153529E+02  0.00000000000E+00 0. -1.
<scales pt_clust_5="13000.00000" pt_clust_6="13000.00000" pt_clust_7="13000.00000" pt_clust_8="13000.00000" pt_clust_9="62.50739"></scales>
<clustering>
<clus scale="   62.507">  2  9  1 -1</clus>
<clus scale="   90.084">  7  8 -1 -1</clus>
<clus scale="   94.845">  1  7  2 -1</clus>
<clus scale="   95.549">  5  6 -1 -1</clus>
<clus scale="   62.507">  2  5  1 -1</clus>
</clustering>
</event>
<event>
 9    1  0.1464797E-005  0.1631441E+03  0.7546771E-02  0.1185864E+00
         -1   -1    0    0    0  501 -0.00000000000E+00  0.00000000000E+00  0.24460920328E+03  0.24460920328E+03  0.00000000000E+00 0.  1.
         21   -1    0    0  501  502  0.00000000000E+00 -0.00000000000E+00 -0.21421723604E+03  0.21421723604E+03  0.00000000000E+00 0. -1.
         23    2    1    2    0    0 -0.76300280195E+02 -0.10735339886E+03  0.15856623540E+03  0.22550305214E+03  0.91443373257E+02 0.  0.
         23    2    1    2    0    0  0.83738677251E+02  0.12604595440E+03 -0.11104963852E+03  0.20690380499E+03  0.87048340680E+02 0.  0.
        -11    1    3    3    0    0 -0.92828788779E+01 -0.89334940891E+02  0.10253322892E+03  0.13630835094E+03  0.00000000000E+00 0.  1.
         11    1    3    3    0    0 -0.67017401318E+02 -0.18018457968E+02  0.56033006477E+02  0.89194701198E+02  0.00000000000E+00 0. -1.
        -13    1    4    4    0    0  0.93507619820E+02  0.72339198139E+02 -0.89228203206E+02  0.14811585600E+03  0.00000000000E+00 0.  1.
         13    1    4    4    0    0 -0.97689425691E+01  0.53706756259E+02 -0.21821435312E+02  0.58787948985E+02  0.00000000000E+00 0. -1.
         -1    1    1    2    0  502 -0.74383970554E+01 -0.18692555539E+02 -0.17124629631E+02  0.26419582194E+02  0.00000000000E+00 0.  1.
<scales pt_clust_5="13000.00000" pt_clust_6="13000.00000" pt_clust_7="13000.00000" pt_clust_8="13000.00000" pt_clust_9="20.11819"></scales>
<clustering>
<clus scale="   20.118">  2  9  1 -1</clus>
<clus scale="   87.048">  7  8 -1 -1</clus>
<clus scale="   91.443">  5  6 -1 -1</clus>
<clus scale="  160.722">  2  7  1 -1</clus>
<clus scale="   20.118">  2  5  1 -1</clus>
</clustering>
</event>
<event>
 9    1  0.1464797E-005  0.9686523E+02  0.7546771E-02  0.1287419E+00
         21   -1    0    0  501  502  0.00000000000E+00  0.00000000000E+00  0.14255431165E+03  0.14255431165E+03  0.00000000000E+00 0. -1.
          1   -1    0    0  502    0 -0.00000000000E+00 -0.00000000000E+00 -0.11509666944E+03  0.11509666944E+03  0.00000000000E+00 0. -1.
         23    2    1    2    0    0  0.38737986426E+01  0.62426689165E+01 -0.52098410486E+01  0.93879001477E+02  0.93445958947E+02 0.  0.
         23    2    1    2    0    0 -0.55358564866E+02  0.49306759908E+00  0.15536743597E+02  0.10909553550E+03  0.92712629372E+02 0.  0.
        -11    1    4    4    0    0 -0.61562117489E+02 -0.20701037610E+02 -0.19382048769E+02  0.67779724714E+02  0.00000000000E+00 0. -1.
         11    1    4    4    0    0  0.62035526222E+01  0.21194105209E+02  0.34918792366E+02  0.41315810787E+02  0.00000000000E+00 0.  1.
        -13    1    3    3    0    0  0.46130427088E+02 -0.60331794191E+01  0.94970998626E+01  0.47482738580E+02  0.00000000000E+00 0.  1.
         13    1    3    3    0    0 -0.42256628445E+02  0.12275848336E+02 -0.14706940911E+02  0.46396262898E+02  0.00000000000E+00 0. -1.
          1    1    1    2  501    0  0.51484766224E+02 -0.67357365156E+01  0.17130739661E+02  0.54676444113E+02  0.00000000000E+00 0. -1.
<scales pt_clust_5="13000.00000" pt_clust_6="13000.00000" pt_clust_7="13000.00000" pt_clust_8="13000.00000" pt_clust_9="51.92351"></scales>
<clustering>
<clus scale="   51.924">  1  9  2 -1</clus>
<clus scale="   92.713">  5  6 -1 -1</clus>
<clus scale="   93.446">  7  8 -1 -1</clus>
<clus scale="   96.158">  1  5  2 -1</clus>
<clus scale="   51.924">  1  5  2 -1</clus>
</clustering>
</event>
<event>
 9    1  0.1464797E-005  0.2731867E+03  0.7546771E-02  0.1099495E+00
         21   -1    0    0  501  502  0.00000000000E+00  0.00000000000E+00  0.16473559217E+03  0.16473559217E+03  0.00000000000E+00 0. -1.
          2   -1    0    0  502    0 -0.00000000000E+00 -0.00000000000E+00 -0.11753449223E+04  0.11753449223E+04  0.00000000000E+00 0. -1.
         23    2    1    2    0    0  0.15498261056E+02 -0.22416603483E+03 -0.49639989270E+03  0.55243940164E+03  0.91026544186E+02 0.  0.
         23    2    1    2    0    0 -0.18452252779E+02  0.30299703530E+03 -0.59532227410E+03  0.67449366486E+03  0.91571856284E+02 0.  0.
        -11    1    3    3    0    0 -0.19494068549E+02 -0.18633480502E+03 -0.34617626881E+03  0.39362251887E+03  0.00000000000E+00 0.  1.
         11    1    3    3    0    0  0.34992329604E+02 -0.37831229807E+02 -0.15022362389E+03  0.15881688277E+03  0.00000000000E+00 0. -1.
        -13    1    4    4    0    0 -0.27926035633E+02  0.21450405354E+02 -0.72894246107E+02  0.80954026902E+02  0.00000000000E+00 0.  1.
         13    1    4    4    0    0  0.94737828538E+01  0.28154662995E+03 -0.52242802799E+03  0.59353963796E+03  0.00000000000E+00 0. -1.
          2    1    1    2  501    0  0.29539917231E+01 -0.78831000472E+02  0.81112836681E+02  0.11314744795E+03  0.00000000000E+00 0. -1.
<scales pt_clust_5="13000.00000" pt_clust_6="13000.00000" pt_clust_7="13000.00000" pt_clust_8="13000.00000" pt_clust_9="78.88633"></scales>
<clustering>
<clus scale="   78.886">  1  9  2 -1</clus>
<clus scale="   91.027">  5  6 -1 -1</clus>
<clus scale="   91.572">  7  8 -1 -1</clus>
<clus scale="  273.004">  2  5  1 -1</clus>
<clus scale="   78.886">  1  5  2 -1</clus>
</clustering>
</event>
<event>
 9    1  0.1464797E-005  0.1075981E+03  0.7546771E-02  0.1265789E+00
         21   -1    0    0  501  502  0.00000000000E+00  0.00000000000E+00  0.43497324677E+03  0.43497324677E+03  0.00000000000E+00 0. -1.
         -3   -1    0    0    0  501 -0.00000000000E+00 -0.00000000000E+00 -0.60070008660E+02  0.60070008660E+02  0.00000000000E+00 0.  1.
         23    2    1    2    0    0 -0.57399097081E+01  0.25038144513E+02  0.13096741967E+03  0.16173436391E+03  0.91354716419E+02 0.  0.
         23    2    1    2    0    0 -0.46231446501E+02 -0.90122836960E+02  0.18814229600E+03  0.23305942168E+03  0.93057498894E+02 0.  0.
        -13    1    4    4    0    0  0.82296997136E+01 -0.46657001959E+02  0.20708926733E+02  0.51705545502E+02  0.00000000000E+00 0.  1.
         13    1    4    4    0    0 -0.54461146214E+02 -0.43465835001E+02  0.16743336927E+03  0.18135387617E+03  0.00000000000E+00 0. -1.
        -13    1    3    3    0    0  0.40352213265E+01 -0.34238020110E+02  0.41240430766E+02  0.53752192160E+02  0.00000000000E+00 0. -1.
         13    1    3    3    0    0 -0.97751310346E+01  0.59276164624E+02  0.89726988899E+02  0.10798217175E+03  0.00000000000E+00 0.  1.
         -3    1    1    2    0  502  0.51971356209E+02  0.65084692447E+02  0.55793522448E+02  0.10024946985E+03  0.00000000000E+00 0.  1.
<scales pt_clust_5="13000.00000" pt_clust_6="13000.00000" pt_clust_7="13000.00000" pt_clust_8="13000.00000" pt_clust_9="83.28893"></scales>
<clustering>
<clus scale="   83.289">  1  9  2 -1</clus>
<clus scale="   91.355">  7  8 -1 -1</clus>
<clus scale="   93.057">  5  6 -1 -1</clus>
<clus scale="  106.129">  2  7  1 -1</clus>
<clus scale="   83.289">  1  5  2 -1</clus>
</clustering>
</event>
<event>
 9    1  0.1464797E-005  0.1223206E+03  0.7546771E-02  0.1241142E+00
         21   -1    0    0  501  502  0.00000000000E+00  0.00000000000E+00  0.10031024034E+03  0.10031024034E+03  0.00000000000E+00 0. -1.
          1   -1    0    0  502    0 -0.00000000000E+00 -0.00000000000E+00 -0.29372639832E+03  0.29372639832E+03  0.00000000000E+00 0. -1.
         23    2    1    2    0    0 -0.68821653212E+02  0.24065575486E+02 -0.16987631628E+03  0.20578701693E+03  0.90414388420E+02 0.  0.
         23    2    1    2    0    0  0.89079391279E+02  0.14418250614E+02 -0.45555259997E+02  0.13950478133E+03  0.96141970021E+02 0.  0.
        -13    1    4    4    0    0  0.94161042032E+02  0.37385250665E+02 -0.53635721904E+02  0.11463310808E+03  0.00000000000E+00 0. -1.
         13    1    4    4    0    0 -0.50816507538E+01 -0.22967000050E+02  0.80804619062E+01  0.24871673251E+02  0.00000000000E+00 0.  1.
        -13    1    3    3    0    0 -0.53030599525E+02  0.57468922570E+02 -0.12745167131E+03  0.14952876000E+03  0.00000000000E+00 0. -1.
         13    1    3    3    0    0 -0.15791053687E+02 -0.33403347084E+02 -0.42424644966E+02  0.56258256936E+02  0.00000000000E+00 0.  1.
          1    1    1    2  501    0 -0.20257738066E+02 -0.38483826100E+02  0.22015418288E+02  0.48744840396E+02  0.00000000000E+00 0. -1.
<scales pt_clust_5="13000.00000" pt_clust_6="13000.00000" pt_clust_7="13000.00000" pt_clust_8="13000.00000" pt_clust_9="43.49001"></scales>
<clustering>
<clus scale="   43.490">  1  9  2 -1</clus>
<clus scale="   90.414">  7  8 -1 -1</clus>
<clus scale="   96.142">  5  6 -1 -1</clus>
<clus scale="  117.872">  2  7  1 -1</clus>
<clus scale="   43.490">  1  5  2 -1</clus>
</clustering>
</event>
<event>
 9    1  0.1464797E-005  0.1079808E+03  0.7546771E-02  0.1264365E+00
         21   -1    0    0  501  502  0.00000000000E+00  0.00000000000E+00  0.40859895435E+02  0.40859895435E+02  0.00000000000E+00 0.  1.
          1   -1    0    0  502    0 -0.00000000000E+00 -0.00000000000E+00 -0.68890621902E+03  0.68890621902E+03  0.00000000000E+00 0. -1.
         23    2    1    2    0    0 -0.77622050120E+01  0.48475010695E+02 -0.28291281212E+03  0.30148978802E+03  0.91904050684E+02 0.  0.
         23    2    1    2    0    0  0.89035010600E+02 -0.28859807900E+02 -0.27872402626E+03  0.30804062358E+03  0.91879384695E+02 0.  0.
        -11    1    4    4    0    0  0.48327433245E+02 -0.15114113618E+02 -0.37473529645E+02  0.62993989067E+02  0.00000000000E+00 0.  1.
         11    1    4    4    0    0  0.40707577355E+02 -0.13745694281E+02 -0.24125049662E+03  0.24504663451E+03  0.00000000000E+00 0. -1.
        -13    1    3    3    0    0  0.16821721985E+02 -0.22718531692E+02 -0.92451951247E+02  0.96677118814E+02  0.00000000000E+00 0.  1.
         13    1    3    3    0    0 -0.24583926997E+02  0.71193542387E+02 -0.19046086087E+03  0.20481266921E+03  0.00000000000E+00 0. -1.
          1    1    1    2  501    0 -0.81272805588E+02 -0.19615202795E+02 -0.86409485211E+02  0.12023570286E+03  0.00000000000E+00 0. -1.
<scales pt_clust_5="13000.00000" pt_clust_6="13000.00000" pt_clust_7="13000.00000" pt_clust_8="13000.00000" pt_clust_9="83.60637"></scales>
<clustering>
<clus scale="   83.606">  1  9  2 -1</clus>
<clus scale="   91.879">  5  6 -1 -1</clus>
<clus scale="   91.904">  7  8 -1 -1</clus>
<clus scale="  107.960">  1  5  2 -1</clus>
<clus scale="   83.606">  1  5  2 -1</clus>
</clustering>
</event>
<event>
 9    1  0.1464797E-005  0.1035235E+03  0.7546771E-02  0.1274983E+00
          1   -1    0    0  502    0 -0.00000000000E+00  0.00000000000E+00  0.92882219021E+02  0.92882219021E+02  0.00000000000E+00 0. -1.
         21   -1    0    0  501  502  0.00000000000E+00 -0.00000000000E+00 -0.39203445032E+03  0.39203445032E+03  0.00000000000E+00 0.  1.
         23    2    1    2    0    0 -0.33375198662E+02  0.31864435191E+02  0.48456252055E+02  0.11099835755E+03  0.88562864117E+02 0.  0.
         23    2    1    2    0    0  0.98127608229E+01 -0.51907920513E+02 -0.26408003998E+03  0.28484569740E+03  0.92779746315E+02 0.  0.
        -11    1    4    4    0    0 -0.24501887569E+02 -0.65386601743E+02 -0.17773831283E+03  0.19096245188E+03  0.00000000000E+00 0.  1.
         11    1    4    4    0    0  0.34314648392E+02  0.13478681230E+02 -0.86341727148E+02  0.93883245517E+02  0.00000000000E+00 0. -1.
        -13    1    3    3    0    0  0.24036557518E+02  0.92176033554E+01  0.41573662243E+02  0.48898769935E+02  0.00000000000E+00 0. -1.
         13    1    3    3    0    0 -0.57411756180E+02  0.22646831835E+02  0.68825898119E+01  0.62099587618E+02  0.00000000000E+00 0.  1.
          1    1    1    2  501    0  0.23562437839E+02  0.20043485323E+02 -0.83528443374E+02  0.89072614385E+02  0.00000000000E+00 0. -1.
<scales pt_clust_5="13000.00000" pt_clust_6="13000.00000" pt_clust_7="13000.00000" pt_clust_8="13000.00000" pt_clust_9="30.93428"></scales>
<clustering>
<clus scale="   30.934">  2  9  1 -1</clus>
<clus scale="   88.563">  7  8 -1 -1</clus>
<clus scale="   92.780">  5  6 -1 -1</clus>
<clus scale="   99.762">  1  7  2 -1</clus>
<clus scale="   30.934">  2  5  1 -1</clus>
</clustering>
</event>
<event>
 9    1  0.1464797E-005  0.9857617E+02  0.7546771E-02  0.1283509E+00
         21   -1    0    0  501  502  0.00000000000E+00  0.00000000000E+00  0.60105303382E+02  0.60105303382E+02  0.00000000000E+00 0.  1.
          4   -1    0    0  502    0 -0.00000000000E+00 -0.00000000000E+00 -0.24681907401E+03  0.24681907401E+03  0.00000000000E+00 0. -1.
         23    2    1    2    0    0  0.45452411372E+02  0.14968721555E+02 -0.12910116773E+03  0.16514888158E+03  0.91197901589E+02 0.  0.
         23    2    1    2    0    0 -0.19676191331E+02 -0.13772617899E+02 -0.65815840661E+02  0.11469898766E+03  0.90814620957E+02 0.  0.
        -13    1    3    3    0    0 -0.11115710836E+02 -0.23340915063E+02 -0.70669511089E+02  0.75249831501E+02  0.00000000000E+00 0. -1.
         13    1    3    3    0    0  0.56568122208E+02  0.38309636618E+02 -0.58431656644E+02  0.89899050084E+02  0.00000000000E+00 0.  1.
        -13    1    4    4    0    0 -0.77138261234E+01  0.29751454229E+02  0.45801618416E+01  0.31074588086E+02  0.00000000000E+00 0.  1.
         13    1    4    4    0    0 -0.11962365207E+02 -0.43524072128E+02 -0.70396002502E+02  0.83624399575E+02  0.00000000000E+00 0. -1.
          4    1    1    2  501    0 -0.25776220041E+02 -0.11961036551E+01  0.82032377653E+01  0.27076508146E+02  0.00000000000E+00 0. -1.
<scales pt_clust_5="13000.00000" pt_clust_6="13000.00000" pt_clust_7="13000.00000" pt_clust_8="13000.00000" pt_clust_9="25.80396"></scales>
<clustering>
<clus scale="   25.804">  1  9  2 -1</clus>
<clus scale="   90.815">  7  8 -1 -1</clus>
<clus scale="   91.198">  5  6 -1 -1</clus>
<clus scale="   98.222">  1  7  2 -1</clus>
<clus scale="   25.804">  1  5  2 -1</clus>
</clustering>
</event>
<event>
 9    1  0.1464797E-005  0.9529842E+02  0.7546771E-02  0.1292192E+00
         21   -1    0    0  501  502  0.00000000000E+00  0.00000000000E+00  0.11086769599E+03  0.11086769599E+03  0.00000000000E+00 0. -1.
         -2   -1    0    0    0  501 -0.00000000000E+00 -0.00000000000E+00 -0.28367500802E+03  0.28367500802E+03  0.00000000000E+00 0.  1.
         23    2    1    2    0    0  0.77594423382E+00 -0.17692452870E+02 -0.23259821785E+03  0.25123864926E+03  0.93302213048E+02 0.  0.
         23    2    1    2    0    0 -0.10638608803E+02  0.36048684881E+02  0.69839979666E+02  0.12016950717E+03  0.90279565882E+02 0.  0.
        -11    1    3    3    0    0  0.14160335193E+02 -0.37623708889E+02 -0.22090713777E+03  0.22453512438E+03  0.00000000000E+00 0.  1.
         11    1    3    3    0    0 -0.13384390959E+02  0.19931256019E+02 -0.11691080083E+02  0.26703524887E+02  0.00000000000E+00 0. -1.
        -13    1    4    4    0    0 -0.26554228732E+02  0.16795629928E+02  0.85224781189E+02  0.90832172587E+02  0.00000000000E+00 0.  1.
         13    1    4    4    0    0  0.15915619928E+02  0.19253054953E+02 -0.15384801523E+02  0.29337334587E+02  0.00000000000E+00 0. -1.
         -2    1    1    2    0  502  0.98626645695E+01 -0.18356232011E+02 -0.10049073849E+02  0.23134547570E+02  0.00000000000E+00 0.  1.
<scales pt_clust_5="13000.00000" pt_clust_6="13000.00000" pt_clust_7="13000.00000" pt_clust_8="13000.00000" pt_clust_9="20.83803"></scales>
<clustering>
<clus scale="   20.838">  1  9  2 -1</clus>
<clus scale="   90.280">  7  8 -1 -1</clus>
<clus scale="   92.341">  1  7  2 -1</clus>
<clus scale="   93.302">  5  6 -1 -1</clus>
<clus scale="   20.838">  1  5  2 -1</clus>
</clustering>
</event>
<event>
 9    1  0.1464797E-005  0.1578078E+03  0.7546771E-02  0.1192682E+00
         21   -1    0    0  501  502  0.00000000000E+00  0.00000000000E+00  0.79649589183E+03  0.79649589183E+03  0.00000000000E+00 0. -1.
          1   -1    0    0  502    0 -0.00000000000E+00 -0.00000000000E+00 -0.74806615681E+02  0.74806615681E+02  0.00000000000E+00 0. -1.
         23    2    1    2    0    0 -0.93426502265E+01  0.13369440489E+03  0.47407807556E+02  0.17355682546E+03  0.99564011754E+02 0.  0.
         23    2    1    2    0    0  0.13793957483E+02 -0.78614980549E+02  0.40099758791E+03  0.41893098271E+03  0.91288084324E+02 0.  0.
        -11    1    3    3    0    0 -0.52851659935E+02  0.85398233673E+02  0.40113543505E+02  0.10814459138E+03  0.00000000000E+00 0. -1.
         11    1    3    3    0    0  0.43509009709E+02  0.48296171213E+02  0.72942640505E+01  0.65412234083E+02  0.00000000000E+00 0.  1.
        -11    1    4    4    0    0 -0.64134828663E+01 -0.88288190105E+02  0.37144008211E+03  0.38184246997E+03  0.00000000000E+00 0.  1.
         11    1    4    4    0    0  0.20207440349E+02  0.96732095554E+01  0.29557505797E+02  0.37088512744E+02  0.00000000000E+00 0. -1.
          1    1    1    2  501    0 -0.44513072565E+01 -0.55079424337E+02  0.27328388069E+03  0.27881469933E+03  0.00000000000E+00 0. -1.
<scales pt_clust_5="13000.00000" pt_clust_6="13000.00000" pt_clust_7="13000.00000" pt_clust_8="13000.00000" pt_clust_9="55.25900"></scales>
<clustering>
<clus scale="   55.259">  1  9  2 -1</clus>
<clus scale="   91.288">  7  8 -1 -1</clus>
<clus scale="   99.564">  5  6 -1 -1</clus>
<clus scale="  152.721">  1  7  2 -1</clus>
<clus scale="   55.259">  1  5  2 -1</clus>
</clustering>
</event>
<event>
 9    1  0.1464797E-005  0.1100803E+03  0.7546771E-02  0.1261217E+00
          2   -1    0    0  502    0 -0.00000000000E+00  0.00000000000E+00  0.65172803691E+03  0.65172803691E+03  0.00000000000E+00 0. -1.
         21   -1    0    0  501  502  0.00000000000E+00 -0.00000000000E+00 -0.10188976110E+03  0.10188976110E+03  0.00000000000E+00 0. -1.
         23    2    1    2    0    0  0.27743872867E+02  0.49904793076E+02  0.42635452106E+03  0.43964648430E+03  0.90833048329E+02 0.  0.
         23    2    1    2    0    0 -0.16642594117E+02 -0.74479968148E+02  0.20061122520E+03  0.23226559594E+03  0.88759234950E+02 0.  0.
        -11    1    3    3    0    0  0.34708901138E+02 -0.15476743340E+02  0.10580725593E+03  0.11242514314E+03  0.00000000000E+00 0. -1.
         11    1    3    3    0    0 -0.69650282710E+01  0.65381536417E+02  0.32054726514E+03  0.32722134116E+03  0.00000000000E+00 0.  1.
        -13    1    4    4    0    0 -0.51503447309E+02 -0.55636160174E+02  0.14916448959E+03  0.16732612575E+03  0.00000000000E+00 0. -1.
         13    1    4    4    0    0  0.34860853192E+02 -0.18843807974E+02  0.51446735603E+02  0.64939470189E+02  0.00000000000E+00 0.  1.
          2    1    1    2  501    0 -0.11101278750E+02  0.24575175071E+02 -0.77127470451E+02  0.81705717780E+02  0.00000000000E+00 0. -1.
<scales pt_clust_5="13000.00000" pt_clust_6="13000.00000" pt_clust_7="13000.00000" pt_clust_8="13000.00000" pt_clust_9="26.96623"></scales>
<clustering>
<clus scale="   26.966">  2  9  1 -1</clus>
<clus scale="   88.759">  7  8 -1 -1</clus>
<clus scale="   90.833">  5  6 -1 -1</clus>
<clus scale="  108.375">  2  7  1 -1</clus>
<clus scale="   26.966">  2  5  1 -1</clus>
</clustering>
</event>
<event>
 9    1  0.1464797E-005  0.9333881E+02  0.7546771E-02  0.1294976E+00
         -1   -1    0    0    0  501 -0.00000000000E+00  0.00000000000E+00  0.27955204848E+03  0.27955204848E+03  0.00000000000E+00 0.  1.
         21   -1    0    0  501  502  0.00000000000E+00 -0.00000000000E+00 -0.62248095646E+02  0.62248095646E+02  0.00000000000E+00 0. -1.
         23    2    1    2    0    0  0.90587107356E+01 -0.23036783542E+02  0.16260203893E+03  0.18843829768E+03  0.91960944596E+02 0.  0.
         23    2    1    2    0    0 -0.19420837434E+02 -0.18098447375E+02  0.56011793909E+02  0.11092133893E+03  0.91986410129E+02 0.  0.
        -13    1    4    4    0    0  0.68440773102E+01 -0.48037067183E+02  0.90730900134E+01  0.49363166229E+02  0.00000000000E+00 0. -1.
         13    1    4    4    0    0 -0.26264914744E+02  0.29938619808E+02  0.46938703896E+02  0.61558172698E+02  0.00000000000E+00 0.  1.
        -13    1    3    3    0    0 -0.18184214617E+02 -0.48827425195E+02  0.12452223091E+03  0.13498358827E+03  0.00000000000E+00 0. -1.
         13    1    3    3    0    0  0.27242925352E+02  0.25790641653E+02  0.38079808025E+02  0.53454709408E+02  0.00000000000E+00 0.  1.
         -1    1    1    2    0  502  0.10362126698E+02  0.41135230917E+02 -0.13098800142E+01  0.42440507513E+02  0.00000000000E+00 0.  1.
<scales pt_clust_5="13000.00000" pt_clust_6="13000.00000" pt_clust_7="13000.00000" pt_clust_8="13000.00000" pt_clust_9="42.42029"></scales>
<clustering>
<clus scale="   42.420">  2  9  1 -1</clus>
<clus scale="   91.961">  7  8 -1 -1</clus>
<clus scale="   91.986">  5  6 -1 -1</clus>
<clus scale="   93.314">  1  7  2 -1</clus>
<clus scale="   42.420">  2  5  1 -1</clus>
</clustering>
</event>
<event>
 9    1  0.1464797E-005  0.9819391E+02  0.7546771E-02  0.1285674E+00
          2   -1    0    0  502    0 -0.00000000000E+00  0.00000000000E+00  0.48221214965E+03  0.48221214965E+03  0.00000000000E+00 0. -1.
         21   -1    0    0  501  502  0.00000000000E+00 -0.00000000000E+00 -0.61933843937E+02  0.61933843937E+02  0.00000000000E+00 0.  1.
         23    2    1    2    0    0 -0.14955030040E+01  0.35656317221E+02  0.40029810674E+03  0.41216166432E+03  0.91460668001E+02 0.  0.
         23    2    1    2    0    0  0.29194695984E+02 -0.33351694678E+02  0.28429218161E+02  0.10293364078E+03  0.88444604960E+02 0.  0.
        -11    1    3    3    0    0  0.43154447104E+02  0.23625045454E+02  0.15771480635E+03  0.16521019708E+03  0.00000000000E+00 0.  1.
         11    1    3    3    0    0 -0.44649950108E+02  0.12031271767E+02  0.24258330039E+03  0.24695146724E+03  0.00000000000E+00 0. -1.
        -13    1    4    4    0    0 -0.26300459376E+02 -0.28857437198E+02 -0.27139144253E+01  0.39138614903E+02  0.00000000000E+00 0. -1.
         13    1    4    4    0    0  0.55495155361E+02 -0.44942574801E+01  0.31143132586E+02  0.63795025872E+02  0.00000000000E+00 0.  1.
          2    1    1    2  501    0 -0.27699192980E+02 -0.23046225433E+01 -0.84490191819E+01  0.29050688494E+02  0.00000000000E+00 0. -1.
<scales pt_clust_5="13000.00000" pt_clust_6="13000.00000" pt_clust_7="13000.00000" pt_clust_8="13000.00000" pt_clust_9="27.79490"></scales>
<clustering>
<clus scale="   27.795">  2  9  1 -1</clus>
<clus scale="   88.445">  7  8 -1 -1</clus>
<clus scale="   91.461">  5  6 -1 -1</clus>
<clus scale="   95.391">  2  7  1 -1</clus>
<clus scale="   27.795">  2  5  1 -1</clus>
</clustering>
</event>
<event>
 9    1  0.1464797E-005  0.1421061E+03  0.7546771E-02  0.1227659E+00
          1   -1    0    0  502    0 -0.00000000000E+00  0.00000000000E+00  0.29075504649E+03  0.29075504649E+03  0.00000000000E+00 0. -1.
         21   -1    0    0  501  502  0.00000000000E+00 -0.00000000000E+00 -0.12855988702E+03  0.12855988702E+03  0.00000000000E+00 0.  1.
         23    2    1    2    0    0  0.44707554352E+01 -0.35211690668E+02  0.25685799700E+02  0.10238080879E+03  0.92532258639E+02 0.  0.
         23    2    1    2    0    0  0.99959823060E+01 -0.78797755020E+02  0.15822998941E+03  0.19997590158E+03  0.92976479859E+02 0.  0.
        -11    1    4    4    0    0  0.72586130114E+01  0.19435078825E+02  0.12542335874E+02  0.24242935898E+02  0.00000000000E+00 0. -1.
         11    1    4    4    0    0  0.27373692946E+01 -0.98232833844E+02  0.14568765354E+03  0.17573296569E+03  0.00000000000E+00 0.  1.
        -13    1    3    3    0    0 -0.11291921953E+02 -0.55032536265E+02  0.43807573579E+02  0.71240375154E+02  0.00000000000E+00 0.  1.
         13    1    3    3    0    0  0.15762677388E+02  0.19820845597E+02 -0.18121773879E+02  0.31140433638E+02  0.00000000000E+00 0. -1.
          1    1    1    2  501    0 -0.14466737741E+02  0.11400944569E+03 -0.21720629643E+02  0.11695822314E+03  0.00000000000E+00 0. -1.
<scales pt_clust_5="13000.00000" pt_clust_6="13000.00000" pt_clust_7="13000.00000" pt_clust_8="13000.00000" pt_clust_9="107.46868"></scales>
<clustering>
<clus scale="   92.532">  7  8 -1 -1</clus>
<clus scale="   92.976">  5  6 -1 -1</clus>
<clus scale="   99.106">  1  7  2 -1</clus>
<clus scale="  107.469">  2  9  1 -1</clus>
<clus scale="  107.469">  2  5  1 -1</clus>
</clustering>
</event>
<event>
 9    1  0.1464797E-005  0.2635676E+03  0.7546771E-02  0.1146414E+00
         21   -1    0    0  501  502  0.00000000000E+00  0.00000000000E+00  0.26634668920E+03  0.26634668920E+03  0.00000000000E+00 0. -1.
          2   -1    0    0  502    0 -0.00000000000E+00 -0.00000000000E+00 -0.37039676272E+03  0.37039676272E+03  0.00000000000E+00 0. -1.
         23    2    1    2    0    0 -0.99641606993E+01  0.40487727988E+01 -0.22280683961E+02  0.97163110134E+02  0.93960438662E+02 0.  0.
         23    2    1    2    0    0 -0.22261812846E+03  0.10441660682E+03 -0.11352953385E+03  0.28099193026E+03  0.74872230618E+02 0.  0.
        -11    1    3    3    0    0  0.25073551561E+02  0.27622003674E+02 -0.36902918661E+02  0.52473645581E+02  0.00000000000E+00 0.  1.
         11    1    3    3    0    0 -0.35037712260E+02 -0.23573230876E+02  0.14622234701E+02  0.44689464552E+02  0.00000000000E+00 0. -1.
        -11    1    4    4    0    0 -0.19230509840E+03  0.11599716794E+03 -0.99793288547E+02  0.24575454071E+03  0.00000000000E+00 0. -1.
         11    1    4    4    0    0 -0.30313030059E+02 -0.11580561123E+02 -0.13736245299E+02  0.35237389548E+02  0.00000000000E+00 0.  1.
          2    1    1    2  501    0  0.23258228916E+03 -0.10846537962E+03  0.31760144286E+02  0.25858841152E+03  0.00000000000E+00 0. -1.
<scales pt_clust_5="13000.00000" pt_clust_6="13000.00000" pt_clust_7="13000.00000" pt_clust_8="13000.00000" pt_clust_9="252.70935"></scales>
<clustering>
<clus scale="   74.872">  7  8 -1 -1</clus>
<clus scale="   93.960">  5  6 -1 -1</clus>
<clus scale="   94.574">  2  5  1 -1</clus>
<clus scale="  252.709">  1  9  2 -1</clus>
<clus scale="  252.709">  1  5  2 -1</clus>
</clustering>
</event>
<event>
 9    1  0.1464797E-005  0.1059324E+03  0.7546771E-02  0.1268513E+00
         21   -1    0    0  501  502  0.00000000000E+00  0.00000000000E+00  0.16746280661E+03  0.16746280661E+03  0.00000000000E+00 0. -1.
         -1   -1    0    0    0  501 -0.00000000000E+00 -0.00000000000E+00 -0.10634511675E+03  0.10634511675E+03  0.00000000000E+00 0.  1.
         23    2    1    2    0    0 -0.69180866937E+02 -0.21845507782E+02 -0.11980359974E+01  0.11595241112E+03  0.90445054003E+02 0.  0.
         23    2    1    2    0    0  0.36429256867E+02 -0.37213666824E+01  0.23152837294E+02  0.10075853445E+03  0.90968615815E+02 0.  0.
        -11    1    4    4    0    0  0.25023307540E+01  0.41359458230E+02  0.13039541634E+02  0.43438417216E+02  0.00000000000E+00 0.  1.
         11    1    4    4    0    0  0.33926926113E+02 -0.45080824912E+02  0.10113295660E+02  0.57320117231E+02  0.00000000000E+00 0. -1.
        -11    1    3    3    0    0 -0.71447833011E+02  0.13146337173E+02  0.19519976281E+02  0.75223988840E+02  0.00000000000E+00 0.  1.
         11    1    3    3    0    0  0.22669660735E+01 -0.34991844955E+02 -0.20718012279E+02  0.40728422279E+02  0.00000000000E+00 0. -1.
         -1    1    1    2    0  502  0.32751610070E+02  0.25566874465E+02  0.39162888560E+02  0.57096977787E+02  0.00000000000E+00 0.  1.
<scales pt_clust_5="13000.00000" pt_clust_6="13000.00000" pt_clust_7="13000.00000" pt_clust_8="13000.00000" pt_clust_9="41.54916"></scales>
<clustering>
<clus scale="   41.549">  1  9  2 -1</clus>
<clus scale="   90.445">  7  8 -1 -1</clus>
<clus scale="   90.969">  5  6 -1 -1</clus>
<clus scale="  105.483">  2  7  1 -1</clus>
<clus scale="   41.549">  1  5  2 -1</clus>
</clustering>
</event>
<event>
 9    1  0.1464797E-005  0.1295641E+03  0.7546771E-02  0.1228114E+00
         21   -1    0    0  501  502  0.00000000000E+00  0.00000000000E+00  0.92269824195E+02  0.92269824195E+02  0.00000000000E+00 0. -1.
          1   -1    0    0  502    0 -0.00000000000E+00 -0.00000000000E+00 -0.38556858484E+03  0.38556858484E+03  0.00000000000E+00 0. -1.
         23    2    1    2    0    0 -0.10055873230E+03 -0.30044930696E+01 -0.25263834377E+03  0.28682918287E+03  0.91234652330E+02 0.  0.
         23    2    1    2    0    0  0.74655176106E+02  0.19184838559E+02 -0.78108463425E+02  0.14268579505E+03  0.91196769139E+02 0.  0.
        -11    1    4    4    0    0  0.47033453249E+02  0.49200503946E+02 -0.18638435312E+02  0.70570720443E+02  0.00000000000E+00 0. -1.
         11    1    4    4    0    0  0.27621722857E+02 -0.30015665387E+02 -0.59470028113E+02  0.72115074610E+02  0.00000000000E+00 0.  1.
        -13    1    3    3    0    0 -0.13709932964E+01  0.30049597363E+02 -0.73436009823E+02  0.79358083791E+02  0.00000000000E+00 0.  1.
         13    1    3    3    0    0 -0.99187739006E+02 -0.33054090433E+02 -0.17920233394E+03  0.20747109908E+03  0.00000000000E+00 0. -1.
          1    1    1    2  501    0  0.25903556196E+02 -0.16180345489E+02  0.37448046548E+02  0.48323431108E+02  0.00000000000E+00 0. -1.
<scales pt_clust_5="13000.00000" pt_clust_6="13000.00000" pt_clust_7="13000.00000" pt_clust_8="13000.00000" pt_clust_9="30.54174"></scales>
<clustering>
<clus scale="   30.542">  1  9  2 -1</clus>
<clus scale="   91.197">  5  6 -1 -1</clus>
<clus scale="   91.235">  7  8 -1 -1</clus>
<clus scale="  129.537">  1  5  2 -1</clus>
<clus scale="   30.542">  1  5  2 -1</clus>
</clustering>
</event>
<event>
 9    1  0.1464797E-005  0.1054738E+03  0.7546771E-02  0.1274263E+00
         21   -1    0    0  501  502  0.00000000000E+00  0.00000000000E+00  0.11643961633E+03  0.11643961633E+03  0.00000000000E+00 0. -1.
         -1   -1    0    0    0  501 -0.00000000000E+00 -0.00000000000E+00 -0.18547489814E+03  0.18547489814E+03  0.00000000000E+00 0.  1.
         23    2    1    2    0    0  0.81034003267E+01 -0.26073690007E+02 -0.12843364265E+03  0.16556920413E+03  0.10085860591E+03 0.  0.
         23    2    1    2    0    0 -0.57940992689E+01  0.46659887137E+02  0.49748259068E+02  0.11349254578E+03  0.90525974249E+02 0.  0.
        -11    1    4    4    0    0  0.14832602613E+02 -0.23392084691E+02  0.22001821004E+02  0.35373377757E+02  0.00000000000E+00 0.  1.
         11    1    4    4    0    0 -0.20626701882E+02  0.70051971828E+02  0.27746438064E+02  0.78119168024E+02  0.00000000000E+00 0. -1.
        -13    1    3    3    0    0 -0.29742610072E+02 -0.27010643147E+02 -0.12032162485E+03  0.12685224122E+03  0.00000000000E+00 0.  1.
         13    1    3    3    0    0  0.37846010399E+02  0.93695313992E+00 -0.81120177989E+01  0.38716962911E+02  0.00000000000E+00 0. -1.
         -1    1    1    2    0  502 -0.23093010578E+01 -0.20586197130E+02  0.96501017716E+01  0.22852764556E+02  0.00000000000E+00 0.  1.
<scales pt_clust_5="13000.00000" pt_clust_6="13000.00000" pt_clust_7="13000.00000" pt_clust_8="13000.00000" pt_clust_9="20.71532"></scales>
<clustering>
<clus scale="   20.715">  1  9  2 -1</clus>
<clus scale="   90.526">  5  6 -1 -1</clus>
<clus scale="   95.641">  1  5  2 -1</clus>
<clus scale="  100.859">  7  8 -1 -1</clus>
<clus scale="   20.715">  1  5  2 -1</clus>
</clustering>
</event>
<event>
 9    1  0.1464797E-005  0.1008530E+03  0.7546771E-02  0.1279350E+00
         21   -1    0    0  501  502  0.00000000000E+00  0.00000000000E+00  0.16486220159E+03  0.16486220159E+03  0.00000000000E+00 0. -1.
          2   -1    0    0  502    0 -0.00000000000E+00 -0.00000000000E+00 -0.27694948742E+03  0.27694948742E+03  0.00000000000E+00 0. -1.
         23    2    1    2    0    0 -0.35066226626E+02 -0.91414151030E+01 -0.21554035529E+03  0.23733448992E+03  0.92503024956E+02 0.  0.
         23    2    1    2    0    0  0.56448645208E+02  0.38301894984E+02  0.22401072950E+02  0.11572491716E+03  0.90757719658E+02 0.  0.
        -13    1    4    4    0    0 -0.10914946910E+02 -0.18926670244E+02  0.16042275956E+02  0.27105525828E+02  0.00000000000E+00 0.  1.
         13    1    4    4    0    0  0.67363592118E+02  0.57228565227E+02  0.63587969939E+01  0.88619391333E+02  0.00000000000E+00 0. -1.
        -13    1    3    3    0    0 -0.56172500531E+02 -0.29721508137E+02 -0.18149713661E+03  0.19230166005E+03  0.00000000000E+00 0. -1.
         13    1    3    3    0    0  0.21106273905E+02  0.20580093034E+02 -0.34043218679E+02  0.45032829863E+02  0.00000000000E+00 0.  1.
          2    1    1    2  501    0 -0.21382418582E+02 -0.29160479881E+02  0.81051996509E+02  0.88752281939E+02  0.00000000000E+00 0. -1.
<scales pt_clust_5="13000.00000" pt_clust_6="13000.00000" pt_clust_7="13000.00000" pt_clust_8="13000.00000" pt_clust_9="36.15994"></scales>
<clustering>
<clus scale="   36.160">  1  9  2 -1</clus>
<clus scale="   90.758">  5  6 -1 -1</clus>
<clus scale="   92.503">  7  8 -1 -1</clus>
<clus scale="   99.255">  1  5  2 -1</clus>
<clus scale="   36.160">  1  5  2 -1</clus>
</clustering>
</event>
<event>
 9    1  0.1464797E-005  0.1873173E+03  0.7546771E-02  0.1161042E+00
          2   -1    0    0  502    0 -0.00000000000E+00  0.00000000000E+00  0.63799101799E+03  0.63799101799E+03  0.00000000000E+00 0. -1.
         21   -1    0    0  501  502  0.00000000000E+00 -0.00000000000E+00 -0.12889206895E+03  0.12889206895E+03  0.00000000000E+00 0.  1.
         23    2    1    2    0    0 -0.12097203232E+03 -0.11396648089E+03  0.52790575587E+03  0.56122724260E+03  0.93107139265E+02 0.  0.
         23    2    1    2    0    0  0.11880905500E+03  0.82175286508E+02 -0.59921937483E+01  0.17131093469E+03  0.91886673117E+02 0.  0.
        -13    1    3    3    0    0 -0.54110512578E+02 -0.10878368223E+03  0.37691677757E+03  0.39601527030E+03  0.00000000000E+00 0. -1.
         13    1    3    3    0    0 -0.66861519744E+02 -0.51827986550E+01  0.15098897830E+03  0.16521197230E+03  0.00000000000E+00 0.  1.
        -13    1    4    4    0    0  0.23103599261E+02 -0.13841862676E+02  0.19649421903E+02  0.33338764858E+02  0.00000000000E+00 0. -1.
         13    1    4    4    0    0  0.95705455735E+02  0.96017149183E+02 -0.25641615651E+02  0.13797216983E+03  0.00000000000E+00 0.  1.
          2    1    1    2  501    0  0.21629773271E+01  0.31791194379E+02 -0.12814613085E+02  0.34344909659E+02  0.00000000000E+00 0. -1.
<scales pt_clust_5="13000.00000" pt_clust_6="13000.00000" pt_clust_7="13000.00000" pt_clust_8="13000.00000" pt_clust_9="31.86469"></scales>
<clustering>
<clus scale="   31.865">  2  9  1 -1</clus>
<clus scale="   91.887">  7  8 -1 -1</clus>
<clus scale="   93.107">  5  6 -1 -1</clus>
<clus scale="  186.714">  2  7  1 -1</clus>
<clus scale="   31.865">  2  5  1 -1</clus>
</clustering>
</event>
<event>
 9    1  0.1464797E-005  0.1649050E+03  0.7546771E-02  0.1183400E+00
         21   -1    0    0  501  502  0.00000000000E+00  0.00000000000E+00  0.15129484369E+03  0.15129484369E+03  0.00000000000E+00 0. -1.
          2   -1    0    0  502    0 -0.00000000000E+00 -0.00000000000E+00 -0.39643434438E+03  0.39643434438E+03  0.00000000000E+00 0. -1.
         23    2    1    2    0    0  0.10839205222E+03 -0.20690234150E+02 -0.12172520805E+03  0.18763140918E+03  0.90617860617E+02 0.  0.
         23    2    1    2    0    0 -0.17415395452E+03 -0.64847732194E+01 -0.18188217099E+03  0.26800216761E+03  0.91500740779E+02 0.  0.
        -11    1    4    4    0    0 -0.27813338140E+02 -0.15084100006E+02 -0.89009392682E+02  0.94465781303E+02  0.00000000000E+00 0.  1.
         11    1    4    4    0    0 -0.14634061638E+03  0.85993267864E+01 -0.92872778307E+02  0.17353638631E+03  0.00000000000E+00 0. -1.
        -13    1    3    3    0    0  0.32034731560E+02 -0.47355638875E+02 -0.27464698383E+02  0.63427834715E+02  0.00000000000E+00 0.  1.
         13    1    3    3    0    0  0.76357320659E+02  0.26665404725E+02 -0.94260509663E+02  0.12420357446E+03  0.00000000000E+00 0. -1.
          2    1    1    2  501    0  0.65761902298E+02  0.27175007369E+02  0.58467878347E+02  0.92095611284E+02  0.00000000000E+00 0. -1.
<scales pt_clust_5="13000.00000" pt_clust_6="13000.00000" pt_clust_7="13000.00000" pt_clust_8="13000.00000" pt_clust_9="71.15553"></scales>
<clustering>
<clus scale="   71.156">  1  9  2 -1</clus>
<clus scale="   90.618">  7  8 -1 -1</clus>
<clus scale="   91.501">  5  6 -1 -1</clus>
<clus scale="  164.417">  2  7  1 -1</clus>
<clus scale="   71.156">  1  5  2 -1</clus>
</clustering>
</event>
<event>
 9    1  0.1464797E-005  0.1317546E+03  0.7546771E-02  0.1225341E+00
         21   -1    0    0  501  502  0.00000000000E+00  0.00000000000E+00  0.87429659671E+02  0.87429659671E+02  0.00000000000E+00 0. -1.
         -1   -1    0    0    0  501 -0.00000000000E+00 -0.00000000000E+00 -0.24656532028E+03  0.24656532028E+03  0.00000000000E+00 0.  1.
         23    2    1    2    0    0  0.90865350332E+02 -0.45838095649E+02 -0.11389152182E+03  0.17761158876E+03  0.90647420358E+02 0.  0.
         23    2    1    2    0    0 -0.79613815434E+02  0.23314829764E+02 -0.33910842043E+02  0.12877291928E+03  0.92469338900E+02 0.  0.
        -11    1    4    4    0    0 -0.46374057472E+02  0.27898227372E+02 -0.63922479615E+02  0.83755284592E+02  0.00000000000E+00 0.  1.
         11    1    4    4    0    0 -0.33239757962E+02 -0.45833976080E+01  0.30011637572E+02  0.45017634687E+02  0.00000000000E+00 0. -1.
        -11    1    3    3    0    0  0.40437972746E+01  0.23718893233E+02 -0.12609995863E+02  0.27165238601E+02  0.00000000000E+00 0.  1.
         11    1    3    3    0    0  0.86821553058E+02 -0.69556988881E+02 -0.10128152596E+03  0.15044635016E+03  0.00000000000E+00 0. -1.
         -1    1    1    2    0  502 -0.11251534898E+02  0.22523265885E+02 -0.11333296743E+02  0.27610471904E+02  0.00000000000E+00 0.  1.
<scales pt_clust_5="13000.00000" pt_clust_6="13000.00000" pt_clust_7="13000.00000" pt_clust_8="13000.00000" pt_clust_9="25.17726"></scales>
<clustering>
<clus scale="   25.177">  1  9  2 -1</clus>
<clus scale="   90.647">  7  8 -1 -1</clus>
<clus scale="   92.469">  5  6 -1 -1</clus>
<clus scale="  130.482">  2  7  1 -1</clus>
<clus scale="   25.177">  1  5  2 -1</clus>
</clustering>
</event>
<event>
 9    1  0.1464797E-005  0.1603738E+03  0.7546771E-02  0.1211347E+00
         21   -1    0    0  501  502  0.00000000000E+00  0.00000000000E+00  0.72750340173E+02  0.72750340173E+02  0.00000000000E+00 0.  1.
          1   -1    0    0  502    0 -0.00000000000E+00 -0.00000000000E+00 -0.55905415043E+03  0.55905415043E+03  0.00000000000E+00 0. -1.
         23    2    1    2    0    0 -0.16019742280E+02 -0.29124871073E+02 -0.11307471950E+03  0.14907406974E+03  0.91281410052E+02 0.  0.
         23    2    1    2    0    0  0.12927234107E+03 -0.39285612759E+02 -0.26867693496E+03  0.31409679814E+03  0.90635565229E+02 0.  0.
        -13    1    3    3    0    0  0.23081883578E+02 -0.41953760183E+02 -0.30387619454E+02  0.56712421559E+02  0.00000000000E+00 0.  1.
         13    1    3    3    0    0 -0.39101625858E+02  0.12828889111E+02 -0.82687100051E+02  0.92361648184E+02  0.00000000000E+00 0. -1.
        -13    1    4    4    0    0 -0.78341319873E+01 -0.23226369136E+02 -0.45318658240E+02  0.51522991294E+02  0.00000000000E+00 0. -1.
         13    1    4    4    0    0  0.13710647306E+03 -0.16059243623E+02 -0.22335827672E+03  0.26257380684E+03  0.00000000000E+00 0.  1.
          1    1    1    2  501    0 -0.11325259879E+03  0.68410483832E+02 -0.10455215579E+03  0.16863362272E+03  0.00000000000E+00 0. -1.
<scales pt_clust_5="13000.00000" pt_clust_6="13000.00000" pt_clust_7="13000.00000" pt_clust_8="13000.00000" pt_clust_9="132.30632"></scales>
<clustering>
<clus scale="   90.636">  7  8 -1 -1</clus>
<clus scale="   91.281">  5  6 -1 -1</clus>
<clus scale="   97.145">  2  5  1 -1</clus>
<clus scale="  132.306">  1  9  2 -1</clus>
<clus scale="  132.306">  1  5  2 -1</clus>
</clustering>
</event>
<event>
 9    1  0.1464797E-005  0.2011336E+03  0.7546771E-02  0.1150571E+00
          2   -1    0    0  502    0 -0.00000000000E+00  0.00000000000E+00  0.12432568507E+04  0.12432568507E+04  0.00000000000E+00 0. -1.
         21   -1    0    0  501  502  0.00000000000E+00 -0.00000000000E+00 -0.55968353814E+02  0.55968353814E+02  0.00000000000E+00 0.  1.
         23    2    1    2    0    0 -0.16446723742E+03 -0.23675459884E+02  0.88731364809E+03  0.90721039669E+03  0.89973297133E+02 0.  0.
         23    2    1    2    0    0  0.18114816688E+03  0.54352321891E+02  0.26495386519E+03  0.34255985292E+03  0.10666709378E+03 0.  0.
        -11    1    4    4    0    0  0.62066324034E+02  0.63211554791E+02  0.16311900865E+03  0.18562257465E+03  0.00000000000E+00 0. -1.
         11    1    4    4    0    0  0.11908184285E+03 -0.88592328997E+01  0.10183485654E+03  0.15693727827E+03  0.00000000000E+00 0.  1.
        -13    1    3    3    0    0 -0.44702647365E+02  0.32129020796E+02  0.20768440194E+03  0.21485672312E+03  0.00000000000E+00 0.  1.
         13    1    3    3    0    0 -0.11976459006E+03 -0.55804480680E+02  0.67962924615E+03  0.69235367358E+03  0.00000000000E+00 0. -1.
          2    1    1    2  501    0 -0.16680929459E+02 -0.30676862007E+02  0.35020983571E+02  0.49454954863E+02  0.00000000000E+00 0. -1.
<scales pt_clust_5="13000.00000" pt_clust_6="13000.00000" pt_clust_7="13000.00000" pt_clust_8="13000.00000" pt_clust_9="34.91881"></scales>
<clustering>
<clus scale="   34.919">  2  9  1 -1</clus>
<clus scale="   89.973">  7  8 -1 -1</clus>
<clus scale="  106.667">  5  6 -1 -1</clus>
<clus scale="  192.801">  1  7  2 -1</clus>
<clus scale="   34.919">  2  5  1 -1</clus>
</clustering>
</event>
<event>
 9    1  0.1464797E-005  0.2334853E+03  0.7546771E-02  0.1124323E+00
          2   -1    0    0  502    0 -0.00000000000E+00  0.00000000000E+00  0.12309864109E+04  0.12309864109E+04  0.00000000000E+00 0. -1.
         21   -1    0    0  501  502  0.00000000000E+00 -0.00000000000E+00 -0.68098721998E+02  0.68098721998E+02  0.00000000000E+00 0.  1.
         23    2    1    2    0    0  0.20472999874E+03  0.82395086640E+02  0.88315522340E+03  0.91498675132E+03  0.92381187370E+02 0.  0.
         23    2    1    2    0    0 -0.18287252389E+03 -0.80708494367E+02  0.28670798607E+03  0.36109291076E+03  0.90721551296E+02 0.  0.
        -13    1    3    3    0    0  0.14552192906E+03  0.91903291935E+02  0.54421503950E+03  0.57078266978E+03  0.00000000000E+00 0. -1.
         13    1    3    3    0    0  0.59208069684E+02 -0.95082052944E+01  0.33894018390E+03  0.34420408153E+03  0.00000000000E+00 0.  1.
        -13    1    4    4    0    0 -0.18127954416E+03 -0.51349808092E+02  0.23092732048E+03  0.29803775476E+03  0.00000000000E+00 0.  1.
         13    1    4    4    0    0 -0.15929797333E+01 -0.29358686275E+02  0.55780665596E+02  0.63055156003E+02  0.00000000000E+00 0. -1.
          2    1    1    2  501    0 -0.21857474850E+02 -0.16865922735E+01 -0.69755205698E+01  0.23005470818E+02  0.00000000000E+00 0. -1.
<scales pt_clust_5="13000.00000" pt_clust_6="13000.00000" pt_clust_7="13000.00000" pt_clust_8="13000.00000" pt_clust_9="21.92245"></scales>
<clustering>
<clus scale="   21.922">  2  9  1 -1</clus>
<clus scale="   90.722">  7  8 -1 -1</clus>
<clus scale="   92.381">  5  6 -1 -1</clus>
<clus scale="  232.834">  2  7  1 -1</clus>
<clus scale="   21.922">  2  5  1 -1</clus>
</clustering>
</event>
<event>
 9    1  0.1464797E-005  0.1024483E+03  0.7546771E-02  0.1276780E+00
         21   -1    0    0  501  502  0.00000000000E+00  0.00000000000E+00  0.17978701254E+03  0.17978701254E+03  0.00000000000E+00 0.  1.
          3   -1    0    0  502    0 -0.00000000000E+00 -0.00000000000E+00 -0.11053548637E+03  0.11053548637E+03  0.00000000000E+00 0. -1.
         23    2    1    2    0    0  0.27092781447E+02  0.97322738555E+01 -0.36018080923E+01  0.98613698759E+02  0.94249416977E+02 0.  0.
         23    2    1    2    0    0 -0.47737751360E+02 -0.19219942154E+02 -0.10742874910E+02  0.10507995495E+03  0.90984001285E+02 0.  0.
        -13    1    3    3    0    0 -0.92766575265E+00 -0.27691958650E+02  0.30152920820E+02  0.40950015527E+02  0.00000000000E+00 0.  1.
         13    1    3    3    0    0  0.28020447200E+02  0.37424232506E+02 -0.33754728913E+02  0.57663683232E+02  0.00000000000E+00 0. -1.
        -13    1    4    4    0    0  0.16634582469E+01 -0.33280758384E+02 -0.34957515082E+02  0.48294966949E+02  0.00000000000E+00 0. -1.
         13    1    4    4    0    0 -0.49401209607E+02  0.14060816230E+02  0.24214640171E+02  0.56784988001E+02  0.00000000000E+00 0.  1.
          3    1    1    2  501    0  0.20644969912E+02  0.94876682985E+01  0.83596209178E+02  0.86628845204E+02  0.00000000000E+00 0. -1.
<scales pt_clust_5="13000.00000" pt_clust_6="13000.00000" pt_clust_7="13000.00000" pt_clust_8="13000.00000" pt_clust_9="22.72071"></scales>
<clustering>
<clus scale="   22.721">  1  9  2 -1</clus>
<clus scale="   90.984">  7  8 -1 -1</clus>
<clus scale="   94.249">  5  6 -1 -1</clus>
<clus scale="   99.452">  1  7  2 -1</clus>
<clus scale="   22.721">  1  5  2 -1</clus>
</clustering>
</event>
<event>
 9    1  0.1464797E-005  0.1467801E+03  0.7546771E-02  0.1208991E+00
         21   -1    0    0  501  502  0.00000000000E+00  0.00000000000E+00  0.14385102328E+03  0.14385102328E+03  0.00000000000E+00 0.  1.
         -3   -1    0    0    0  501 -0.00000000000E+00 -0.00000000000E+00 -0.21904563141E+03  0.21904563141E+03  0.00000000000E+00 0.  1.
         23    2    1    2    0    0 -0.61709750173E+02 -0.96731343742E+02 -0.63762183176E+02  0.17139341988E+03  0.11020454731E+03 0.  0.
         23    2    1    2    0    0  0.37616919073E+00  0.82589839296E+02  0.13227013185E+02  0.12390236060E+03  0.91409069715E+02 0.  0.
        -13    1    4    4    0    0  0.68130723656E+00  0.28443124027E+02 -0.39263912200E+02  0.48488455174E+02  0.00000000000E+00 0. -1.
         13    1    4    4    0    0 -0.30513804583E+00  0.54146715269E+02  0.52490925385E+02  0.75413905425E+02  0.00000000000E+00 0.  1.
        -13    1    3    3    0    0  0.26742542609E+02  0.14598800437E+01 -0.79731037748E+01  0.27943965695E+02  0.00000000000E+00 0. -1.
         13    1    3    3    0    0 -0.88452292782E+02 -0.98191223785E+02 -0.55789079402E+02  0.14344945419E+03  0.00000000000E+00 0.  1.
         -3    1    1    2    0  502  0.61333580982E+02  0.14141504446E+02 -0.24659438139E+02  0.67600874206E+02  0.00000000000E+00 0.  1.
<scales pt_clust_5="13000.00000" pt_clust_6="13000.00000" pt_clust_7="13000.00000" pt_clust_8="13000.00000" pt_clust_9="62.94279"></scales>
<clustering>
<clus scale="   62.943">  1  9  2 -1</clus>
<clus scale="   91.409">  5  6 -1 -1</clus>
<clus scale="  110.205">  7  8 -1 -1</clus>
<clus scale="  133.248">  1  5  2 -1</clus>
<clus scale="   62.943">  1  5  2 -1</clus>
</clustering>
</event>
<event>
 9    1  0.1464797E-005  0.1203669E+03  0.7546771E-02  0.1243914E+00
         21   -1    0    0  501  502  0.00000000000E+00  0.00000000000E+00  0.63778984328E+02  0.63778984328E+02  0.00000000000E+00 0.  1.
          2   -1    0    0  502    0 -0.00000000000E+00 -0.00000000000E+00 -0.29662049027E+03  0.29662049027E+03  0.00000000000E+00 0. -1.
         23    2    1    2    0    0 -0.69309321168E+02 -0.41672424287E+02 -0.16101953326E+03  0.20174804696E+03  0.90744759704E+02 0.  0.
         23    2    1    2    0    0  0.75766169284E+02  0.19448486481E+02 -0.69097823585E+02  0.13534873922E+03  0.86174334628E+02 0.  0.
        -11    1    4    4    0    0  0.65950993987E+02 -0.22329937744E+02 -0.25442772076E+02  0.74131601753E+02  0.00000000000E+00 0.  1.
         11    1    4    4    0    0  0.98151752968E+01  0.41778424225E+02 -0.43655051509E+02  0.61217137462E+02  0.00000000000E+00 0. -1.
        -13    1    3    3    0    0 -0.40117237951E+02 -0.68031465774E+02 -0.12794557025E+03  0.15035871130E+03  0.00000000000E+00 0. -1.
         13    1    3    3    0    0 -0.29192083217E+02  0.26359041487E+02 -0.33073963012E+02  0.51389335664E+02  0.00000000000E+00 0.  1.
          2    1    1    2  501    0 -0.64568481164E+01  0.22223937805E+02 -0.27241490876E+01  0.23302688416E+02  0.00000000000E+00 0. -1.
<scales pt_clust_5="13000.00000" pt_clust_6="13000.00000" pt_clust_7="13000.00000" pt_clust_8="13000.00000" pt_clust_9="23.14291"></scales>
<clustering>
<clus scale="   23.143">  1  9  2 -1</clus>
<clus scale="   86.174">  5  6 -1 -1</clus>
<clus scale="   90.745">  7  8 -1 -1</clus>
<clus scale="  116.960">  1  5  2 -1</clus>
<clus scale="   23.143">  1  5  2 -1</clus>
</clustering>
</event>
<event>
 9    1  0.1464797E-005  0.9084287E+02  0.7546771E-02  0.1301601E+00
          1   -1    0    0  502    0 -0.00000000000E+00  0.00000000000E+00  0.28527211074E+03  0.28527211074E+03  0.00000000000E+00 0. -1.
         21   -1    0    0  501  502  0.00000000000E+00 -0.00000000000E+00 -0.39435003412E+02  0.39435003412E+02  0.00000000000E+00 0.  1.
         23    2    1    2    0    0  0.64710224098E+01  0.16402905644E+02  0.13274006910E+03  0.16092703197E+03  0.89256115917E+02 0.  0.
         23    2    1    2    0    0  0.78812314261E+01  0.61551935444E+01  0.80076532221E+02  0.12129233282E+03  0.90551525511E+02 0.  0.
        -11    1    3    3    0    0 -0.23821476204E+02 -0.28133833481E+02  0.59913743958E+02  0.70346513985E+02  0.00000000000E+00 0. -1.
         11    1    3    3    0    0  0.30292498614E+02  0.44536739124E+02  0.72826325140E+02  0.90580517980E+02  0.00000000000E+00 0.  1.
        -13    1    4    4    0    0 -0.33454111637E+02 -0.76869813612E+01  0.52932461391E+01  0.34731624243E+02  0.00000000000E+00 0. -1.
         13    1    4    4    0    0  0.41335343063E+02  0.13842174906E+02  0.74783286082E+02  0.86560708578E+02  0.00000000000E+00 0.  1.
          1    1    1    2  501    0 -0.14352253836E+02 -0.22558099188E+02  0.33020506012E+02  0.42487749369E+02  0.00000000000E+00 0. -1.
<scales pt_clust_5="13000.00000" pt_clust_6="13000.00000" pt_clust_7="13000.00000" pt_clust_8="13000.00000" pt_clust_9="26.73679"></scales>
<clustering>
<clus scale="   26.737">  2  9  1 -1</clus>
<clus scale="   89.256">  5  6 -1 -1</clus>
<clus scale="   89.552">  1  5  2 -1</clus>
<clus scale="   90.552">  7  8 -1 -1</clus>
<clus scale="   26.737">  2  5  1 -1</clus>
</clustering>
</event>
<event>
 9    1  0.1464797E-005  0.1299258E+03  0.7546771E-02  0.1246523E+00
          2   -1    0    0  502    0 -0.00000000000E+00  0.00000000000E+00  0.43261766019E+02  0.43261766019E+02  0.00000000000E+00 0. -1.
         21   -1    0    0  501  502  0.00000000000E+00 -0.00000000000E+00 -0.82892124060E+03  0.82892124060E+03  0.00000000000E+00 0.  1.
         23    2    1    2    0    0  0.23788805615E+02  0.10936398954E+02 -0.59338768849E+02  0.10633519558E+03  0.84264893259E+02 0.  0.
         23    2    1    2    0    0 -0.36436610939E+02  0.82026782489E+02 -0.25647656175E+03  0.28672816031E+03  0.91524813701E+02 0.  0.
        -11    1    4    4    0    0 -0.37906466168E+02  0.90287784931E+01 -0.31210319957E+02  0.49924974615E+02  0.00000000000E+00 0. -1.
         11    1    4    4    0    0  0.14698552297E+01  0.72998003996E+02 -0.22526624180E+03  0.23680318569E+03  0.00000000000E+00 0.  1.
        -13    1    3    3    0    0 -0.25738278655E+01  0.43779556741E+02 -0.18262870847E+02  0.47505858901E+02  0.00000000000E+00 0.  1.
         13    1    3    3    0    0  0.26362633481E+02 -0.32843157788E+02 -0.41075898002E+02  0.58829336680E+02  0.00000000000E+00 0. -1.
          2    1    1    2  501    0  0.12647805323E+02 -0.92963181443E+02 -0.46984414398E+03  0.47911965073E+03  0.00000000000E+00 0. -1.
<scales pt_clust_5="13000.00000" pt_clust_6="13000.00000" pt_clust_7="13000.00000" pt_clust_8="13000.00000" pt_clust_9="92.21672"></scales>
<clustering>
<clus scale="   84.265">  7  8 -1 -1</clus>
<clus scale="   88.239">  1  7  2 -1</clus>
<clus scale="   91.525">  5  6 -1 -1</clus>
<clus scale="   92.217">  2  9  1 -1</clus>
<clus scale="   92.217">  2  5  1 -1</clus>
</clustering>
</event>
<event>
 9    1  0.1464797E-005  0.1160883E+03  0.7546771E-02  0.1250313E+00
         21   -1    0    0  501  502  0.00000000000E+00  0.00000000000E+00  0.14754130744E+03  0.14754130744E+03  0.00000000000E+00 0. -1.
          2   -1    0    0  502    0 -0.00000000000E+00 -0.00000000000E+00 -0.42422376336E+03  0.42422376336E+03  0.00000000000E+00 0. -1.
         23    2    1    2    0    0  0.73547973317E+02 -0.13229412388E+02 -0.28171201797E+03  0.30567474632E+03  0.92146989848E+02 0.  0.
         23    2    1    2    0    0 -0.55857166241E+02  0.34014016671E+02 -0.10472682061E+03  0.15299112924E+03  0.90341586882E+02 0.  0.
        -11    1    4    4    0    0 -0.10438672712E+02  0.55848687655E+02 -0.34216984925E+02  0.66323780487E+02  0.00000000000E+00 0.  1.
         11    1    4    4    0    0 -0.45418493529E+02 -0.21834670984E+02 -0.70509835689E+02  0.86667348755E+02  0.00000000000E+00 0. -1.
        -11    1    3    3    0    0  0.49644839852E+02  0.21873682662E+02 -0.24033534779E+03  0.24638211687E+03  0.00000000000E+00 0. -1.
         11    1    3    3    0    0  0.23903133464E+02 -0.35103095050E+02 -0.41376670175E+02  0.59292629443E+02  0.00000000000E+00 0.  1.
          2    1    1    2  501    0 -0.17690807075E+02 -0.20784604283E+02  0.10975638266E+03  0.11309919524E+03  0.00000000000E+00 0. -1.
<scales pt_clust_5="13000.00000" pt_clust_6="13000.00000" pt_clust_7="13000.00000" pt_clust_8="13000.00000" pt_clust_9="27.29404"></scales>
<clustering>
<clus scale="   27.294">  1  9  2 -1</clus>
<clus scale="   90.342">  5  6 -1 -1</clus>
<clus scale="   92.147">  7  8 -1 -1</clus>
<clus scale="  114.660">  1  5  2 -1</clus>
<clus scale="   27.294">  1  5  2 -1</clus>
</clustering>
</event>
<event>
 9    1  0.1464797E-005  0.9318527E+02  0.7546771E-02  0.1296480E+00
         21   -1    0    0  501  502  0.00000000000E+00  0.00000000000E+00  0.14231337887E+03  0.14231337887E+03  0.00000000000E+00 0. -1.
         -2   -1    0    0    0  501 -0.00000000000E+00 -0.00000000000E+00 -0.10684977673E+03  0.10684977673E+03  0.00000000000E+00 0.  1.
         23    2    1    2    0    0  0.23673905223E+02  0.89958551171E+01 -0.44592286764E+02  0.10279615120E+03  0.89090950526E+02 0.  0.
         23    2    1    2    0    0 -0.24087045660E+01 -0.86515563894E+01  0.37805729224E+02  0.99065806808E+02  0.91126887529E+02 0.  0.
        -13    1    4    4    0    0  0.29602559714E+02  0.24871494271E+02 -0.90582057525E+00  0.38674581831E+02  0.00000000000E+00 0.  1.
         13    1    4    4    0    0 -0.32011264280E+02 -0.33523050661E+02  0.38711549799E+02  0.60391224977E+02  0.00000000000E+00 0. -1.
        -13    1    3    3    0    0  0.11625507114E+02 -0.37373131080E+02 -0.28322741484E+01  0.39241879659E+02  0.00000000000E+00 0. -1.
         13    1    3    3    0    0  0.12048398109E+02  0.46368986197E+02 -0.41760012616E+02  0.63554271545E+02  0.00000000000E+00 0.  1.
         -2    1    1    2    0  502 -0.21265200657E+02 -0.34429872772E+00  0.42250159674E+02  0.47301197586E+02  0.00000000000E+00 0.  1.
<scales pt_clust_5="13000.00000" pt_clust_6="13000.00000" pt_clust_7="13000.00000" pt_clust_8="13000.00000" pt_clust_9="21.26799"></scales>
<clustering>
<clus scale="   21.268">  1  9  2 -1</clus>
<clus scale="   89.091">  7  8 -1 -1</clus>
<clus scale="   91.127">  5  6 -1 -1</clus>
<clus scale="   91.195">  2  7  1 -1</clus>
<clus scale="   21.268">  1  5  2 -1</clus>
</clustering>
</event>
<event>
 9    1  0.1980403E-005  0.1050657E+03  0.7546771E-02  0.1273032E+00
         -1   -1    0    0    0  501 -0.00000000000E+00  0.00000000000E+00  0.93354433684E+02  0.93354433684E+02  0.00000000000E+00 0.  1.
         21   -1    0    0  501  502  0.00000000000E+00 -0.00000000000E+00 -0.58177984266E+03  0.58177984266E+03  0.00000000000E+00 0. -1.
         23    2    1    2    0    0 -0.28003916052E+02 -0.40923473668E+02  0.51222135232E+02  0.11180768319E+03  0.86129558644E+02 0.  0.
         23    2    1    2    0    0  0.62334935163E+02  0.51854503342E+01 -0.37098707900E+03  0.38753644067E+03  0.92954542784E+02 0.  0.
        -11    1    4    4    0    0 -0.87876564758E+01  0.26427072385E+02 -0.42823454877E+02  0.51082887045E+02  0.00000000000E+00 0.  1.
         11    1    4    4    0    0  0.71122591639E+02 -0.21241622051E+02 -0.32816362412E+03  0.33645355362E+03  0.00000000000E+00 0. -1.
        -13    1    3    3    0    0 -0.30829158576E+02 -0.66388793833E+02  0.32575153842E+02  0.80118971617E+02  0.00000000000E+00 0.  1.
         13    1    3    3    0    0  0.28252425242E+01  0.25465320166E+02  0.18646981390E+02  0.31688711577E+02  0.00000000000E+00 0. -1.
         -1    1    1    2    0  502 -0.34331019111E+02  0.35738023333E+02 -0.16866046521E+03  0.17579015248E+03  0.00000000000E+00 0.  1.
<scales pt_clust_5="13000.00000" pt_clust_6="13000.00000" pt_clust_7="13000.00000" pt_clust_8="13000.00000" pt_clust_9="49.55628"></scales>
<clustering>
<clus scale="   49.556">  2  9  1 -1</clus>
<clus scale="   86.130">  7  8 -1 -1</clus>
<clus scale="   92.955">  5  6 -1 -1</clus>
<clus scale="   99.079">  1  7  2 -1</clus>
<clus scale="   49.556">  2  5  1 -1</clus>
</clustering>
</event>
<event>
 9    1  0.1464797E-005  0.2012919E+03  0.7546771E-02  0.1148796E+00
          1   -1    0    0  502    0 -0.00000000000E+00  0.00000000000E+00  0.42765866183E+03  0.42765866183E+03  0.00000000000E+00 0. -1.
         21   -1    0    0  501  502  0.00000000000E+00 -0.00000000000E+00 -0.20747569950E+03  0.20747569950E+03  0.00000000000E+00 0.  1.
         23    2    1    2    0    0  0.91846984103E+02 -0.15287798050E+03  0.24228456871E+03  0.31444040856E+03  0.91451697007E+02 0.  0.
         23    2    1    2    0    0 -0.12468572195E+03  0.13501851989E+03  0.73994210730E+02  0.21758357937E+03  0.89949657134E+02 0.  0.
        -11    1    3    3    0    0  0.81563084456E+02 -0.51497739957E+02  0.95378586434E+02  0.13565260306E+03  0.00000000000E+00 0. -1.
         11    1    3    3    0    0  0.10283899647E+02 -0.10138024055E+03  0.14690598228E+03  0.17878780550E+03  0.00000000000E+00 0.  1.
        -11    1    4    4    0    0 -0.80573365576E+02  0.11019584597E+03  0.91142710281E+02  0.16414074859E+03  0.00000000000E+00 0. -1.
         11    1    4    4    0    0 -0.44112356369E+02  0.24822673918E+02 -0.17148499551E+02  0.53442830780E+02  0.00000000000E+00 0.  1.
          1    1    1    2  501    0  0.32838737843E+02  0.17859460617E+02 -0.96095817110E+02  0.10311037340E+03  0.00000000000E+00 0. -1.
<scales pt_clust_5="13000.00000" pt_clust_6="13000.00000" pt_clust_7="13000.00000" pt_clust_8="13000.00000" pt_clust_9="37.38105"></scales>
<clustering>
<clus scale="   37.381">  2  9  1 -1</clus>
<clus scale="   89.950">  7  8 -1 -1</clus>
<clus scale="   91.452">  5  6 -1 -1</clus>
<clus scale="  200.614">  2  7  1 -1</clus>
<clus scale="   37.381">  2  5  1 -1</clus>
</clustering>
</event>
<event>
 9    1  0.1464797E-005  0.1423842E+03  0.7546771E-02  0.1210836E+00
         -1   -1    0    0    0  501 -0.00000000000E+00  0.00000000000E+00  0.89353608519E+03  0.89353608519E+03  0.00000000000E+00 0.  1.
         21   -1    0    0  501  502  0.00000000000E+00 -0.00000000000E+00 -0.64670276165E+02  0.64670276165E+02  0.00000000000E+00 0.  1.
         23    2    1    2    0    0  0.51667142088E+02  0.10277535165E+03  0.74648644459E+03  0.76057308849E+03  0.89426754946E+02 0.  0.
         23    2    1    2    0    0 -0.40874102839E+02 -0.68709152335E+02  0.99791618519E+02  0.15788176693E+03  0.92610179268E+02 0.  0.
        -11    1    3    3    0    0  0.13794591035E+02  0.10635616648E+03  0.57525053554E+03  0.58516245909E+03  0.00000000000E+00 0.  1.
         11    1    3    3    0    0  0.37872551054E+02 -0.35808148282E+01  0.17123590905E+03  0.17541062940E+03  0.00000000000E+00 0. -1.
        -11    1    4    4    0    0 -0.47295134754E+02 -0.20429844740E+01  0.70178479915E+02  0.84652363229E+02  0.00000000000E+00 0.  1.
         11    1    4    4    0    0  0.64210319150E+01 -0.66666167861E+02  0.29613138603E+02  0.73229403699E+02  0.00000000000E+00 0. -1.
         -1    1    1    2    0  502 -0.10793039249E+02 -0.34066199316E+02 -0.17412254083E+02  0.39751505938E+02  0.00000000000E+00 0.  1.
<scales pt_clust_5="13000.00000" pt_clust_6="13000.00000" pt_clust_7="13000.00000" pt_clust_8="13000.00000" pt_clust_9="35.73508"></scales>
<clustering>
<clus scale="   35.735">  2  9  1 -1</clus>
<clus scale="   89.427">  5  6 -1 -1</clus>
<clus scale="   92.610">  7  8 -1 -1</clus>
<clus scale="  140.334">  1  5  2 -1</clus>
<clus scale="   35.735">  2  5  1 -1</clus>
</clustering>
</event>
<event>
 9    1  0.1464797E-005  0.9844031E+02  0.7546771E-02  0.1286482E+00
         21   -1    0    0  501  502  0.00000000000E+00  0.00000000000E+00  0.38064189562E+02  0.38064189562E+02  0.00000000000E+00 0.  1.
          2   -1    0    0  502    0 -0.00000000000E+00 -0.00000000000E+00 -0.48732280423E+03  0.48732280423E+03  0.00000000000E+00 0. -1.
         23    2    1    2    0    0 -0.22653476188E+02  0.22837641595E+02 -0.31465612812E+03  0.33047433686E+03  0.95760485073E+02 0.  0.
         23    2    1    2    0    0  0.14436668309E+02  0.92541514510E+01 -0.13301894758E+03  0.16174781549E+03  0.90411607053E+02 0.  0.
        -11    1    3    3    0    0  0.18199026686E+02  0.41995727964E+02 -0.23034697548E+03  0.23485011146E+03  0.00000000000E+00 0.  1.
         11    1    3    3    0    0 -0.40852502874E+02 -0.19158086368E+02 -0.84309152639E+02  0.95624225398E+02  0.00000000000E+00 0. -1.
        -11    1    4    4    0    0  0.22456882913E+02 -0.37059035187E+02 -0.79315520258E+02  0.90380503611E+02  0.00000000000E+00 0. -1.
         11    1    4    4    0    0 -0.80202146038E+01  0.46313186638E+02 -0.53703427322E+02  0.71367311880E+02  0.00000000000E+00 0.  1.
          2    1    1    2  501    0  0.82168078788E+01 -0.32091793046E+02 -0.15835389738E+01  0.33164841449E+02  0.00000000000E+00 0. -1.
<scales pt_clust_5="13000.00000" pt_clust_6="13000.00000" pt_clust_7="13000.00000" pt_clust_8="13000.00000" pt_clust_9="33.12701"></scales>
<clustering>
<clus scale="   33.127">  1  9  2 -1</clus>
<clus scale="   90.412">  7  8 -1 -1</clus>
<clus scale="   93.245">  1  7  2 -1</clus>
<clus scale="   95.760">  5  6 -1 -1</clus>
<clus scale="   33.127">  1  5  2 -1</clus>
</clustering>
</event>
<event>
 9    1  0.1464797E-005  0.1114662E+03  0.7546771E-02  0.1258350E+00
         -1   -1    0    0    0  501 -0.00000000000E+00  0.00000000000E+00  0.18352815468E+03  0.18352815468E+03  0.00000000000E+00 0.  1.
         21   -1    0    0  501  502  0.00000000000E+00 -0.00000000000E+00 -0.14431762645E+03  0.14431762645E+03  0.00000000000E+00 0. -1.
         23    2    1    2    0    0 -0.15747613873E+02 -0.48753772301E+02  0.92890233733E+02  0.14144118858E+03  0.93552641048E+02 0.  0.
         23    2    1    2    0    0  0.10262472209E+02  0.88160124310E+02 -0.11751791954E+02  0.12860409695E+03  0.92322171135E+02 0.  0.
        -11    1    4    4    0    0  0.36557955317E+02  0.40749256842E+01 -0.16628599550E+02  0.40368297453E+02  0.00000000000E+00 0.  1.
         11    1    4    4    0    0 -0.26295483108E+02  0.84085198626E+02  0.48768075959E+01  0.88235799493E+02  0.00000000000E+00 0. -1.
        -13    1    3    3    0    0 -0.52430953080E+02 -0.45263633187E+02  0.53667813481E+02  0.87624400334E+02  0.00000000000E+00 0. -1.
         13    1    3    3    0    0  0.36683339206E+02 -0.34901391131E+01  0.39222420253E+02  0.53816788243E+02  0.00000000000E+00 0.  1.
         -1    1    1    2    0  502  0.54851416645E+01 -0.39406352009E+02 -0.41927913554E+02  0.57800495610E+02  0.00000000000E+00 0.  1.
<scales pt_clust_5="13000.00000" pt_clust_6="13000.00000" pt_clust_7="13000.00000" pt_clust_8="13000.00000" pt_clust_9="39.78627"></scales>
<clustering>
<clus scale="   39.786">  2  9  1 -1</clus>
<clus scale="   92.322">  5  6 -1 -1</clus>
<clus scale="   93.553">  7  8 -1 -1</clus>
<clus scale="  110.436">  2  5  1 -1</clus>
<clus scale="   39.786">  2  5  1 -1</clus>
</clustering>
</event>
<event>
 9    1  0.1464797E-005  0.1500084E+03  0.7546771E-02  0.1200486E+00
         21   -1    0    0  501  502  0.00000000000E+00  0.00000000000E+00  0.14671483297E+03  0.14671483297E+03  0.00000000000E+00 0. -1.
          1   -1    0    0  502    0 -0.00000000000E+00 -0.00000000000E+00 -0.28575922203E+03  0.28575922203E+03  0.00000000000E+00 0. -1.
         23    2    1    2    0    0 -0.14291568037E+03  0.17621675201E+02 -0.46453500406E+02  0.17727403440E+03  0.92372833900E+02 0.  0.
         23    2    1    2    0    0  0.82396071044E+02 -0.46211055863E+02  0.10313279325E+02  0.13244317319E+03  0.92251049790E+02 0.  0.
        -13    1    4    4    0    0  0.84648411754E+02 -0.98071794224E+01 -0.16978097924E+02  0.86889528655E+02  0.00000000000E+00 0.  1.
         13    1    4    4    0    0 -0.22523407097E+01 -0.36403876440E+02  0.27291377249E+02  0.45553644538E+02  0.00000000000E+00 0. -1.
        -13    1    3    3    0    0  0.59334870207E+01  0.21326739960E+02 -0.74224793185E+01  0.23348004300E+02  0.00000000000E+00 0.  1.
         13    1    3    3    0    0 -0.14884916739E+03 -0.37050647596E+01 -0.39031021087E+02  0.15392603010E+03  0.00000000000E+00 0. -1.
          1    1    1    2  501    0  0.60519609321E+02  0.28589380662E+02 -0.10290416798E+03  0.12275684741E+03  0.00000000000E+00 0. -1.
<scales pt_clust_5="13000.00000" pt_clust_6="13000.00000" pt_clust_7="13000.00000" pt_clust_8="13000.00000" pt_clust_9="66.93265"></scales>
<clustering>
<clus scale="   66.933">  1  9  2 -1</clus>
<clus scale="   92.251">  5  6 -1 -1</clus>
<clus scale="   92.373">  7  8 -1 -1</clus>
<clus scale="  149.933">  1  5  2 -1</clus>
<clus scale="   66.933">  1  5  2 -1</clus>
</clustering>
</event>
<event>
 9    1  0.1464797E-005  0.9731932E+02  0.7546771E-02  0.1286492E+00
         21   -1    0    0  501  502  0.00000000000E+00  0.00000000000E+00  0.14728980892E+03  0.14728980892E+03  0.00000000000E+00 0. -1.
          1   -1    0    0  502    0 -0.00000000000E+00 -0.00000000000E+00 -0.32905152784E+03  0.32905152784E+03  0.00000000000E+00 0. -1.
         23    2    1    2    0    0  0.57323009340E+01  0.44598451803E+02 -0.23138713170E+03  0.25259252069E+03  0.90780480367E+02 0.  0.
         23    2    1    2    0    0 -0.32856727563E+02  0.12066085416E+02 -0.46764559172E+02  0.10869391181E+03  0.91663992424E+02 0.  0.
        -11    1    3    3    0    0  0.35959441081E+02  0.24689270408E+02 -0.19994666410E+03  0.20464923641E+03  0.00000000000E+00 0.  1.
         11    1    3    3    0    0 -0.30227140147E+02  0.19909181395E+02 -0.31440467598E+02  0.47943284285E+02  0.00000000000E+00 0. -1.
        -13    1    4    4    0    0 -0.35488216136E+02 -0.25538563155E+02  0.56984992950E+01  0.44092001392E+02  0.00000000000E+00 0.  1.
         13    1    4    4    0    0  0.26314885732E+01  0.37604648571E+02 -0.52463058467E+02  0.64601910420E+02  0.00000000000E+00 0. -1.
          1    1    1    2  501    0  0.27124426629E+02 -0.56664537219E+02  0.96389971955E+02  0.11505490425E+03  0.00000000000E+00 0. -1.
<scales pt_clust_5="13000.00000" pt_clust_6="13000.00000" pt_clust_7="13000.00000" pt_clust_8="13000.00000" pt_clust_9="62.82200"></scales>
<clustering>
<clus scale="   62.822">  1  9  2 -1</clus>
<clus scale="   90.780">  5  6 -1 -1</clus>
<clus scale="   91.664">  7  8 -1 -1</clus>
<clus scale="   96.488">  2  5  1 -1</clus>
<clus scale="   62.822">  1  5  2 -1</clus>
</clustering>
</event>
<event>
 9    1  0.1464797E-005  0.1173033E+03  0.7546771E-02  0.1248759E+00
         21   -1    0    0  501  502  0.00000000000E+00  0.00000000000E+00  0.16200514150E+03  0.16200514150E+03  0.00000000000E+00 0.  1.
          1   -1    0    0  502    0 -0.00000000000E+00 -0.00000000000E+00 -0.12724917851E+03  0.12724917851E+03  0.00000000000E+00 0. -1.
         23    2    1    2    0    0  0.21923534457E+02 -0.58789252074E+02 -0.18092383080E+02  0.11221626271E+03  0.91259726985E+02 0.  0.
         23    2    1    2    0    0 -0.55577037395E+02  0.76004644153E+02  0.27874165449E+02  0.13173201265E+03  0.87811394697E+02 0.  0.
        -11    1    4    4    0    0 -0.46258723111E+02 -0.55918343226E+01  0.11385380882E+02  0.47966289963E+02  0.00000000000E+00 0.  1.
         11    1    4    4    0    0 -0.93183142845E+01  0.81596478476E+02  0.16488784567E+02  0.83765722687E+02  0.00000000000E+00 0. -1.
        -11    1    3    3    0    0 -0.15864846084E+02 -0.68180388766E+02 -0.18492180327E+01  0.70026269077E+02  0.00000000000E+00 0.  1.
         11    1    3    3    0    0  0.37788380541E+02  0.93911366916E+01 -0.16243165048E+02  0.42189993636E+02  0.00000000000E+00 0. -1.
          1    1    1    2  501    0  0.33653502939E+02 -0.17215392079E+02  0.24974180621E+02  0.45306044654E+02  0.00000000000E+00 0. -1.
<scales pt_clust_5="13000.00000" pt_clust_6="13000.00000" pt_clust_7="13000.00000" pt_clust_8="13000.00000" pt_clust_9="37.80116"></scales>
<clustering>
<clus scale="   37.801">  1  9  2 -1</clus>
<clus scale="   87.811">  5  6 -1 -1</clus>
<clus scale="   91.260">  7  8 -1 -1</clus>
<clus scale="  114.641">  1  5  2 -1</clus>
<clus scale="   37.801">  1  5  2 -1</clus>
</clustering>
</event>
<event>
 9    1  0.1464797E-005  0.1332718E+03  0.7546771E-02  0.1223331E+00
         -1   -1    0    0    0  501 -0.00000000000E+00  0.00000000000E+00  0.42551642429E+03  0.42551642429E+03  0.00000000000E+00 0.  1.
         21   -1    0    0  501  502  0.00000000000E+00 -0.00000000000E+00 -0.20509301162E+03  0.20509301162E+03  0.00000000000E+00 0. -1.
         23    2    1    2    0    0  0.97232536769E+02 -0.12092930230E+01  0.37677205714E+03  0.39929706950E+03  0.89584251258E+02 0.  0.
         23    2    1    2    0    0 -0.85897093761E+02 -0.21224940807E+02 -0.79607462906E+02  0.15055968184E+03  0.92206620250E+02 0.  0.
        -11    1    4    4    0    0 -0.55716235795E+02 -0.57077475807E+02 -0.40158591478E+02  0.89302013668E+02  0.00000000000E+00 0.  1.
         11    1    4    4    0    0 -0.30180857966E+02  0.35852535000E+02 -0.39448871428E+02  0.61257668176E+02  0.00000000000E+00 0. -1.
        -11    1    3    3    0    0  0.86679174680E+01 -0.21653911596E+02  0.18776676297E+02  0.29943083566E+02  0.00000000000E+00 0. -1.
         11    1    3    3    0    0  0.88564619301E+02  0.20444618573E+02  0.35799538085E+03  0.36935398594E+03  0.00000000000E+00 0.  1.
         -1    1    1    2    0  502 -0.11335443008E+02  0.22434233830E+02 -0.76741181566E+02  0.80752684561E+02  0.00000000000E+00 0.  1.
<scales pt_clust_5="13000.00000" pt_clust_6="13000.00000" pt_clust_7="13000.00000" pt_clust_8="13000.00000" pt_clust_9="25.13538"></scales>
<clustering>
<clus scale="   25.135">  2  9  1 -1</clus>
<clus scale="   89.584">  7  8 -1 -1</clus>
<clus scale="   92.207">  5  6 -1 -1</clus>
<clus scale="  131.471">  1  7  2 -1</clus>
<clus scale="   25.135">  2  5  1 -1</clus>
</clustering>
</event>
<event>
 9    1  0.1464797E-005  0.1072993E+03  0.7546771E-02  0.1268851E+00
          2   -1    0    0  502    0 -0.00000000000E+00  0.00000000000E+00  0.70029066301E+03  0.70029066301E+03  0.00000000000E+00 0. -1.
         21   -1    0    0  501  502  0.00000000000E+00 -0.00000000000E+00 -0.25772649239E+02  0.25772649239E+02  0.00000000000E+00 0.  1.
         23    2    1    2    0    0 -0.14259678023E+01  0.52102692040E+02  0.48599147375E+03  0.49865010107E+03  0.98729361589E+02 0.  0.
         23    2    1    2    0    0 -0.51017217576E+01 -0.20706510062E+02  0.15228447699E+03  0.17902087597E+03  0.91668560470E+02 0.  0.
        -13    1    3    3    0    0 -0.47640766483E+02  0.25026151944E+02  0.31179019623E+03  0.31640018548E+03  0.00000000000E+00 0. -1.
         13    1    3    3    0    0  0.46214798680E+02  0.27076540095E+02  0.17420127752E+03  0.18224991558E+03  0.00000000000E+00 0.  1.
        -13    1    4    4    0    0 -0.29622046818E+02 -0.14814853415E+01  0.14366169432E+03  0.14669131833E+03  0.00000000000E+00 0. -1.
         13    1    4    4    0    0  0.24520325061E+02 -0.19225024720E+02  0.86227826623E+01  0.32329557644E+02  0.00000000000E+00 0.  1.
          2    1    1    2  501    0  0.65276895599E+01 -0.31396181978E+02  0.36242063043E+02  0.48392335213E+02  0.00000000000E+00 0. -1.
<scales pt_clust_5="13000.00000" pt_clust_6="13000.00000" pt_clust_7="13000.00000" pt_clust_8="13000.00000" pt_clust_9="32.06760"></scales>
<clustering>
<clus scale="   32.068">  2  9  1 -1</clus>
<clus scale="   91.669">  7  8 -1 -1</clus>
<clus scale="   98.729">  5  6 -1 -1</clus>
<clus scale="  100.840">  2  7  1 -1</clus>
<clus scale="   32.068">  2  5  1 -1</clus>
</clustering>
</event>
<event>
 9    1  0.1464797E-005  0.1071273E+03  0.7546771E-02  0.1267733E+00
          2   -1    0    0  502    0 -0.00000000000E+00  0.00000000000E+00  0.35813869533E+02  0.35813869533E+02  0.00000000000E+00 0. -1.
         21   -1    0    0  501  502  0.00000000000E+00 -0.00000000000E+00 -0.58907331371E+03  0.58907331371E+03  0.00000000000E+00 0. -1.
         23    2    1    2    0    0 -0.13036041014E+02  0.36968580696E+02 -0.93494047236E+02  0.13953530930E+03  0.95876750825E+02 0.  0.
         23    2    1    2    0    0  0.34019608253E+02 -0.61204479168E+02 -0.28233062080E+03  0.30504439031E+03  0.91859559138E+02 0.  0.
        -13    1    3    3    0    0  0.31921345183E+02  0.33182343452E+02 -0.80240102216E+02  0.92512238104E+02  0.00000000000E+00 0. -1.
         13    1    3    3    0    0 -0.44957386196E+02  0.37862372431E+01 -0.13253945020E+02  0.47023071196E+02  0.00000000000E+00 0.  1.
        -13    1    4    4    0    0  0.30540624072E+02 -0.49127904456E+01 -0.20268642518E+02  0.36982199748E+02  0.00000000000E+00 0.  1.
         13    1    4    4    0    0  0.34789841810E+01 -0.56291688722E+02 -0.26206197828E+03  0.26806219057E+03  0.00000000000E+00 0. -1.
          2    1    1    2  501    0 -0.20983567240E+02  0.24235898472E+02 -0.17743477614E+03  0.18030748363E+03  0.00000000000E+00 0. -1.
<scales pt_clust_5="13000.00000" pt_clust_6="13000.00000" pt_clust_7="13000.00000" pt_clust_8="13000.00000" pt_clust_9="32.05759"></scales>
<clustering>
<clus scale="   32.058">  2  9  1 -1</clus>
<clus scale="   91.860">  7  8 -1 -1</clus>
<clus scale="   95.877">  5  6 -1 -1</clus>
<clus scale="  103.548">  2  7  1 -1</clus>
<clus scale="   32.058">  2  5  1 -1</clus>
</clustering>
</event>
<event>
 9    1  0.1464797E-005  0.9596578E+02  0.7546771E-02  0.1290384E+00
         21   -1    0    0  501  502  0.00000000000E+00  0.00000000000E+00  0.10744312385E+03  0.10744312385E+03  0.00000000000E+00 0. -1.
          1   -1    0    0  502    0 -0.00000000000E+00 -0.00000000000E+00 -0.29354401416E+03  0.29354401416E+03  0.00000000000E+00 0. -1.
         23    2    1    2    0    0  0.30484370374E+02 -0.70850528104E+01 -0.23942184249E+03  0.25741848676E+03  0.89229837238E+02 0.  0.
         23    2    1    2    0    0 -0.58497929735E+01 -0.22269643788E+02  0.42674811684E+02  0.10379553315E+03  0.91772632285E+02 0.  0.
        -11    1    4    4    0    0  0.39392260878E+02 -0.26228090366E+02  0.32043561257E+02  0.57152889335E+02  0.00000000000E+00 0. -1.
         11    1    4    4    0    0 -0.45242053852E+02  0.39584465780E+01  0.10631250427E+02  0.46642643811E+02  0.00000000000E+00 0.  1.
        -11    1    3    3    0    0  0.36314994045E+02  0.15717767257E+02 -0.22772197310E+03  0.23113442849E+03  0.00000000000E+00 0. -1.
         11    1    3    3    0    0 -0.58306236704E+01 -0.22802820067E+02 -0.11699869389E+02  0.26284058270E+02  0.00000000000E+00 0.  1.
          1    1    1    2  501    0 -0.24634577401E+02  0.29354696598E+02  0.10646140492E+02  0.39773118101E+02  0.00000000000E+00 0. -1.
<scales pt_clust_5="13000.00000" pt_clust_6="13000.00000" pt_clust_7="13000.00000" pt_clust_8="13000.00000" pt_clust_9="38.32180"></scales>
<clustering>
<clus scale="   38.322">  1  9  2 -1</clus>
<clus scale="   89.230">  7  8 -1 -1</clus>
<clus scale="   91.773">  5  6 -1 -1</clus>
<clus scale="   93.537">  2  7  1 -1</clus>
<clus scale="   38.322">  1  5  2 -1</clus>
</clustering>
</event>
<event>
 9    1  0.1464797E-005  0.1381038E+03  0.7546771E-02  0.1216350E+00
         21   -1    0    0  501  502  0.00000000000E+00  0.00000000000E+00  0.24345905215E+03  0.24345905215E+03  0.00000000000E+00 0.  1.
          2   -1    0    0  502    0 -0.00000000000E+00 -0.00000000000E+00 -0.10660602380E+03  0.10660602380E+03  0.00000000000E+00 0. -1.
         23    2    1    2    0    0  0.96383100581E+02  0.12309226116E+01  0.81518754065E+01  0.13227150786E+03  0.90211315645E+02 0.  0.
         23    2    1    2    0    0 -0.11556677188E+03  0.16822443493E+02  0.10268926425E+03  0.18077255210E+03  0.92168092275E+02 0.  0.
        -11    1    3    3    0    0  0.58073708945E+02  0.32388151155E+02  0.35964593662E+02  0.75597619031E+02  0.00000000000E+00 0.  1.
         11    1    3    3    0    0  0.38309391636E+02 -0.31157228544E+02 -0.27812718256E+02  0.56673888828E+02  0.00000000000E+00 0. -1.
        -13    1    4    4    0    0 -0.96609310690E+02  0.51330595933E+02  0.75923801435E+02  0.13316385626E+03  0.00000000000E+00 0.  1.
         13    1    4    4    0    0 -0.18957461186E+02 -0.34508152440E+02  0.26765462815E+02  0.47608695835E+02  0.00000000000E+00 0. -1.
          2    1    1    2  501    0  0.19183671295E+02 -0.18053366104E+02  0.26011888688E+02  0.37021015993E+02  0.00000000000E+00 0. -1.
<scales pt_clust_5="13000.00000" pt_clust_6="13000.00000" pt_clust_7="13000.00000" pt_clust_8="13000.00000" pt_clust_9="26.34269"></scales>
<clustering>
<clus scale="   26.343">  1  9  2 -1</clus>
<clus scale="   90.211">  5  6 -1 -1</clus>
<clus scale="   92.168">  7  8 -1 -1</clus>
<clus scale="  136.806">  2  5  1 -1</clus>
<clus scale="   26.343">  1  5  2 -1</clus>
</clustering>
</event>
<event>
 9    1  0.1464797E-005  0.9359880E+02  0.7546771E-02  0.1294935E+00
          2   -1    0    0  502    0 -0.00000000000E+00  0.00000000000E+00  0.11972528697E+03  0.11972528697E+03  0.00000000000E+00 0. -1.
         21   -1    0    0  501  502  0.00000000000E+00 -0.00000000000E+00 -0.15308148238E+03  0.15308148238E+03  0.00000000000E+00 0. -1.
         23    2    1    2    0    0 -0.13056869360E+02  0.17162088157E+02  0.42491769268E+02  0.10409453487E+03  0.92547839668E+02 0.  0.
         23    2    1    2    0    0  0.13851617437E+02  0.18218999406E+02 -0.11221387398E+02  0.95030164263E+02  0.91547874577E+02 0.  0.
        -11    1    3    3    0    0 -0.47297311229E+02 -0.13242755725E+02  0.19383887352E+02  0.52802853309E+02  0.00000000000E+00 0.  1.
         11    1    3    3    0    0  0.34240441869E+02  0.30404843882E+02  0.23107881916E+02  0.51291681563E+02  0.00000000000E+00 0. -1.
        -13    1    4    4    0    0 -0.30157422146E+02 -0.18869531857E+02  0.31392513007E+01  0.35712522198E+02  0.00000000000E+00 0.  1.
         13    1    4    4    0    0  0.44009039583E+02  0.37088531263E+02 -0.14360638699E+02  0.59317642065E+02  0.00000000000E+00 0. -1.
          2    1    1    2  501    0 -0.79474807691E+00 -0.35381087564E+02 -0.64626577278E+02  0.73682070223E+02  0.00000000000E+00 0. -1.
<scales pt_clust_5="13000.00000" pt_clust_6="13000.00000" pt_clust_7="13000.00000" pt_clust_8="13000.00000" pt_clust_9="35.39001"></scales>
<clustering>
<clus scale="   35.390">  2  9  1 -1</clus>
<clus scale="   91.548">  7  8 -1 -1</clus>
<clus scale="   92.548">  5  6 -1 -1</clus>
<clus scale="   92.610">  2  7  1 -1</clus>
<clus scale="   35.390">  2  5  1 -1</clus>
</clustering>
</event>
<event>
 9    1  0.1464797E-005  0.2168317E+03  0.7546771E-02  0.1136367E+00
         21   -1    0    0  501  502  0.00000000000E+00  0.00000000000E+00  0.70980627889E+02  0.70980627889E+02  0.00000000000E+00 0.  1.
          1   -1    0    0  502    0 -0.00000000000E+00 -0.00000000000E+00 -0.95311154288E+03  0.95311154288E+03  0.00000000000E+00 0. -1.
         23    2    1    2    0    0 -0.18916676459E+03  0.81957326585E+01 -0.43639619391E+03  0.48460650624E+03  0.92469416380E+02 0.  0.
         23    2    1    2    0    0  0.20352881112E+03  0.16681451172E+02 -0.45686724660E+03  0.50867859099E+03  0.91235848982E+02 0.  0.
        -11    1    3    3    0    0 -0.10244749946E+03 -0.33631288869E+02 -0.28990927194E+03  0.30931204259E+03  0.00000000000E+00 0. -1.
         11    1    3    3    0    0 -0.86719265132E+02  0.41827021528E+02 -0.14648692197E+03  0.17529446364E+03  0.00000000000E+00 0.  1.
        -11    1    4    4    0    0  0.51946453127E+02  0.20310285921E+02 -0.22368607311E+03  0.23053503207E+03  0.00000000000E+00 0. -1.
         11    1    4    4    0    0  0.15158235799E+03 -0.36288347486E+01 -0.23318117349E+03  0.27814355892E+03  0.00000000000E+00 0.  1.
          1    1    1    2  501    0 -0.14362046529E+02 -0.24877183831E+02  0.11132525526E+02  0.30807073546E+02  0.00000000000E+00 0. -1.
<scales pt_clust_5="13000.00000" pt_clust_6="13000.00000" pt_clust_7="13000.00000" pt_clust_8="13000.00000" pt_clust_9="28.72530"></scales>
<clustering>
<clus scale="   28.725">  1  9  2 -1</clus>
<clus scale="   91.236">  7  8 -1 -1</clus>
<clus scale="   92.469">  5  6 -1 -1</clus>
<clus scale="  216.309">  1  7  2 -1</clus>
<clus scale="   28.725">  1  5  2 -1</clus>
</clustering>
</event>
<event>
 9    1  0.1464797E-005  0.1015686E+03  0.7546771E-02  0.1278780E+00
          1   -1    0    0  502    0 -0.00000000000E+00  0.00000000000E+00  0.36043164401E+02  0.36043164401E+02  0.00000000000E+00 0. -1.
         21   -1    0    0  501  502  0.00000000000E+00 -0.00000000000E+00 -0.76730862650E+03  0.76730862650E+03  0.00000000000E+00 0. -1.
         23    2    1    2    0    0  0.37760080952E+02 -0.14896095681E+02 -0.10183420793E+03  0.14569688781E+03  0.95966972618E+02 0.  0.
         23    2    1    2    0    0 -0.19807503236E+02 -0.59058642521E+02 -0.31477063955E+03  0.33392214178E+03  0.92429328736E+02 0.  0.
        -11    1    3    3    0    0 -0.19410970360E+02  0.27028333788E+02 -0.30999312553E+02  0.45478280272E+02  0.00000000000E+00 0.  1.
         11    1    3    3    0    0  0.57171051312E+02 -0.41924429469E+02 -0.70834895375E+02  0.10021860754E+03  0.00000000000E+00 0. -1.
        -13    1    4    4    0    0 -0.34521572152E+02 -0.14727373304E+02 -0.38634490756E+02  0.53863330237E+02  0.00000000000E+00 0.  1.
         13    1    4    4    0    0  0.14714068917E+02 -0.44331269216E+02 -0.27613614879E+03  0.28005881154E+03  0.00000000000E+00 0. -1.
          1    1    1    2  501    0 -0.17952577716E+02  0.73954738202E+02 -0.31466061462E+03  0.32373276131E+03  0.00000000000E+00 0. -1.
<scales pt_clust_5="13000.00000" pt_clust_6="13000.00000" pt_clust_7="13000.00000" pt_clust_8="13000.00000" pt_clust_9="76.10255"></scales>
<clustering>
<clus scale="   76.103">  2  9  1 -1</clus>
<clus scale="   92.429">  7  8 -1 -1</clus>
<clus scale="   95.967">  5  6 -1 -1</clus>
<clus scale="   98.233">  2  7  1 -1</clus>
<clus scale="   76.103">  2  5  1 -1</clus>
</clustering>
</event>
<event>
 9    1  0.1464797E-005  0.9590173E+02  0.7546771E-02  0.1291454E+00
          1   -1    0    0  502    0 -0.00000000000E+00  0.00000000000E+00  0.39751214187E+03  0.39751214187E+03  0.00000000000E+00 0. -1.
         21   -1    0    0  501  502  0.00000000000E+00 -0.00000000000E+00 -0.73832028478E+02  0.73832028478E+02  0.00000000000E+00 0. -1.
         23    2    1    2    0    0 -0.40294461282E+01 -0.25308242510E+02  0.22812764760E+03  0.24674143328E+03  0.90456441012E+02 0.  0.
         23    2    1    2    0    0 -0.37056950997E+01  0.17447413858E+01  0.14275755375E+03  0.17127927764E+03  0.94552078231E+02 0.  0.
        -11    1    3    3    0    0  0.92908825584E+01 -0.57987210210E+02  0.14220369047E+03  0.15385293832E+03  0.00000000000E+00 0. -1.
         11    1    3    3    0    0 -0.13320328687E+02  0.32678967699E+02  0.85923957133E+02  0.92888494958E+02  0.00000000000E+00 0.  1.
        -11    1    4    4    0    0 -0.46840929069E+02  0.63413104206E+00  0.10051197976E+03  0.11089243812E+03  0.00000000000E+00 0.  1.
         11    1    4    4    0    0  0.43135233970E+02  0.11106103437E+01  0.42245573995E+02  0.60386839519E+02  0.00000000000E+00 0. -1.
          1    1    1    2  501    0  0.77351412279E+01  0.23563501125E+02 -0.47205087966E+02  0.53323459424E+02  0.00000000000E+00 0. -1.
<scales pt_clust_5="13000.00000" pt_clust_6="13000.00000" pt_clust_7="13000.00000" pt_clust_8="13000.00000" pt_clust_9="24.80062"></scales>
<clustering>
<clus scale="   24.801">  2  9  1 -1</clus>
<clus scale="   90.456">  5  6 -1 -1</clus>
<clus scale="   91.866">  1  5  2 -1</clus>
<clus scale="   94.552">  7  8 -1 -1</clus>
<clus scale="   24.801">  2  5  1 -1</clus>
</clustering>
</event>
<event>
 9    1  0.1464797E-005  0.1224260E+03  0.7546771E-02  0.1244064E+00
         -2   -1    0    0    0  501 -0.00000000000E+00  0.00000000000E+00  0.47736596997E+03  0.47736596997E+03  0.00000000000E+00 0.  1.
         21   -1    0    0  501  502  0.00000000000E+00 -0.00000000000E+00 -0.40426409596E+02  0.40426409596E+02  0.00000000000E+00 0. -1.
         23    2    1    2    0    0  0.58534504117E+02 -0.43766596886E+02  0.22851036870E+03  0.25200912998E+03  0.77135010278E+02 0.  0.
         23    2    1    2    0    0 -0.88773145620E+02  0.32632474485E+02  0.16940208227E+03  0.21517238722E+03  0.93040534019E+02 0.  0.
        -11    1    3    3    0    0  0.60804366987E+02 -0.67517594930E+01  0.91496378095E+02  0.11006518298E+03  0.00000000000E+00 0. -1.
         11    1    3    3    0    0 -0.22698628707E+01 -0.37014837393E+02  0.13701399061E+03  0.14194394699E+03  0.00000000000E+00 0.  1.
        -11    1    4    4    0    0 -0.65029498376E+02 -0.86859308923E+01  0.38971999829E+02  0.76309225033E+02  0.00000000000E+00 0.  1.
         11    1    4    4    0    0 -0.23743647245E+02  0.41318405377E+02  0.13043008244E+03  0.13886316218E+03  0.00000000000E+00 0. -1.
         -2    1    1    2    0  502  0.30238641504E+02  0.11134122401E+02  0.39027109402E+02  0.50610862370E+02  0.00000000000E+00 0.  1.
<scales pt_clust_5="13000.00000" pt_clust_6="13000.00000" pt_clust_7="13000.00000" pt_clust_8="13000.00000" pt_clust_9="32.22335"></scales>
<clustering>
<clus scale="   32.223">  2  9  1 -1</clus>
<clus scale="   77.135">  5  6 -1 -1</clus>
<clus scale="   93.041">  7  8 -1 -1</clus>
<clus scale="  110.821">  1  5  2 -1</clus>
<clus scale="   32.223">  2  5  1 -1</clus>
</clustering>
</event>
<event>
 9    1  0.1464797E-005  0.1334953E+03  0.7546771E-02  0.1228660E+00
          1   -1    0    0  502    0 -0.00000000000E+00  0.00000000000E+00  0.92751726970E+02  0.92751726970E+02  0.00000000000E+00 0. -1.
         21   -1    0    0  501  502  0.00000000000E+00 -0.00000000000E+00 -0.26239189310E+03  0.26239189310E+03  0.00000000000E+00 0. -1.
         23    2    1    2    0    0  0.74814491400E+02 -0.19130214292E+02 -0.57596642002E+02  0.11669275128E+03  0.65853259676E+02 0.  0.
         23    2    1    2    0    0 -0.12682294668E+03  0.58482730740E+01 -0.80580010153E+02  0.17623156234E+03  0.91903010981E+02 0.  0.
        -11    1    3    3    0    0  0.30899535752E+02  0.13409294841E+02 -0.51719450194E+02  0.61721082510E+02  0.00000000000E+00 0.  1.
         11    1    3    3    0    0  0.43914955648E+02 -0.32539509133E+02 -0.58771918075E+01  0.54971668773E+02  0.00000000000E+00 0. -1.
        -13    1    4    4    0    0  0.27617558828E+01 -0.23492309872E+02 -0.89712922760E+01  0.25298221356E+02  0.00000000000E+00 0.  1.
         13    1    4    4    0    0 -0.12958470256E+03  0.29340582946E+02 -0.71608717877E+02  0.15093334098E+03  0.00000000000E+00 0. -1.
          1    1    1    2  501    0  0.52008455276E+02  0.13281941218E+02 -0.31463513973E+02  0.62219306443E+02  0.00000000000E+00 0. -1.
<scales pt_clust_5="13000.00000" pt_clust_6="13000.00000" pt_clust_7="13000.00000" pt_clust_8="13000.00000" pt_clust_9="53.67764"></scales>
<clustering>
<clus scale="   53.678">  2  9  1 -1</clus>
<clus scale="   65.853">  5  6 -1 -1</clus>
<clus scale="   91.903">  7  8 -1 -1</clus>
<clus scale="  117.096">  1  5  2 -1</clus>
<clus scale="   53.678">  2  5  1 -1</clus>
</clustering>
</event>
<event>
 9    1  0.1655476E-005  0.1837240E+03  0.7546771E-02  0.1187055E+00
         -1   -1    0    0    0  501 -0.00000000000E+00  0.00000000000E+00  0.10908450063E+04  0.10908450063E+04  0.00000000000E+00 0.  1.
         21   -1    0    0  501  502  0.00000000000E+00 -0.00000000000E+00 -0.10333928548E+03  0.10333928548E+03  0.00000000000E+00 0.  1.
         23    2    1    2    0    0 -0.51350795477E+02 -0.10420324233E+02  0.20912553381E+03  0.23610309220E+03  0.96258474433E+02 0.  0.
         23    2    1    2    0    0  0.41878098417E+02 -0.14964983063E+03  0.77704393646E+03  0.79772543250E+03  0.91759138676E+02 0.  0.
        -11    1    3    3    0    0  0.55879254919E+01 -0.37840082235E+02  0.12602629970E+03  0.13170316986E+03  0.00000000000E+00 0. -1.
         11    1    3    3    0    0 -0.56938720968E+02  0.27419758003E+02  0.83099234113E+02  0.10439992234E+03  0.00000000000E+00 0.  1.
        -13    1    4    4    0    0  0.13080260762E+02 -0.13187055703E+03  0.71378494946E+03  0.72598201844E+03  0.00000000000E+00 0.  1.
         13    1    4    4    0    0  0.28797837655E+02 -0.17779273610E+02  0.63258987000E+02  0.71743414053E+02  0.00000000000E+00 0. -1.
         -1    1    1    2    0  502  0.94726970592E+01  0.16007015487E+03  0.13362505502E+01  0.16035576708E+03  0.00000000000E+00 0.  1.
<scales pt_clust_5="13000.00000" pt_clust_6="13000.00000" pt_clust_7="13000.00000" pt_clust_8="13000.00000" pt_clust_9="159.16900"></scales>
<clustering>
<clus scale="   91.759">  7  8 -1 -1</clus>
<clus scale="   96.258">  5  6 -1 -1</clus>
<clus scale="  109.596">  1  5  2 -1</clus>
<clus scale="  159.169">  2  9  1 -1</clus>
<clus scale="  159.169">  2  5  1 -1</clus>
</clustering>
</event>
<event>
 9    1  0.1464797E-005  0.1144210E+03  0.7546771E-02  0.1254386E+00
          1   -1    0    0  502    0 -0.00000000000E+00  0.00000000000E+00  0.89771397182E+02  0.89771397182E+02  0.00000000000E+00 0. -1.
         21   -1    0    0  501  502  0.00000000000E+00 -0.00000000000E+00 -0.52001793204E+03  0.52001793204E+03  0.00000000000E+00 0. -1.
         23    2    1    2    0    0 -0.15683912330E+02  0.64995139597E+02 -0.33179022959E+02  0.11969956288E+03  0.93577692383E+02 0.  0.
         23    2    1    2    0    0 -0.50691685645E+02 -0.46972504254E+02 -0.40239689821E+02  0.12669379773E+03  0.98265062958E+02 0.  0.
        -11    1    4    4    0    0 -0.77948328979E+02 -0.24338278491E+02 -0.40746290382E+02  0.91260911515E+02  0.00000000000E+00 0. -1.
         11    1    4    4    0    0  0.27256643335E+02 -0.22634225763E+02  0.50660056140E+00  0.35432886220E+02  0.00000000000E+00 0.  1.
        -13    1    3    3    0    0 -0.45610833302E+02  0.58617415909E+02 -0.45063320530E+02  0.86873772910E+02  0.00000000000E+00 0. -1.
         13    1    3    3    0    0  0.29926920973E+02  0.63777236877E+01  0.11884297571E+02  0.32825789969E+02  0.00000000000E+00 0.  1.
          1    1    1    2  501    0  0.66375597974E+02 -0.18022635342E+02 -0.35682782208E+03  0.36339596861E+03  0.00000000000E+00 0. -1.
<scales pt_clust_5="13000.00000" pt_clust_6="13000.00000" pt_clust_7="13000.00000" pt_clust_8="13000.00000" pt_clust_9="68.77889"></scales>
<clustering>
<clus scale="   68.779">  2  9  1 -1</clus>
<clus scale="   93.578">  7  8 -1 -1</clus>
<clus scale="   98.265">  5  6 -1 -1</clus>
<clus scale="  110.422">  1  7  2 -1</clus>
<clus scale="   68.779">  2  5  1 -1</clus>
</clustering>
</event>
<event>
 9    1  0.1464797E-005  0.2729565E+03  0.7546771E-02  0.1099621E+00
         21   -1    0    0  501  502  0.00000000000E+00  0.00000000000E+00  0.53310133170E+03  0.53310133170E+03  0.00000000000E+00 0.  1.
          1   -1    0    0  502    0 -0.00000000000E+00 -0.00000000000E+00 -0.29352291021E+03  0.29352291021E+03  0.00000000000E+00 0. -1.
         23    2    1    2    0    0  0.40488050905E+02 -0.24642737842E+03 -0.54173495708E+02  0.27129700123E+03  0.91112897738E+02 0.  0.
         23    2    1    2    0    0  0.11539363227E+02  0.27114392998E+03  0.33035380849E+02  0.28832373496E+03  0.91580850003E+02 0.  0.
        -11    1    4    4    0    0  0.45976944119E+02  0.82095461882E+02  0.61701775762E+01  0.94295362258E+02  0.00000000000E+00 0. -1.
         11    1    4    4    0    0 -0.34437580892E+02  0.18904846810E+03  0.26865203273E+02  0.19402837271E+03  0.00000000000E+00 0.  1.
        -11    1    3    3    0    0  0.24106234316E+02 -0.21737469003E+03 -0.14102404378E+02  0.21916145694E+03  0.00000000000E+00 0. -1.
         11    1    3    3    0    0  0.16381816589E+02 -0.29052688392E+02 -0.40071091330E+02  0.52135544285E+02  0.00000000000E+00 0.  1.
          1    1    1    2  501    0 -0.52027414132E+02 -0.24716551557E+02  0.26071653635E+03  0.26700350572E+03  0.00000000000E+00 0. -1.
<scales pt_clust_5="13000.00000" pt_clust_6="13000.00000" pt_clust_7="13000.00000" pt_clust_8="13000.00000" pt_clust_9="57.60000"></scales>
<clustering>
<clus scale="   57.600">  1  9  2 -1</clus>
<clus scale="   91.113">  7  8 -1 -1</clus>
<clus scale="   91.581">  5  6 -1 -1</clus>
<clus scale="  272.800">  2  7  1 -1</clus>
<clus scale="   57.600">  1  5  2 -1</clus>
</clustering>
</event>
<event>
 9    1  0.1464797E-005  0.1292287E+03  0.7546771E-02  0.1229325E+00
          1   -1    0    0  502    0 -0.00000000000E+00  0.00000000000E+00  0.10297918150E+04  0.10297918150E+04  0.00000000000E+00 0. -1.
         21   -1    0    0  501  502  0.00000000000E+00 -0.00000000000E+00 -0.22843675457E+02  0.22843675457E+02  0.00000000000E+00 0. -1.
         23    2    1    2    0    0 -0.45234502020E+02 -0.66770146077E+02  0.50439456291E+03  0.51922470615E+03  0.93145090069E+02 0.  0.
         23    2    1    2    0    0  0.48085256053E+02  0.88727755829E+02  0.48903040231E+03  0.50746584898E+03  0.90476775964E+02 0.  0.
        -13    1    4    4    0    0  0.30324161463E+02  0.10529726182E+03  0.42735852407E+03  0.44118292828E+03  0.00000000000E+00 0. -1.
         13    1    4    4    0    0  0.17761094590E+02 -0.16569505987E+02  0.61671878243E+02  0.66282920694E+02  0.00000000000E+00 0.  1.
        -13    1    3    3    0    0 -0.57751060658E+02 -0.83481682163E+02  0.39354599580E+03  0.40642690250E+03  0.00000000000E+00 0.  1.
         13    1    3    3    0    0  0.12516558638E+02  0.16711536087E+02  0.11084856710E+03  0.11279780365E+03  0.00000000000E+00 0. -1.
          1    1    1    2  501    0 -0.28507540330E+01 -0.21957609752E+02  0.13523174285E+02  0.25944935292E+02  0.00000000000E+00 0. -1.
<scales pt_clust_5="13000.00000" pt_clust_6="13000.00000" pt_clust_7="13000.00000" pt_clust_8="13000.00000" pt_clust_9="22.14189"></scales>
<clustering>
<clus scale="   22.142">  2  9  1 -1</clus>
<clus scale="   90.477">  5  6 -1 -1</clus>
<clus scale="   93.145">  7  8 -1 -1</clus>
<clus scale="  127.319">  2  5  1 -1</clus>
<clus scale="   22.142">  2  5  1 -1</clus>
</clustering>
</event>
<event>
 9    1  0.1464797E-005  0.1034481E+03  0.7546771E-02  0.1274036E+00
         21   -1    0    0  501  502  0.00000000000E+00  0.00000000000E+00  0.12991410550E+03  0.12991410550E+03  0.00000000000E+00 0.  1.
         -1   -1    0    0    0  501 -0.00000000000E+00 -0.00000000000E+00 -0.33309454266E+03  0.33309454266E+03  0.00000000000E+00 0.  1.
         23    2    1    2    0    0 -0.48649634641E+02  0.18872169306E+02 -0.22143136273E+03  0.24410821981E+03  0.88510049442E+02 0.  0.
         23    2    1    2    0    0  0.91567385675E+01 -0.72019889896E+02 -0.47776266310E+02  0.12539128916E+03  0.90386356115E+02 0.  0.
        -13    1    3    3    0    0  0.71959006824E+01 -0.24364252681E+02 -0.10414472429E+03  0.10719851395E+03  0.00000000000E+00 0. -1.
         13    1    3    3    0    0 -0.55845535324E+02  0.43236421987E+02 -0.11728663844E+03  0.13690970586E+03  0.00000000000E+00 0.  1.
        -13    1    4    4    0    0  0.47292318970E+02 -0.59045577815E+02 -0.31336430167E+02  0.81883548706E+02  0.00000000000E+00 0. -1.
         13    1    4    4    0    0 -0.38135580402E+02 -0.12974312081E+02 -0.16439836143E+02  0.43507740449E+02  0.00000000000E+00 0.  1.
         -1    1    1    2    0  502  0.39492896074E+02  0.53147720590E+02  0.66027191885E+02  0.93509139192E+02  0.00000000000E+00 0.  1.
<scales pt_clust_5="13000.00000" pt_clust_6="13000.00000" pt_clust_7="13000.00000" pt_clust_8="13000.00000" pt_clust_9="66.21457"></scales>
<clustering>
<clus scale="   66.215">  1  9  2 -1</clus>
<clus scale="   88.510">  5  6 -1 -1</clus>
<clus scale="   90.386">  7  8 -1 -1</clus>
<clus scale="  101.813">  2  5  1 -1</clus>
<clus scale="   66.215">  1  5  2 -1</clus>
</clustering>
</event>
<event>
 9    1  0.1464797E-005  0.1132536E+03  0.7546771E-02  0.1255505E+00
          2   -1    0    0  502    0 -0.00000000000E+00  0.00000000000E+00  0.44853538750E+03  0.44853538750E+03  0.00000000000E+00 0. -1.
         21   -1    0    0  501  502  0.00000000000E+00 -0.00000000000E+00 -0.56119752867E+02  0.56119752867E+02  0.00000000000E+00 0. -1.
         23    2    1    2    0    0  0.67911389511E+02 -0.21939304295E+02  0.32479017084E+03  0.34510328378E+03  0.92273135329E+02 0.  0.
         23    2    1    2    0    0 -0.39906167496E+02 -0.10049991863E+01  0.68428381454E+02  0.12333890036E+03  0.94533214929E+02 0.  0.
        -11    1    4    4    0    0 -0.50722372450E+02 -0.27288040363E+02  0.10129222174E+02  0.58480743460E+02  0.00000000000E+00 0.  1.
         11    1    4    4    0    0  0.10816204954E+02  0.26283041177E+02  0.58299159280E+02  0.64858156895E+02  0.00000000000E+00 0. -1.
        -13    1    3    3    0    0  0.20134161958E+02 -0.40149417322E+02  0.57481202449E+02  0.72948261282E+02  0.00000000000E+00 0.  1.
         13    1    3    3    0    0  0.47777227553E+02  0.18210113027E+02  0.26730896839E+03  0.27215502250E+03  0.00000000000E+00 0. -1.
          2    1    1    2  501    0 -0.28005222015E+02  0.22944303481E+02 -0.80291766073E+00  0.36212956232E+02  0.00000000000E+00 0. -1.
<scales pt_clust_5="13000.00000" pt_clust_6="13000.00000" pt_clust_7="13000.00000" pt_clust_8="13000.00000" pt_clust_9="36.20405"></scales>
<clustering>
<clus scale="   36.204">  2  9  1 -1</clus>
<clus scale="   92.273">  7  8 -1 -1</clus>
<clus scale="   94.533">  5  6 -1 -1</clus>
<clus scale="  111.374">  1  7  2 -1</clus>
<clus scale="   36.204">  2  5  1 -1</clus>
</clustering>
</event>
<event>
 9    1  0.1464797E-005  0.9929987E+02  0.7546771E-02  0.1283542E+00
          1   -1    0    0  502    0 -0.00000000000E+00  0.00000000000E+00  0.20780755058E+03  0.20780755058E+03  0.00000000000E+00 0. -1.
         21   -1    0    0  501  502  0.00000000000E+00 -0.00000000000E+00 -0.14186139420E+03  0.14186139420E+03  0.00000000000E+00 0.  1.
         23    2    1    2    0    0 -0.18425270530E+02  0.26738553102E+02  0.15523250582E+03  0.18293769146E+03  0.91184578072E+02 0.  0.
         23    2    1    2    0    0  0.28835362289E+02 -0.59602948484E+00 -0.33829893712E+02  0.10454427693E+03  0.94621407520E+02 0.  0.
        -13    1    4    4    0    0 -0.10330526332E+02  0.34269576744E+02  0.89225739001E+01  0.36888155138E+02  0.00000000000E+00 0. -1.
         13    1    4    4    0    0  0.39165888621E+02 -0.34865606229E+02 -0.42752467612E+02  0.67656121793E+02  0.00000000000E+00 0.  1.
        -13    1    3    3    0    0  0.13386457027E+02 -0.15231382553E+02  0.13838369703E+01  0.20325039999E+02  0.00000000000E+00 0.  1.
         13    1    3    3    0    0 -0.31811727557E+02  0.41969935655E+02  0.15384866885E+03  0.16261265146E+03  0.00000000000E+00 0. -1.
          1    1    1    2  501    0 -0.10410091759E+02 -0.26142523617E+02 -0.55456455719E+02  0.62186976389E+02  0.00000000000E+00 0. -1.
<scales pt_clust_5="13000.00000" pt_clust_6="13000.00000" pt_clust_7="13000.00000" pt_clust_8="13000.00000" pt_clust_9="28.13897"></scales>
<clustering>
<clus scale="   28.139">  2  9  1 -1</clus>
<clus scale="   91.185">  7  8 -1 -1</clus>
<clus scale="   94.621">  5  6 -1 -1</clus>
<clus scale="   96.031">  1  7  2 -1</clus>
<clus scale="   28.139">  2  5  1 -1</clus>
</clustering>
</event>
<event>
 9    1  0.1464797E-005  0.1579242E+03  0.7546771E-02  0.1191720E+00
         21   -1    0    0  501  502  0.00000000000E+00  0.00000000000E+00  0.10521186406E+03  0.10521186406E+03  0.00000000000E+00 0. -1.
          1   -1    0    0  502    0 -0.00000000000E+00 -0.00000000000E+00 -0.65546681029E+03  0.65546681029E+03  0.00000000000E+00 0. -1.
         23    2    1    2    0    0 -0.94608146121E+01 -0.12708157570E+03 -0.52046765351E+03  0.54367900808E+03  0.91983974552E+02 0.  0.
         23    2    1    2    0    0  0.32386162166E+02  0.13344491167E+03  0.17525197646E+02  0.16404180237E+03  0.88012342438E+02 0.  0.
        -13    1    3    3    0    0  0.22457898918E+02 -0.12218286100E+03 -0.43173866518E+03  0.44925636753E+03  0.00000000000E+00 0. -1.
         13    1    3    3    0    0 -0.31918713530E+02 -0.48987147019E+01 -0.88728988330E+02  0.94422640554E+02  0.00000000000E+00 0.  1.
        -13    1    4    4    0    0 -0.19833615911E+02  0.48337672596E+02  0.34704589536E+02  0.62724089846E+02  0.00000000000E+00 0.  1.
         13    1    4    4    0    0  0.52219778077E+02  0.85107239070E+02 -0.17179391890E+02  0.10131771252E+03  0.00000000000E+00 0. -1.
          1    1    1    2  501    0 -0.22925347554E+02 -0.63633359631E+01 -0.47312490363E+02  0.52957863905E+02  0.00000000000E+00 0. -1.
<scales pt_clust_5="13000.00000" pt_clust_6="13000.00000" pt_clust_7="13000.00000" pt_clust_8="13000.00000" pt_clust_9="23.79210"></scales>
<clustering>
<clus scale="   23.792">  1  9  2 -1</clus>
<clus scale="   88.012">  7  8 -1 -1</clus>
<clus scale="   91.984">  5  6 -1 -1</clus>
<clus scale="  155.644">  1  7  2 -1</clus>
<clus scale="   23.792">  1  5  2 -1</clus>
</clustering>
</event>
<event>
 9    1  0.1464797E-005  0.1178774E+03  0.7546771E-02  0.1247081E+00
          3   -1    0    0  502    0 -0.00000000000E+00  0.00000000000E+00  0.54976768311E+02  0.54976768311E+02  0.00000000000E+00 0. -1.
         21   -1    0    0  501  502  0.00000000000E+00 -0.00000000000E+00 -0.73112881879E+03  0.73112881879E+03  0.00000000000E+00 0. -1.
         23    2    1    2    0    0 -0.20505697910E+02 -0.50514354596E+02 -0.89136129859E+02  0.13959680239E+03  0.92573397495E+02 0.  0.
         23    2    1    2    0    0  0.91961019002E+02  0.58877992183E+02 -0.16759956007E+03  0.22096689860E+03  0.93879234970E+02 0.  0.
        -11    1    4    4    0    0 -0.13539149343E+02  0.31743031740E+02 -0.48983355328E+02  0.59919093185E+02  0.00000000000E+00 0.  1.
         11    1    4    4    0    0  0.10550016835E+03  0.27134960443E+02 -0.11861620475E+03  0.16104780541E+03  0.00000000000E+00 0. -1.
        -13    1    3    3    0    0  0.24216642054E+02 -0.32982089376E+02 -0.30698718076E+01  0.41032768428E+02  0.00000000000E+00 0. -1.
         13    1    3    3    0    0 -0.44722339964E+02 -0.17532265220E+02 -0.86066258051E+02  0.98564033960E+02  0.00000000000E+00 0.  1.
          3    1    1    2  501    0 -0.71455321092E+02 -0.83636375871E+01 -0.41941636055E+03  0.42554188612E+03  0.00000000000E+00 0. -1.
<scales pt_clust_5="13000.00000" pt_clust_6="13000.00000" pt_clust_7="13000.00000" pt_clust_8="13000.00000" pt_clust_9="71.94313"></scales>
<clustering>
<clus scale="   71.943">  2  9  1 -1</clus>
<clus scale="   92.573">  7  8 -1 -1</clus>
<clus scale="   93.879">  5  6 -1 -1</clus>
<clus scale="  116.840">  1  7  2 -1</clus>
<clus scale="   71.943">  2  5  1 -1</clus>
</clustering>
</event>
<event>
 9    1  0.1464797E-005  0.9654513E+02  0.7546771E-02  0.1291759E+00
         -3   -1    0    0    0  501 -0.00000000000E+00  0.00000000000E+00  0.40409556171E+03  0.40409556171E+03  0.00000000000E+00 0.  1.
         21   -1    0    0  501  502  0.00000000000E+00 -0.00000000000E+00 -0.51484984861E+02  0.51484984861E+02  0.00000000000E+00 0. -1.
         23    2    1    2    0    0 -0.94313627920E+01 -0.27308715987E+02  0.29428932898E+03  0.30916280756E+03  0.90225915649E+02 0.  0.
         23    2    1    2    0    0  0.29181067272E+01  0.58314756602E+02  0.53128023539E+02  0.11431218438E+03  0.82677460222E+02 0.  0.
        -11    1    3    3    0    0  0.18522366342E+02 -0.52233849393E+02  0.20447626876E+03  0.21185371737E+03  0.00000000000E+00 0.  1.
         11    1    3    3    0    0 -0.27953729134E+02  0.24925133406E+02  0.89813060218E+02  0.97309090190E+02  0.00000000000E+00 0. -1.
        -13    1    4    4    0    0 -0.19498048178E+02 -0.14760135069E+02  0.90353399089E+01  0.26070535808E+02  0.00000000000E+00 0.  1.
         13    1    4    4    0    0  0.22416154906E+02  0.73074891672E+02  0.44092683630E+02  0.88241648575E+02  0.00000000000E+00 0. -1.
         -3    1    1    2    0  502  0.65132560647E+01 -0.31006040616E+02  0.51932243349E+01  0.32105554632E+02  0.00000000000E+00 0.  1.
<scales pt_clust_5="13000.00000" pt_clust_6="13000.00000" pt_clust_7="13000.00000" pt_clust_8="13000.00000" pt_clust_9="31.68276"></scales>
<clustering>
<clus scale="   31.683">  2  9  1 -1</clus>
<clus scale="   82.677">  7  8 -1 -1</clus>
<clus scale="   89.531">  2  7  1 -1</clus>
<clus scale="   90.226">  5  6 -1 -1</clus>
<clus scale="   31.683">  2  5  1 -1</clus>
</clustering>
</event>
<event>
 9    1  0.1464797E-005  0.9146707E+02  0.7546771E-02  0.1299396E+00
          1   -1    0    0  502    0 -0.00000000000E+00  0.00000000000E+00  0.31857618849E+03  0.31857618849E+03  0.00000000000E+00 0. -1.
         21   -1    0    0  501  502  0.00000000000E+00 -0.00000000000E+00 -0.46313396981E+02  0.46313396981E+02  0.00000000000E+00 0. -1.
         23    2    1    2    0    0 -0.34378389606E+01 -0.39205226292E+01  0.21500587763E+03  0.23346538463E+03  0.90837047343E+02 0.  0.
         23    2    1    2    0    0  0.17028629535E+02  0.20828564467E+02  0.55368854669E+02  0.10964907202E+03  0.90738115512E+02 0.  0.
        -11    1    4    4    0    0  0.52129376191E+01 -0.26412458712E+02  0.54679604349E+02  0.60947943572E+02  0.00000000000E+00 0.  1.
         11    1    4    4    0    0  0.11815691916E+02  0.47241023179E+02  0.68925031936E+00  0.48701128452E+02  0.00000000000E+00 0. -1.
        -11    1    3    3    0    0 -0.59625194156E+01  0.41383299718E+02  0.70103048703E+02  0.81624546374E+02  0.00000000000E+00 0.  1.
         11    1    3    3    0    0  0.25246804550E+01 -0.45303822347E+02  0.14490282893E+03  0.15184083826E+03  0.00000000000E+00 0. -1.
          1    1    1    2  501    0 -0.13590790574E+02 -0.16908041838E+02  0.18880592029E+01  0.21775128812E+02  0.00000000000E+00 0. -1.
<scales pt_clust_5="13000.00000" pt_clust_6="13000.00000" pt_clust_7="13000.00000" pt_clust_8="13000.00000" pt_clust_9="21.69312"></scales>
<clustering>
<clus scale="   21.693">  2  9  1 -1</clus>
<clus scale="   90.738">  5  6 -1 -1</clus>
<clus scale="   90.837">  7  8 -1 -1</clus>
<clus scale="   91.369">  2  5  1 -1</clus>
<clus scale="   21.693">  2  5  1 -1</clus>
</clustering>
</event>
<event>
 9    1  0.1464797E-005  0.1057894E+03  0.7546771E-02  0.1271706E+00
          1   -1    0    0  502    0 -0.00000000000E+00  0.00000000000E+00  0.40332125220E+03  0.40332125220E+03  0.00000000000E+00 0. -1.
         21   -1    0    0  501  502  0.00000000000E+00 -0.00000000000E+00 -0.85711279640E+02  0.85711279640E+02  0.00000000000E+00 0.  1.
         23    2    1    2    0    0 -0.57895612622E+01 -0.34819278467E+02  0.29940684694E+03  0.31681070097E+03  0.97358405316E+02 0.  0.
         23    2    1    2    0    0 -0.10998178914E+02  0.81037228641E+02  0.15089101497E+02  0.12295090349E+03  0.90560760370E+02 0.  0.
        -11    1    4    4    0    0 -0.40528411179E+02  0.77617960521E+02  0.25910327173E+02  0.91315086170E+02  0.00000000000E+00 0.  1.
         11    1    4    4    0    0  0.29530232265E+02  0.34192681200E+01 -0.10821225675E+02  0.31635817316E+02  0.00000000000E+00 0. -1.
        -11    1    3    3    0    0 -0.23618001931E+02  0.11265937098E+02  0.19651306486E+02  0.32724687936E+02  0.00000000000E+00 0.  1.
         11    1    3    3    0    0  0.17828440669E+02 -0.46085215565E+02  0.27975554045E+03  0.28408601304E+03  0.00000000000E+00 0. -1.
          1    1    1    2  501    0  0.16787740176E+02 -0.46217950173E+02  0.31140241222E+01  0.49270927378E+02  0.00000000000E+00 0. -1.
<scales pt_clust_5="13000.00000" pt_clust_6="13000.00000" pt_clust_7="13000.00000" pt_clust_8="13000.00000" pt_clust_9="49.17242"></scales>
<clustering>
<clus scale="   49.172">  2  9  1 -1</clus>
<clus scale="   90.561">  5  6 -1 -1</clus>
<clus scale="   97.358">  7  8 -1 -1</clus>
<clus scale="   99.569">  2  5  1 -1</clus>
<clus scale="   49.172">  2  5  1 -1</clus>
</clustering>
</event>
<event>
 9    1  0.1464797E-005  0.1438387E+03  0.7546771E-02  0.1228322E+00
         21   -1    0    0  501  502  0.00000000000E+00  0.00000000000E+00  0.55349153903E+02  0.55349153903E+02  0.00000000000E+00 0.  1.
          1   -1    0    0  502    0 -0.00000000000E+00 -0.00000000000E+00 -0.72844616156E+03  0.72844616156E+03  0.00000000000E+00 0. -1.
         23    2    1    2    0    0  0.28487137586E+01  0.29501939762E+02 -0.26263339350E+03  0.27903781991E+03  0.89483662960E+02 0.  0.
         23    2    1    2    0    0 -0.69634009743E+02  0.66044105300E+02 -0.34878392489E+03  0.37287229338E+03  0.90403549406E+02 0.  0.
        -13    1    4    4    0    0 -0.29369515685E+02  0.82778308759E+02 -0.24653820440E+03  0.26171721969E+03  0.00000000000E+00 0.  1.
         13    1    4    4    0    0 -0.40264494058E+02 -0.16734203459E+02 -0.10224572049E+03  0.11115507368E+03  0.00000000000E+00 0. -1.
        -13    1    3    3    0    0 -0.30660744401E+02  0.33245086450E+02 -0.22041763388E+03  0.22500944501E+03  0.00000000000E+00 0.  1.
         13    1    3    3    0    0  0.33509458159E+02 -0.37431466876E+01 -0.42215759625E+02  0.54028374897E+02  0.00000000000E+00 0. -1.
          1    1    1    2  501    0  0.66785295984E+02 -0.95546045063E+02 -0.61679689263E+02  0.13188520218E+03  0.00000000000E+00 0. -1.
<scales pt_clust_5="13000.00000" pt_clust_6="13000.00000" pt_clust_7="13000.00000" pt_clust_8="13000.00000" pt_clust_9="111.87837"></scales>
<clustering>
<clus scale="   89.484">  7  8 -1 -1</clus>
<clus scale="   90.404">  5  6 -1 -1</clus>
<clus scale="   94.265">  2  7  1 -1</clus>
<clus scale="  111.878">  1  9  2 -1</clus>
<clus scale="  111.878">  1  5  2 -1</clus>
</clustering>
</event>
<event>
 9    1  0.1464797E-005  0.9275051E+02  0.7546771E-02  0.1296959E+00
          3   -1    0    0  502    0 -0.00000000000E+00  0.00000000000E+00  0.55186350673E+02  0.55186350673E+02  0.00000000000E+00 0. -1.
         21   -1    0    0  501  502  0.00000000000E+00 -0.00000000000E+00 -0.46160556060E+03  0.46160556060E+03  0.00000000000E+00 0.  1.
         23    2    1    2    0    0 -0.56459325523E+00 -0.16743281646E+02 -0.45064296376E+02  0.10417034550E+03  0.92412195233E+02 0.  0.
         23    2    1    2    0    0 -0.38107771633E+02 -0.52000882537E+02 -0.26816967101E+03  0.29053634413E+03  0.91324152172E+02 0.  0.
        -11    1    3    3    0    0 -0.32063807881E+02 -0.12634109026E+02 -0.59903141699E+02  0.69109296568E+02  0.00000000000E+00 0.  1.
         11    1    3    3    0    0  0.31499214626E+02 -0.41091726201E+01  0.14838845323E+02  0.35061048932E+02  0.00000000000E+00 0. -1.
        -13    1    4    4    0    0 -0.44257654515E+02  0.12950977595E+02 -0.98668985551E+02  0.10891297679E+03  0.00000000000E+00 0. -1.
         13    1    4    4    0    0  0.61498828823E+01 -0.64951860132E+02 -0.16950068545E+03  0.18162336734E+03  0.00000000000E+00 0.  1.
          3    1    1    2  501    0  0.38672364888E+02  0.68744164183E+02 -0.93185242543E+02  0.12208522164E+03  0.00000000000E+00 0. -1.
<scales pt_clust_5="13000.00000" pt_clust_6="13000.00000" pt_clust_7="13000.00000" pt_clust_8="13000.00000" pt_clust_9="78.87533"></scales>
<clustering>
<clus scale="   78.875">  2  9  1 -1</clus>
<clus scale="   91.324">  7  8 -1 -1</clus>
<clus scale="   91.666">  2  7  1 -1</clus>
<clus scale="   92.412">  5  6 -1 -1</clus>
<clus scale="   78.875">  2  5  1 -1</clus>
</clustering>
</event>
<event>
 9    1  0.1464797E-005  0.1447367E+03  0.7546771E-02  0.1207126E+00
          1   -1    0    0  502    0 -0.00000000000E+00  0.00000000000E+00  0.74956100129E+03  0.74956100129E+03  0.00000000000E+00 0. -1.
         21   -1    0    0  501  502  0.00000000000E+00 -0.00000000000E+00 -0.48171155427E+02  0.48171155427E+02  0.00000000000E+00 0. -1.
         23    2    1    2    0    0 -0.32465446879E+02  0.91627276467E+02  0.36728918538E+03  0.39068757866E+03  0.91026783935E+02 0.  0.
         23    2    1    2    0    0  0.18957935682E+02 -0.14751032172E+03  0.26465977481E+03  0.31689246100E+03  0.90869891038E+02 0.  0.
        -11    1    3    3    0    0 -0.40418374537E+02  0.40371963627E+02  0.30173361943E+03  0.30709398813E+03  0.00000000000E+00 0. -1.
         11    1    3    3    0    0  0.79529276579E+01  0.51255312840E+02  0.65555565943E+02  0.83593590536E+02  0.00000000000E+00 0.  1.
        -11    1    4    4    0    0 -0.25711196146E+02 -0.24949236591E+02  0.10367424847E+03  0.10968992574E+03  0.00000000000E+00 0.  1.
         11    1    4    4    0    0  0.44669131827E+02 -0.12256108513E+03  0.16098552634E+03  0.20720253526E+03  0.00000000000E+00 0. -1.
          1    1    1    2  501    0  0.13507511197E+02  0.55883045253E+02  0.69440885672E+02  0.90152117049E+02  0.00000000000E+00 0. -1.
<scales pt_clust_5="13000.00000" pt_clust_6="13000.00000" pt_clust_7="13000.00000" pt_clust_8="13000.00000" pt_clust_9="57.49233"></scales>
<clustering>
<clus scale="   57.492">  2  9  1 -1</clus>
<clus scale="   90.870">  7  8 -1 -1</clus>
<clus scale="   91.027">  5  6 -1 -1</clus>
<clus scale="  144.638">  2  7  1 -1</clus>
<clus scale="   57.492">  2  5  1 -1</clus>
</clustering>
</event>
<event>
 9    1  0.1464797E-005  0.1120351E+03  0.7546771E-02  0.1258342E+00
         21   -1    0    0  501  502  0.00000000000E+00  0.00000000000E+00  0.32110996892E+02  0.32110996892E+02  0.00000000000E+00 0. -1.
          2   -1    0    0  502    0 -0.00000000000E+00 -0.00000000000E+00 -0.76489162799E+03  0.76489162799E+03  0.00000000000E+00 0. -1.
         23    2    1    2    0    0 -0.46257945833E+02 -0.37671457597E+02 -0.48340262410E+03  0.49522113464E+03  0.89481500541E+02 0.  0.
         23    2    1    2    0    0  0.72571251592E+02  0.12271961899E+02 -0.23323532850E+03  0.26180511584E+03  0.93413128691E+02 0.  0.
        -11    1    4    4    0    0  0.78367052979E+02 -0.19652208518E+02 -0.12522365236E+03  0.14902539181E+03  0.00000000000E+00 0. -1.
         11    1    4    4    0    0 -0.57958013861E+01  0.31924170417E+02 -0.10801167613E+03  0.11277972403E+03  0.00000000000E+00 0.  1.
        -13    1    3    3    0    0 -0.33469918990E+02 -0.67262927084E+02 -0.32487783583E+03  0.33345186317E+03  0.00000000000E+00 0. -1.
         13    1    3    3    0    0 -0.12788026844E+02  0.29591469487E+02 -0.15852478826E+03  0.16176927146E+03  0.00000000000E+00 0.  1.
          2    1    1    2  501    0 -0.26313305759E+02  0.25399495698E+02 -0.16142678508E+02  0.39976374411E+02  0.00000000000E+00 0. -1.
<scales pt_clust_5="13000.00000" pt_clust_6="13000.00000" pt_clust_7="13000.00000" pt_clust_8="13000.00000" pt_clust_9="36.57218"></scales>
<clustering>
<clus scale="   36.572">  1  9  2 -1</clus>
<clus scale="   89.482">  7  8 -1 -1</clus>
<clus scale="   93.413">  5  6 -1 -1</clus>
<clus scale="  108.779">  2  7  1 -1</clus>
<clus scale="   36.572">  1  5  2 -1</clus>
</clustering>
</event>
<event>
 9    1  0.1464797E-005  0.1046882E+03  0.7546771E-02  0.1271273E+00
         21   -1    0    0  501  502  0.00000000000E+00  0.00000000000E+00  0.46027717318E+02  0.46027717318E+02  0.00000000000E+00 0. -1.
          2   -1    0    0  502    0 -0.00000000000E+00 -0.00000000000E+00 -0.50923924994E+03  0.50923924994E+03  0.00000000000E+00 0. -1.
         23    2    1    2    0    0  0.16962183462E+02  0.46370877235E+02 -0.33838957602E+03  0.35367558692E+03  0.90227167194E+02 0.  0.
         23    2    1    2    0    0  0.98161420288E+01 -0.59523471491E+02 -0.13135026350E+03  0.17105143530E+03  0.91467488737E+02 0.  0.
        -13    1    3    3    0    0  0.37596371419E+02  0.64924677046E+02 -0.24070663099E+03  0.25212771176E+03  0.00000000000E+00 0.  1.
         13    1    3    3    0    0 -0.20634187957E+02 -0.18553799810E+02 -0.97682945029E+02  0.10154787516E+03  0.00000000000E+00 0. -1.
        -13    1    4    4    0    0  0.13661691225E+02  0.21678363178E+02 -0.17002126784E+02  0.30751675603E+02  0.00000000000E+00 0.  1.
         13    1    4    4    0    0 -0.38455491966E+01 -0.81201834669E+02 -0.11434813671E+03  0.14029975970E+03  0.00000000000E+00 0. -1.
          2    1    1    2  501    0 -0.26778325491E+02  0.13152594256E+02  0.65283068958E+01  0.30539945034E+02  0.00000000000E+00 0. -1.
<scales pt_clust_5="13000.00000" pt_clust_6="13000.00000" pt_clust_7="13000.00000" pt_clust_8="13000.00000" pt_clust_9="29.83403"></scales>
<clustering>
<clus scale="   29.834">  1  9  2 -1</clus>
<clus scale="   90.227">  5  6 -1 -1</clus>
<clus scale="   91.467">  7  8 -1 -1</clus>
<clus scale="  103.606">  2  5  1 -1</clus>
<clus scale="   29.834">  1  5  2 -1</clus>
</clustering>
</event>
<event>
 9    1  0.1464797E-005  0.1240756E+03  0.7546771E-02  0.1238156E+00
         -1   -1    0    0    0  501 -0.00000000000E+00  0.00000000000E+00  0.55344119138E+03  0.55344119138E+03  0.00000000000E+00 0.  1.
         21   -1    0    0  501  502  0.00000000000E+00 -0.00000000000E+00 -0.60345108795E+02  0.60345108795E+02  0.00000000000E+00 0. -1.
         23    2    1    2    0    0  0.35927367856E+02  0.79830875753E+02  0.32951411593E+03  0.35292218242E+03  0.91163423375E+02 0.  0.
         23    2    1    2    0    0  0.16716787108E+02 -0.70613968548E+02  0.16841231091E+03  0.20720136851E+03  0.96456814799E+02 0.  0.
        -11    1    4    4    0    0 -0.22817726254E+02  0.31108696141E+01  0.88729374171E+02  0.91669122293E+02  0.00000000000E+00 0.  1.
         11    1    4    4    0    0  0.39534513362E+02 -0.73724838162E+02  0.79682936741E+02  0.11553224622E+03  0.00000000000E+00 0. -1.
        -11    1    3    3    0    0 -0.28348479943E+02  0.36633026041E+02  0.15971500809E+03  0.16629641825E+03  0.00000000000E+00 0.  1.
         11    1    3    3    0    0  0.64275847799E+02  0.43197849712E+02  0.16979910784E+03  0.18662576417E+03  0.00000000000E+00 0. -1.
         -1    1    1    2    0  502 -0.52644154964E+02 -0.92169072044E+01 -0.48303442624E+01  0.53662749240E+02  0.00000000000E+00 0.  1.
<scales pt_clust_5="13000.00000" pt_clust_6="13000.00000" pt_clust_7="13000.00000" pt_clust_8="13000.00000" pt_clust_9="53.44491"></scales>
<clustering>
<clus scale="   53.445">  2  9  1 -1</clus>
<clus scale="   91.163">  7  8 -1 -1</clus>
<clus scale="   96.457">  5  6 -1 -1</clus>
<clus scale="  120.007">  1  7  2 -1</clus>
<clus scale="   53.445">  2  5  1 -1</clus>
</clustering>
</event>
<event>
 9    1  0.1464797E-005  0.1027026E+03  0.7546771E-02  0.1276966E+00
          1   -1    0    0  502    0 -0.00000000000E+00  0.00000000000E+00  0.38925356793E+03  0.38925356793E+03  0.00000000000E+00 0. -1.
         21   -1    0    0  501  502  0.00000000000E+00 -0.00000000000E+00 -0.80927306755E+02  0.80927306755E+02  0.00000000000E+00 0. -1.
         23    2    1    2    0    0  0.31835277461E+02  0.34801153547E+02  0.28755062934E+03  0.30502291686E+03  0.90161023719E+02 0.  0.
         23    2    1    2    0    0 -0.20221486452E+02 -0.49928218271E+00  0.58162137477E+02  0.11310750802E+03  0.94875267262E+02 0.  0.
        -11    1    4    4    0    0  0.26416303027E+02  0.29559321889E+02  0.13494585332E+02  0.41876943650E+02  0.00000000000E+00 0.  1.
         11    1    4    4    0    0 -0.46637789479E+02 -0.30058604072E+02  0.44667552145E+02  0.71230564373E+02  0.00000000000E+00 0. -1.
        -13    1    3    3    0    0  0.60496780875E+02  0.23698899198E+02  0.14052109384E+03  0.15481497387E+03  0.00000000000E+00 0.  1.
         13    1    3    3    0    0 -0.28661503414E+02  0.11102254349E+02  0.14702953550E+03  0.15020794299E+03  0.00000000000E+00 0. -1.
          1    1    1    2  501    0 -0.11613791009E+02 -0.34301871364E+02 -0.37386505639E+02  0.52050449802E+02  0.00000000000E+00 0. -1.
<scales pt_clust_5="13000.00000" pt_clust_6="13000.00000" pt_clust_7="13000.00000" pt_clust_8="13000.00000" pt_clust_9="36.21462"></scales>
<clustering>
<clus scale="   36.215">  2  9  1 -1</clus>
<clus scale="   90.161">  7  8 -1 -1</clus>
<clus scale="   94.875">  5  6 -1 -1</clus>
<clus scale="   98.364">  1  7  2 -1</clus>
<clus scale="   36.215">  2  5  1 -1</clus>
</clustering>
</event>
<event>
 9    1  0.1464797E-005  0.1281621E+03  0.7546771E-02  0.1230440E+00
         -3   -1    0    0    0  501 -0.00000000000E+00  0.00000000000E+00  0.18761204232E+02  0.18761204232E+02  0.00000000000E+00 0.  1.
         21   -1    0    0  501  502  0.00000000000E+00 -0.00000000000E+00 -0.12824434348E+04  0.12824434348E+04  0.00000000000E+00 0. -1.
         23    2    1    2    0    0 -0.87733501260E+02  0.30985125521E+02 -0.42950289199E+03  0.44889970035E+03  0.91547591482E+02 0.  0.
         23    2    1    2    0    0  0.88154589252E+02  0.96824817900E+01 -0.52170468207E+03  0.53719473167E+03  0.92398173024E+02 0.  0.
        -11    1    3    3    0    0 -0.29479962730E+02  0.54277235743E+02 -0.14581662215E+03  0.15835900296E+03  0.00000000000E+00 0.  1.
         11    1    3    3    0    0 -0.58253538530E+02 -0.23292110222E+02 -0.28368626984E+03  0.29054069740E+03  0.00000000000E+00 0. -1.
        -13    1    4    4    0    0  0.31867958567E+02  0.45959675321E+02 -0.16394412729E+03  0.17322105937E+03  0.00000000000E+00 0.  1.
         13    1    4    4    0    0  0.56286630685E+02 -0.36277193531E+02 -0.35776055478E+03  0.36397367229E+03  0.00000000000E+00 0. -1.
         -3    1    1    2    0  502 -0.42108799188E+00 -0.40667607311E+02 -0.31247465651E+03  0.31511020701E+03  0.00000000000E+00 0.  1.
<scales pt_clust_5="13000.00000" pt_clust_6="13000.00000" pt_clust_7="13000.00000" pt_clust_8="13000.00000" pt_clust_9="40.66979"></scales>
<clustering>
<clus scale="   40.670">  2  9  1 -1</clus>
<clus scale="   91.548">  5  6 -1 -1</clus>
<clus scale="   92.398">  7  8 -1 -1</clus>
<clus scale="  127.550">  1  5  2 -1</clus>
<clus scale="   40.670">  2  5  1 -1</clus>
</clustering>
</event>
<event>
 9    1  0.1464797E-005  0.9907900E+02  0.7546771E-02  0.1282680E+00
         21   -1    0    0  501  502  0.00000000000E+00  0.00000000000E+00  0.28752674772E+03  0.28752674772E+03  0.00000000000E+00 0.  1.
         -4   -1    0    0    0  501 -0.00000000000E+00 -0.00000000000E+00 -0.19011750873E+03  0.19011750873E+03  0.00000000000E+00 0.  1.
         23    2    1    2    0    0 -0.62789812736E+00  0.44882329835E+02 -0.15014133446E+03  0.18100998271E+03  0.90594567933E+02 0.  0.
         23    2    1    2    0    0  0.49453478969E+01  0.79933367392E+01  0.83477911822E+02  0.12419786581E+03  0.91477856403E+02 0.  0.
        -11    1    4    4    0    0 -0.18904281331E+02  0.43108172773E+02  0.57973961163E+02  0.74677082063E+02  0.00000000000E+00 0.  1.
         11    1    4    4    0    0  0.23849629228E+02 -0.35114836034E+02  0.25503950658E+02  0.49520783749E+02  0.00000000000E+00 0. -1.
        -11    1    3    3    0    0 -0.19143559515E+02  0.16901770014E+02 -0.14480093420E+03  0.14703556116E+03  0.00000000000E+00 0.  1.
         11    1    3    3    0    0  0.18515661387E+02  0.27980559821E+02 -0.53404002591E+01  0.33974421547E+02  0.00000000000E+00 0. -1.
         -4    1    1    2    0  502 -0.43174497695E+01 -0.52875666574E+02  0.16407266163E+03  0.17243640794E+03  0.00000000000E+00 0.  1.
<scales pt_clust_5="13000.00000" pt_clust_6="13000.00000" pt_clust_7="13000.00000" pt_clust_8="13000.00000" pt_clust_9="53.05164"></scales>
<clustering>
<clus scale="   53.052">  1  9  2 -1</clus>
<clus scale="   90.595">  7  8 -1 -1</clus>
<clus scale="   91.478">  5  6 -1 -1</clus>
<clus scale="   98.264">  2  7  1 -1</clus>
<clus scale="   53.052">  1  5  2 -1</clus>
</clustering>
</event>
<event>
 9    1  0.1464797E-005  0.1727305E+03  0.7546771E-02  0.1179164E+00
         21   -1    0    0  501  502  0.00000000000E+00  0.00000000000E+00  0.16816037694E+03  0.16816037694E+03  0.00000000000E+00 0. -1.
          1   -1    0    0  502    0 -0.00000000000E+00 -0.00000000000E+00 -0.25362675467E+03  0.25362675467E+03  0.00000000000E+00 0. -1.
         23    2    1    2    0    0  0.13993534536E+03  0.22688031899E+02 -0.13635829026E+03  0.22621948300E+03  0.11173640183E+03 0.  0.
         23    2    1    2    0    0 -0.11123464397E+03 -0.29450320957E+02  0.84932584002E+01  0.14392362972E+03  0.86031438030E+02 0.  0.
        -13    1    4    4    0    0 -0.67176289178E+02 -0.48432580637E+02  0.34079713818E+02  0.89553311434E+02  0.00000000000E+00 0.  1.
         13    1    4    4    0    0 -0.44058354790E+02  0.18982259680E+02 -0.25586455418E+02  0.54370318283E+02  0.00000000000E+00 0. -1.
        -13    1    3    3    0    0  0.79594129292E+02 -0.19927670136E+02 -0.13921843619E+02  0.83223525427E+02  0.00000000000E+00 0. -1.
         13    1    3    3    0    0  0.60341216070E+02  0.42615702036E+02 -0.12243644664E+03  0.14299595758E+03  0.00000000000E+00 0.  1.
          1    1    1    2  501    0 -0.28700701393E+02  0.67622890576E+01  0.42398654133E+02  0.51644018880E+02  0.00000000000E+00 0. -1.
<scales pt_clust_5="13000.00000" pt_clust_6="13000.00000" pt_clust_7="13000.00000" pt_clust_8="13000.00000" pt_clust_9="29.48659"></scales>
<clustering>
<clus scale="   29.487">  1  9  2 -1</clus>
<clus scale="   86.031">  5  6 -1 -1</clus>
<clus scale="  111.736">  7  8 -1 -1</clus>
<clus scale="  157.328">  1  5  2 -1</clus>
<clus scale="   29.487">  1  5  2 -1</clus>
</clustering>
</event>
<event>
 9    1  0.1464797E-005  0.1003352E+03  0.7546771E-02  0.1280721E+00
         -2   -1    0    0    0  501 -0.00000000000E+00  0.00000000000E+00  0.11636836949E+03  0.11636836949E+03  0.00000000000E+00 0.  1.
         21   -1    0    0  501  502  0.00000000000E+00 -0.00000000000E+00 -0.18391170421E+03  0.18391170421E+03  0.00000000000E+00 0.  1.
         23    2    1    2    0    0 -0.62850298282E+01  0.42219648006E+02  0.50723354121E+02  0.11426966838E+03  0.93073617000E+02 0.  0.
         23    2    1    2    0    0 -0.33140294251E+02 -0.21598500892E+02 -0.79070595864E+02  0.12671519817E+03  0.90773388021E+02 0.  0.
        -11    1    3    3    0    0  0.18479616121E+02  0.65327669221E+02  0.27755930387E+02  0.73345703688E+02  0.00000000000E+00 0. -1.
         11    1    3    3    0    0 -0.24764645950E+02 -0.23108021214E+02  0.22967423734E+02  0.40923964696E+02  0.00000000000E+00 0.  1.
        -11    1    4    4    0    0 -0.63383583436E+02 -0.43383010278E+01 -0.43909932414E+02  0.77229409357E+02  0.00000000000E+00 0.  1.
         11    1    4    4    0    0  0.30243289185E+02 -0.17260199865E+02 -0.35160663450E+02  0.49485788812E+02  0.00000000000E+00 0. -1.
         -2    1    1    2    0  502  0.39425324079E+02 -0.20621147114E+02 -0.39196092976E+02  0.59295207156E+02  0.00000000000E+00 0.  1.
<scales pt_clust_5="13000.00000" pt_clust_6="13000.00000" pt_clust_7="13000.00000" pt_clust_8="13000.00000" pt_clust_9="44.49256"></scales>
<clustering>
<clus scale="   44.493">  2  9  1 -1</clus>
<clus scale="   90.773">  7  8 -1 -1</clus>
<clus scale="   93.074">  5  6 -1 -1</clus>
<clus scale="   98.205">  2  7  1 -1</clus>
<clus scale="   44.493">  2  5  1 -1</clus>
</clustering>
</event>
<event>
 9    1  0.1464797E-005  0.1177144E+03  0.7546771E-02  0.1246996E+00
         21   -1    0    0  501  502  0.00000000000E+00  0.00000000000E+00  0.18417807205E+03  0.18417807205E+03  0.00000000000E+00 0.  1.
          2   -1    0    0  502    0 -0.00000000000E+00 -0.00000000000E+00 -0.19780810908E+03  0.19780810908E+03  0.00000000000E+00 0. -1.
         23    2    1    2    0    0  0.50821363277E+01 -0.71814428303E+02 -0.13411725866E+03  0.17876989149E+03  0.93744838845E+02 0.  0.
         23    2    1    2    0    0  0.29446057101E+02  0.68418761860E+02  0.60663334208E+02  0.13405977007E+03  0.93508205955E+02 0.  0.
        -11    1    3    3    0    0  0.83884297905E+01 -0.32356033429E+02  0.52958350329E+01  0.33842643548E+02  0.00000000000E+00 0.  1.
         11    1    3    3    0    0 -0.33062934628E+01 -0.39458394874E+02 -0.13941309369E+03  0.14492724794E+03  0.00000000000E+00 0. -1.
        -13    1    4    4    0    0 -0.33730307171E+02  0.15716198645E+02  0.16869314949E+02  0.40857145135E+02  0.00000000000E+00 0. -1.
         13    1    4    4    0    0  0.63176364272E+02  0.52702563214E+02  0.43794019260E+02  0.93202624936E+02  0.00000000000E+00 0.  1.
          2    1    1    2  501    0 -0.34528193428E+02  0.33956664430E+01  0.59823887421E+02  0.69156519564E+02  0.00000000000E+00 0. -1.
<scales pt_clust_5="13000.00000" pt_clust_6="13000.00000" pt_clust_7="13000.00000" pt_clust_8="13000.00000" pt_clust_9="34.69476"></scales>
<clustering>
<clus scale="   34.695">  1  9  2 -1</clus>
<clus scale="   93.508">  7  8 -1 -1</clus>
<clus scale="   93.745">  5  6 -1 -1</clus>
<clus scale="  117.526">  1  7  2 -1</clus>
<clus scale="   34.695">  1  5  2 -1</clus>
</clustering>
</event>
<event>
 9    1  0.1464797E-005  0.1149691E+03  0.7546771E-02  0.1251672E+00
          3   -1    0    0  502    0 -0.00000000000E+00  0.00000000000E+00  0.79590821729E+02  0.79590821729E+02  0.00000000000E+00 0. -1.
         21   -1    0    0  501  502  0.00000000000E+00 -0.00000000000E+00 -0.20918285884E+03  0.20918285884E+03  0.00000000000E+00 0.  1.
         23    2    1    2    0    0 -0.46622922731E+02  0.57609646271E+02 -0.50391982020E+02  0.12889488322E+03  0.92638927027E+02 0.  0.
         23    2    1    2    0    0  0.21909104047E+02 -0.60037135106E+02 -0.54933687551E+02  0.12515816761E+03  0.92533185722E+02 0.  0.
        -11    1    3    3    0    0 -0.23437022232E+02  0.71966739367E+02 -0.63351499544E+02  0.98701155417E+02  0.00000000000E+00 0.  1.
         11    1    3    3    0    0 -0.23185900499E+02 -0.14357093096E+02  0.12959517524E+02  0.30193727802E+02  0.00000000000E+00 0. -1.
        -13    1    4    4    0    0  0.49063215084E+02 -0.28585981382E+02 -0.63732040157E+00  0.56787001887E+02  0.00000000000E+00 0.  1.
         13    1    4    4    0    0 -0.27154111037E+02 -0.31451153724E+02 -0.54296367149E+02  0.68371165724E+02  0.00000000000E+00 0. -1.
          3    1    1    2  501    0  0.24713818684E+02  0.24274888351E+01 -0.24266367540E+02  0.34720629741E+02  0.00000000000E+00 0. -1.
<scales pt_clust_5="13000.00000" pt_clust_6="13000.00000" pt_clust_7="13000.00000" pt_clust_8="13000.00000" pt_clust_9="24.83275"></scales>
<clustering>
<clus scale="   24.833">  2  9  1 -1</clus>
<clus scale="   92.533">  7  8 -1 -1</clus>
<clus scale="   92.639">  5  6 -1 -1</clus>
<clus scale="  114.884">  2  7  1 -1</clus>
<clus scale="   24.833">  2  5  1 -1</clus>
</clustering>
</event>
<event>
 9    1  0.1464797E-005  0.9268436E+02  0.7546771E-02  0.1297954E+00
          2   -1    0    0  502    0 -0.00000000000E+00  0.00000000000E+00  0.26714064873E+03  0.26714064873E+03  0.00000000000E+00 0. -1.
         21   -1    0    0  501  502  0.00000000000E+00 -0.00000000000E+00 -0.48571418009E+02  0.48571418009E+02  0.00000000000E+00 0.  1.
         23    2    1    2    0    0  0.60859839787E+01 -0.94374870989E+01  0.12941347268E+03  0.15796523290E+03  0.89883605466E+02 0.  0.
         23    2    1    2    0    0 -0.76009634194E+01 -0.23764357464E+02  0.75152381160E+02  0.12168089133E+03  0.92389607583E+02 0.  0.
        -11    1    3    3    0    0  0.47520373213E+02 -0.75638718525E+01  0.80996478198E+02  0.94211610262E+02  0.00000000000E+00 0.  1.
         11    1    3    3    0    0 -0.41434389234E+02 -0.18736152463E+01  0.48416994478E+02  0.63753622639E+02  0.00000000000E+00 0. -1.
        -13    1    4    4    0    0  0.15593092847E+02 -0.54277475930E+02  0.36466555636E+02  0.67223497512E+02  0.00000000000E+00 0.  1.
         13    1    4    4    0    0 -0.23194056266E+02  0.30513118465E+02  0.38685825524E+02  0.54457393814E+02  0.00000000000E+00 0. -1.
          2    1    1    2  501    0  0.15149794407E+01  0.33201844563E+02  0.14003376884E+02  0.36065942512E+02  0.00000000000E+00 0. -1.
<scales pt_clust_5="13000.00000" pt_clust_6="13000.00000" pt_clust_7="13000.00000" pt_clust_8="13000.00000" pt_clust_9="33.23639"></scales>
<clustering>
<clus scale="   33.236">  2  9  1 -1</clus>
<clus scale="   89.884">  5  6 -1 -1</clus>
<clus scale="   90.187">  1  5  2 -1</clus>
<clus scale="   92.390">  7  8 -1 -1</clus>
<clus scale="   33.236">  2  5  1 -1</clus>
</clustering>
</event>
<event>
 9    1  0.1464797E-005  0.1279472E+03  0.7546771E-02  0.1230666E+00
         21   -1    0    0  501  502  0.00000000000E+00  0.00000000000E+00  0.63542204727E+02  0.63542204727E+02  0.00000000000E+00 0.  1.
          2   -1    0    0  502    0 -0.00000000000E+00 -0.00000000000E+00 -0.51550896824E+03  0.51550896824E+03  0.00000000000E+00 0. -1.
         23    2    1    2    0    0 -0.64285398496E+02  0.62044531715E+02 -0.36924866144E+03  0.39014038696E+03  0.88785196881E+02 0.  0.
         23    2    1    2    0    0  0.54474966685E+02 -0.86082368499E+02 -0.89148056267E+02  0.16216370242E+03  0.89286025140E+02 0.  0.
        -11    1    4    4    0    0  0.33177926936E+01 -0.22889009951E+02 -0.76451866134E+02  0.79873664998E+02  0.00000000000E+00 0. -1.
         11    1    4    4    0    0  0.51157173991E+02 -0.63193358548E+02 -0.12696190133E+02  0.82290037424E+02  0.00000000000E+00 0.  1.
        -13    1    3    3    0    0 -0.78449381948E+02  0.23229238068E+02 -0.28152937746E+03  0.29317689780E+03  0.00000000000E+00 0. -1.
         13    1    3    3    0    0  0.14163983453E+02  0.38815293647E+02 -0.87719283973E+02  0.96963489154E+02  0.00000000000E+00 0.  1.
          2    1    1    2  501    0  0.98104318110E+01  0.24037836784E+02  0.64299541914E+01  0.26747083588E+02  0.00000000000E+00 0. -1.
<scales pt_clust_5="13000.00000" pt_clust_6="13000.00000" pt_clust_7="13000.00000" pt_clust_8="13000.00000" pt_clust_9="25.96271"></scales>
<clustering>
<clus scale="   25.963">  1  9  2 -1</clus>
<clus scale="   88.785">  7  8 -1 -1</clus>
<clus scale="   89.286">  5  6 -1 -1</clus>
<clus scale="  127.598">  2  7  1 -1</clus>
<clus scale="   25.963">  1  5  2 -1</clus>
</clustering>
</event>
<event>
 9    1  0.1464797E-005  0.9098490E+02  0.7546771E-02  0.1304564E+00
         21   -1    0    0  501  502  0.00000000000E+00  0.00000000000E+00  0.35088915876E+03  0.35088915876E+03  0.00000000000E+00 0.  1.
          1   -1    0    0  502    0 -0.00000000000E+00 -0.00000000000E+00 -0.51212325904E+02  0.51212325904E+02  0.00000000000E+00 0. -1.
         23    2    1    2    0    0 -0.28781139632E+01  0.21958697280E+02  0.19779058522E+02  0.94718520464E+02  0.89943977212E+02 0.  0.
         23    2    1    2    0    0 -0.95526395033E+01  0.16902914287E+02  0.20424074592E+03  0.22142521625E+03  0.83293953331E+02 0.  0.
        -11    1    4    4    0    0 -0.49465343291E+01 -0.32196164227E+02  0.51652277030E+02  0.61065693439E+02  0.00000000000E+00 0. -1.
         11    1    4    4    0    0 -0.46061051742E+01  0.49099078514E+02  0.15258846889E+03  0.16035952281E+03  0.00000000000E+00 0.  1.
        -13    1    3    3    0    0  0.33046752850E+02  0.40249028876E+02  0.14520901120E+02  0.54064117201E+02  0.00000000000E+00 0.  1.
         13    1    3    3    0    0 -0.35924866813E+02 -0.18290331595E+02  0.52581574019E+01  0.40654403263E+02  0.00000000000E+00 0. -1.
          1    1    1    2  501    0  0.12430753467E+02 -0.38861611567E+02  0.75657028413E+02  0.85957747955E+02  0.00000000000E+00 0. -1.
<scales pt_clust_5="13000.00000" pt_clust_6="13000.00000" pt_clust_7="13000.00000" pt_clust_8="13000.00000" pt_clust_9="40.80133"></scales>
<clustering>
<clus scale="   40.801">  1  9  2 -1</clus>
<clus scale="   83.294">  5  6 -1 -1</clus>
<clus scale="   84.417">  1  5  2 -1</clus>
<clus scale="   89.944">  7  8 -1 -1</clus>
<clus scale="   40.801">  1  5  2 -1</clus>
</clustering>
</event>
<event>
 9    1  0.1464797E-005  0.9517379E+02  0.7546771E-02  0.1293011E+00
          1   -1    0    0  502    0 -0.00000000000E+00  0.00000000000E+00  0.40178458266E+03  0.40178458266E+03  0.00000000000E+00 0. -1.
         21   -1    0    0  501  502  0.00000000000E+00 -0.00000000000E+00 -0.38210241733E+02  0.38210241733E+02  0.00000000000E+00 0. -1.
         23    2    1    2    0    0  0.32148851424E+01  0.54893920579E+01  0.13392166046E+03  0.16043862998E+03  0.88119656932E+02 0.  0.
         23    2    1    2    0    0  0.43742355766E+02 -0.30132773258E+02  0.15047043592E+03  0.18425610752E+03  0.92128081276E+02 0.  0.
        -13    1    3    3    0    0 -0.14849482172E+02 -0.23121264825E+02  0.60117521929E+01  0.28129009444E+02  0.00000000000E+00 0. -1.
         13    1    3    3    0    0  0.18064367314E+02  0.28610656883E+02  0.12790990826E+03  0.13230962053E+03  0.00000000000E+00 0.  1.
        -13    1    4    4    0    0  0.71710256398E+02 -0.20561024746E+02  0.12326987695E+03  0.14408531908E+03  0.00000000000E+00 0. -1.
         13    1    4    4    0    0 -0.27967900632E+02 -0.95717485127E+01  0.27200558965E+02  0.40170788433E+02  0.00000000000E+00 0.  1.
          1    1    1    2  501    0 -0.46957240908E+02  0.24643381200E+02  0.79182244552E+02  0.95300086899E+02  0.00000000000E+00 0. -1.
<scales pt_clust_5="13000.00000" pt_clust_6="13000.00000" pt_clust_7="13000.00000" pt_clust_8="13000.00000" pt_clust_9="53.03095"></scales>
<clustering>
<clus scale="   53.031">  2  9  1 -1</clus>
<clus scale="   88.120">  5  6 -1 -1</clus>
<clus scale="   91.299">  1  5  2 -1</clus>
<clus scale="   92.128">  7  8 -1 -1</clus>
<clus scale="   53.031">  2  5  1 -1</clus>
</clustering>
</event>
<event>
 9    1  0.1464797E-005  0.1554243E+03  0.7546771E-02  0.1194215E+00
          2   -1    0    0  502    0 -0.00000000000E+00  0.00000000000E+00  0.72540206335E+03  0.72540206335E+03  0.00000000000E+00 0. -1.
         21   -1    0    0  501  502  0.00000000000E+00 -0.00000000000E+00 -0.81107616574E+02  0.81107616574E+02  0.00000000000E+00 0.  1.
         23    2    1    2    0    0  0.89138912661E+02 -0.11542784612E+03  0.50712233790E+03  0.53546010740E+03  0.90967728410E+02 0.  0.
         23    2    1    2    0    0 -0.40158196384E+02  0.86621115095E+02  0.16266584160E+03  0.20876900792E+03  0.89489800126E+02 0.  0.
        -11    1    3    3    0    0  0.56496249315E+02 -0.17970769193E+02  0.27936654556E+03  0.28558788754E+03  0.00000000000E+00 0. -1.
         11    1    3    3    0    0  0.32642663346E+02 -0.97457076931E+02  0.22775579233E+03  0.24987221986E+03  0.00000000000E+00 0.  1.
        -11    1    4    4    0    0 -0.33997722011E+02 -0.33738871111E+01  0.77565939631E+02  0.84756729568E+02  0.00000000000E+00 0.  1.
         11    1    4    4    0    0 -0.61604743736E+01  0.89995002206E+02  0.85099901965E+02  0.12401227835E+03  0.00000000000E+00 0. -1.
          2    1    1    2  501    0 -0.48980716276E+02  0.28806731030E+02 -0.25493732720E+02  0.62280564606E+02  0.00000000000E+00 0. -1.
<scales pt_clust_5="13000.00000" pt_clust_6="13000.00000" pt_clust_7="13000.00000" pt_clust_8="13000.00000" pt_clust_9="56.82375"></scales>
<clustering>
<clus scale="   56.824">  2  9  1 -1</clus>
<clus scale="   89.490">  7  8 -1 -1</clus>
<clus scale="   90.968">  5  6 -1 -1</clus>
<clus scale="  154.564">  2  7  1 -1</clus>
<clus scale="   56.824">  2  5  1 -1</clus>
</clustering>
</event>
<event>
 9    1  0.1464797E-005  0.1053661E+03  0.7546771E-02  0.1269757E+00
          4   -1    0    0  502    0 -0.00000000000E+00  0.00000000000E+00  0.16783316086E+03  0.16783316086E+03  0.00000000000E+00 0. -1.
         21   -1    0    0  501  502  0.00000000000E+00 -0.00000000000E+00 -0.29391277395E+03  0.29391277395E+03  0.00000000000E+00 0. -1.
         23    2    1    2    0    0 -0.15772550054E+02  0.41888844835E+02  0.97088589377E+02  0.14067763617E+03  0.91436067687E+02 0.  0.
         23    2    1    2    0    0  0.75349947417E+02 -0.48622755204E+02 -0.50386950702E+02  0.13817988243E+03  0.92266181283E+02 0.  0.
        -11    1    4    4    0    0  0.44862680973E+02 -0.24755151712E+02  0.22254765935E+02  0.55863693820E+02  0.00000000000E+00 0. -1.
         11    1    4    4    0    0  0.30487266444E+02 -0.23867603492E+02 -0.72641716637E+02  0.82316188612E+02  0.00000000000E+00 0.  1.
        -13    1    3    3    0    0 -0.88653091327E+01  0.64204063890E+02  0.97777021673E+02  0.11730772137E+03  0.00000000000E+00 0. -1.
         13    1    3    3    0    0 -0.69072409218E+01 -0.22315219055E+02 -0.68843229613E+00  0.23369914798E+02  0.00000000000E+00 0.  1.
          4    1    1    2  501    0 -0.59577397362E+02  0.67339103694E+01 -0.17278125176E+03  0.18288841622E+03  0.00000000000E+00 0. -1.
<scales pt_clust_5="13000.00000" pt_clust_6="13000.00000" pt_clust_7="13000.00000" pt_clust_8="13000.00000" pt_clust_9="59.95675"></scales>
<clustering>
<clus scale="   59.957">  2  9  1 -1</clus>
<clus scale="   91.436">  7  8 -1 -1</clus>
<clus scale="   92.266">  5  6 -1 -1</clus>
<clus scale="  104.640">  1  7  2 -1</clus>
<clus scale="   59.957">  2  5  1 -1</clus>
</clustering>
</event>
<event>
 9    1  0.1464797E-005  0.2483716E+03  0.7546771E-02  0.1114395E+00
          2   -1    0    0  502    0 -0.00000000000E+00  0.00000000000E+00  0.58910197155E+03  0.58910197155E+03  0.00000000000E+00 0. -1.
         21   -1    0    0  501  502  0.00000000000E+00 -0.00000000000E+00 -0.12656847530E+03  0.12656847530E+03  0.00000000000E+00 0.  1.
         23    2    1    2    0    0 -0.14196449453E+03 -0.17070633140E+03  0.22862454837E+03  0.33156495084E+03  0.91496247014E+02 0.  0.
         23    2    1    2    0    0  0.13774326410E+03  0.19656011210E+03  0.24540294536E+03  0.35549870064E+03  0.92453426600E+02 0.  0.
        -11    1    3    3    0    0 -0.14705520245E+03 -0.15135335123E+03  0.17440471670E+03  0.27377011288E+03  0.00000000000E+00 0. -1.
         11    1    3    3    0    0  0.50907079204E+01 -0.19352980175E+02  0.54219831670E+02  0.57794837963E+02  0.00000000000E+00 0.  1.
        -13    1    4    4    0    0  0.99789396551E+02  0.16436526954E+03  0.13664347430E+03  0.23589256996E+03  0.00000000000E+00 0.  1.
         13    1    4    4    0    0  0.37953867552E+02  0.32194842563E+02  0.10875947107E+03  0.11960613068E+03  0.00000000000E+00 0. -1.
          2    1    1    2  501    0  0.42212304300E+01 -0.25853780700E+02 -0.11493997483E+02  0.28606795363E+02  0.00000000000E+00 0. -1.
<scales pt_clust_5="13000.00000" pt_clust_6="13000.00000" pt_clust_7="13000.00000" pt_clust_8="13000.00000" pt_clust_9="26.19612"></scales>
<clustering>
<clus scale="   26.196">  2  9  1 -1</clus>
<clus scale="   91.496">  5  6 -1 -1</clus>
<clus scale="   92.453">  7  8 -1 -1</clus>
<clus scale="  248.017">  1  5  2 -1</clus>
<clus scale="   26.196">  2  5  1 -1</clus>
</clustering>
</event>
<event>
 9    1  0.1464797E-005  0.1096171E+03  0.7546771E-02  0.1261488E+00
         21   -1    0    0  501  502  0.00000000000E+00  0.00000000000E+00  0.34244995669E+03  0.34244995669E+03  0.00000000000E+00 0. -1.
         -3   -1    0    0    0  501 -0.00000000000E+00 -0.00000000000E+00 -0.11777850708E+03  0.11777850708E+03  0.00000000000E+00 0.  1.
         23    2    1    2    0    0  0.48301237572E+02  0.24675079127E+02 -0.39565813267E+02  0.11244159195E+03  0.90198608301E+02 0.  0.
         23    2    1    2    0    0 -0.11160200847E+03  0.21175025016E+02  0.14592310459E+03  0.20598609715E+03  0.90737697715E+02 0.  0.
        -13    1    4    4    0    0 -0.23422304227E+02  0.47793826935E+02  0.56064912050E+02  0.77305424076E+02  0.00000000000E+00 0.  1.
         13    1    4    4    0    0 -0.88179704245E+02 -0.26618801919E+02  0.89858192541E+02  0.12868067307E+03  0.00000000000E+00 0. -1.
        -13    1    3    3    0    0 -0.22197114726E+02 -0.11764960148E+02 -0.38494756635E+01  0.25415441218E+02  0.00000000000E+00 0. -1.
         13    1    3    3    0    0  0.70498352298E+02  0.36440039275E+02 -0.35716337603E+02  0.87026150730E+02  0.00000000000E+00 0.  1.
         -3    1    1    2    0  502  0.63300770901E+02 -0.45850104143E+02  0.11831415829E+03  0.14180077468E+03  0.00000000000E+00 0.  1.
<scales pt_clust_5="13000.00000" pt_clust_6="13000.00000" pt_clust_7="13000.00000" pt_clust_8="13000.00000" pt_clust_9="78.16150"></scales>
<clustering>
<clus scale="   78.161">  1  9  2 -1</clus>
<clus scale="   90.199">  7  8 -1 -1</clus>
<clus scale="   90.738">  5  6 -1 -1</clus>
<clus scale="  109.171">  2  7  1 -1</clus>
<clus scale="   78.161">  1  5  2 -1</clus>
</clustering>
</event>
<event>
 9    1  0.1464797E-005  0.9714863E+02  0.7546771E-02  0.1288113E+00
         21   -1    0    0  501  502  0.00000000000E+00  0.00000000000E+00  0.36384424214E+02  0.36384424214E+02  0.00000000000E+00 0.  1.
         -3   -1    0    0    0  501 -0.00000000000E+00 -0.00000000000E+00 -0.35429800073E+03  0.35429800073E+03  0.00000000000E+00 0.  1.
         23    2    1    2    0    0  0.37393824133E+02 -0.83981724468E+01 -0.18155185206E+03  0.20700113753E+03  0.91758207088E+02 0.  0.
         23    2    1    2    0    0 -0.24312506098E+02 -0.17527542685E+02 -0.11128348003E+03  0.14531226436E+03  0.88506093242E+02 0.  0.
        -11    1    3    3    0    0  0.59237424323E+02 -0.28998794434E+02 -0.14767085188E+03  0.16173027860E+03  0.00000000000E+00 0.  1.
         11    1    3    3    0    0 -0.21843600190E+02  0.20600621987E+02 -0.33881000179E+02  0.45270858934E+02  0.00000000000E+00 0. -1.
        -13    1    4    4    0    0 -0.20391898936E+02  0.31578842315E+02 -0.22589948206E+02  0.43856112278E+02  0.00000000000E+00 0. -1.
         13    1    4    4    0    0 -0.39206071617E+01 -0.49106385000E+02 -0.88693531819E+02  0.10145615208E+03  0.00000000000E+00 0.  1.
         -3    1    1    2    0  502 -0.13081318035E+02  0.25925715132E+02 -0.25078244433E+02  0.38369023059E+02  0.00000000000E+00 0.  1.
<scales pt_clust_5="13000.00000" pt_clust_6="13000.00000" pt_clust_7="13000.00000" pt_clust_8="13000.00000" pt_clust_9="29.03900"></scales>
<clustering>
<clus scale="   29.039">  1  9  2 -1</clus>
<clus scale="   88.506">  7  8 -1 -1</clus>
<clus scale="   91.758">  5  6 -1 -1</clus>
<clus scale="   94.083">  1  7  2 -1</clus>
<clus scale="   29.039">  1  5  2 -1</clus>
</clustering>
</event>
<event>
 9    1  0.1464797E-005  0.1135151E+03  0.7546771E-02  0.1255571E+00
         21   -1    0    0  501  502  0.00000000000E+00  0.00000000000E+00  0.45985354394E+02  0.45985354394E+02  0.00000000000E+00 0.  1.
          1   -1    0    0  502    0 -0.00000000000E+00 -0.00000000000E+00 -0.51051512805E+03  0.51051512805E+03  0.00000000000E+00 0. -1.
         23    2    1    2    0    0 -0.31397523678E+02  0.47049786359E+02 -0.27441183936E+03  0.29537915489E+03  0.93528074250E+02 0.  0.
         23    2    1    2    0    0  0.55392055051E+02 -0.53738081013E+02 -0.20151670067E+03  0.23372784847E+03  0.89797914161E+02 0.  0.
        -11    1    3    3    0    0  0.12799940069E+02  0.57791427172E+02 -0.11150770722E+03  0.12624443073E+03  0.00000000000E+00 0.  1.
         11    1    3    3    0    0 -0.44197463748E+02 -0.10741640813E+02 -0.16290413214E+03  0.16913472416E+03  0.00000000000E+00 0. -1.
        -13    1    4    4    0    0  0.36411898568E+02 -0.18142484121E+02 -0.15737292212E+02  0.43619244074E+02  0.00000000000E+00 0.  1.
         13    1    4    4    0    0  0.18980156483E+02 -0.35595596893E+02 -0.18577940846E+03  0.19010860440E+03  0.00000000000E+00 0. -1.
          1    1    1    2  501    0 -0.23994531372E+02  0.66882946543E+01  0.11398766379E+02  0.27393479080E+02  0.00000000000E+00 0. -1.
<scales pt_clust_5="13000.00000" pt_clust_6="13000.00000" pt_clust_7="13000.00000" pt_clust_8="13000.00000" pt_clust_9="24.90925"></scales>
<clustering>
<clus scale="   24.909">  1  9  2 -1</clus>
<clus scale="   89.798">  7  8 -1 -1</clus>
<clus scale="   93.528">  5  6 -1 -1</clus>
<clus scale="  110.462">  1  7  2 -1</clus>
<clus scale="   24.909">  1  5  2 -1</clus>
</clustering>
</event>
<event>
 9    1  0.1464797E-005  0.1051089E+03  0.7546771E-02  0.1271111E+00
         21   -1    0    0  501  502  0.00000000000E+00  0.00000000000E+00  0.51754638649E+03  0.51754638649E+03  0.00000000000E+00 0.  1.
          4   -1    0    0  502    0 -0.00000000000E+00 -0.00000000000E+00 -0.32312893669E+02  0.32312893669E+02  0.00000000000E+00 0. -1.
         23    2    1    2    0    0  0.35048091655E+01 -0.40105642882E+02  0.15157395044E+03  0.17871250079E+03  0.85689843085E+02 0.  0.
         23    2    1    2    0    0  0.41258036516E+01  0.79257764501E+02  0.21156903172E+03  0.24270532316E+03  0.88575409788E+02 0.  0.
        -13    1    3    3    0    0  0.32235140400E+02 -0.53810593515E+02  0.10468516399E+03  0.12203961575E+03  0.00000000000E+00 0. -1.
         13    1    3    3    0    0 -0.28730331235E+02  0.13704950633E+02  0.46888786449E+02  0.56672885046E+02  0.00000000000E+00 0.  1.
        -13    1    4    4    0    0  0.29427895500E+02  0.79726910083E+02  0.11573372933E+03  0.14358508742E+03  0.00000000000E+00 0. -1.
         13    1    4    4    0    0 -0.25302091848E+02 -0.46914558232E+00  0.95835302386E+02  0.99120235739E+02  0.00000000000E+00 0.  1.
          4    1    1    2  501    0 -0.76306128171E+01 -0.39152121619E+02  0.12209051066E+03  0.12844145620E+03  0.00000000000E+00 0. -1.
<scales pt_clust_5="13000.00000" pt_clust_6="13000.00000" pt_clust_7="13000.00000" pt_clust_8="13000.00000" pt_clust_9="39.88878"></scales>
<clustering>
<clus scale="   39.889">  1  9  2 -1</clus>
<clus scale="   85.690">  5  6 -1 -1</clus>
<clus scale="   88.575">  7  8 -1 -1</clus>
<clus scale="  102.689">  2  5  1 -1</clus>
<clus scale="   39.889">  1  5  2 -1</clus>
</clustering>
</event>
<event>
 9    1  0.1464797E-005  0.2130607E+03  0.7546771E-02  0.1139197E+00
          2   -1    0    0  502    0 -0.00000000000E+00  0.00000000000E+00  0.12437294567E+04  0.12437294567E+04  0.00000000000E+00 0. -1.
         21   -1    0    0  501  502  0.00000000000E+00 -0.00000000000E+00 -0.82205873864E+02  0.82205873864E+02  0.00000000000E+00 0. -1.
         23    2    1    2    0    0  0.19024608552E+03  0.67014931680E+02  0.66922209266E+03  0.70475715168E+03  0.90221169442E+02 0.  0.
         23    2    1    2    0    0 -0.17977449155E+03 -0.40884831232E+02  0.53334004575E+03  0.57141273438E+03  0.89835802316E+02 0.  0.
        -11    1    4    4    0    0 -0.11128697495E+03 -0.58820687710E+02  0.25732399754E+03  0.28646169692E+03  0.00000000000E+00 0. -1.
         11    1    4    4    0    0 -0.68487516597E+02  0.17935856478E+02  0.27601604822E+03  0.28495103746E+03  0.00000000000E+00 0.  1.
        -13    1    3    3    0    0  0.15393262706E+03  0.81750922109E+02  0.46034943442E+03  0.49223984877E+03  0.00000000000E+00 0. -1.
         13    1    3    3    0    0  0.36313458468E+02 -0.14735990429E+02  0.20887265824E+03  0.21251730291E+03  0.00000000000E+00 0.  1.
          2    1    1    2  501    0 -0.10471593972E+02 -0.26130100448E+02 -0.41038555535E+02  0.49765444539E+02  0.00000000000E+00 0. -1.
<scales pt_clust_5="13000.00000" pt_clust_6="13000.00000" pt_clust_7="13000.00000" pt_clust_8="13000.00000" pt_clust_9="28.15025"></scales>
<clustering>
<clus scale="   28.150">  2  9  1 -1</clus>
<clus scale="   89.836">  5  6 -1 -1</clus>
<clus scale="   90.221">  7  8 -1 -1</clus>
<clus scale="  212.898">  2  5  1 -1</clus>
<clus scale="   28.150">  2  5  1 -1</clus>
</clustering>
</event>
<event>
 9    1  0.1464797E-005  0.1425095E+03  0.7546771E-02  0.1211074E+00
         21   -1    0    0  501  502  0.00000000000E+00  0.00000000000E+00  0.62639277238E+02  0.62639277238E+02  0.00000000000E+00 0. -1.
          1   -1    0    0  502    0 -0.00000000000E+00 -0.00000000000E+00 -0.63499126017E+03  0.63499126017E+03  0.00000000000E+00 0. -1.
         23    2    1    2    0    0 -0.24364484352E+02 -0.83034252082E+02 -0.24873371668E+03  0.27722145279E+03  0.86573419444E+02 0.  0.
         23    2    1    2    0    0  0.87326486207E+02  0.13055578289E+03 -0.26799300706E+03  0.32388613901E+03  0.91712875713E+02 0.  0.
        -11    1    3    3    0    0  0.16158004227E+02 -0.25050694565E+02 -0.15708269566E+02  0.33695224165E+02  0.00000000000E+00 0.  1.
         11    1    3    3    0    0 -0.40522488579E+02 -0.57983557517E+02 -0.23302544712E+03  0.24352622862E+03  0.00000000000E+00 0. -1.
        -13    1    4    4    0    0  0.42090659063E+02  0.77878833119E+01 -0.29904103639E+02  0.52216186392E+02  0.00000000000E+00 0.  1.
         13    1    4    4    0    0  0.45235827144E+02  0.12276789958E+03 -0.23808890342E+03  0.27166995262E+03  0.00000000000E+00 0. -1.
          1    1    1    2  501    0 -0.62962001855E+02 -0.47521530812E+02 -0.55625259184E+02  0.96522945602E+02  0.00000000000E+00 0. -1.
<scales pt_clust_5="13000.00000" pt_clust_6="13000.00000" pt_clust_7="13000.00000" pt_clust_8="13000.00000" pt_clust_9="78.88289"></scales>
<clustering>
<clus scale="   78.883">  1  9  2 -1</clus>
<clus scale="   86.573">  5  6 -1 -1</clus>
<clus scale="   91.713">  7  8 -1 -1</clus>
<clus scale="  139.258">  2  5  1 -1</clus>
<clus scale="   78.883">  1  5  2 -1</clus>
</clustering>
</event>
<event>
 9    1  0.1464797E-005  0.1068183E+03  0.7546771E-02  0.1270852E+00
         -3   -1    0    0    0  501 -0.00000000000E+00  0.00000000000E+00  0.24816340769E+03  0.24816340769E+03  0.00000000000E+00 0.  1.
         21   -1    0    0  501  502  0.00000000000E+00 -0.00000000000E+00 -0.62874819661E+02  0.62874819661E+02  0.00000000000E+00 0. -1.
         23    2    1    2    0    0  0.24940992334E+02 -0.16439173939E+01  0.12514281814E+03  0.15918049122E+03  0.95146982550E+02 0.  0.
         23    2    1    2    0    0 -0.16680147312E+02  0.30366724985E+02  0.48533509037E+02  0.11979395847E+03  0.10389766930E+03 0.  0.
        -13    1    4    4    0    0 -0.25653825244E+02 -0.24606057687E+02 -0.12014650710E+02  0.37522375408E+02  0.00000000000E+00 0. -1.
         13    1    4    4    0    0  0.89736779323E+01  0.54972782672E+02  0.60548159747E+02  0.82271583059E+02  0.00000000000E+00 0.  1.
        -13    1    3    3    0    0  0.47518112352E+02 -0.26880018355E+02  0.10847639437E+03  0.12143983911E+03  0.00000000000E+00 0.  1.
         13    1    3    3    0    0 -0.22577120018E+02  0.25236100961E+02  0.16666423778E+02  0.37740652109E+02  0.00000000000E+00 0. -1.
         -3    1    1    2    0  502 -0.82608450218E+01 -0.28722807591E+02  0.11612260851E+02  0.32063777670E+02  0.00000000000E+00 0.  1.
<scales pt_clust_5="13000.00000" pt_clust_6="13000.00000" pt_clust_7="13000.00000" pt_clust_8="13000.00000" pt_clust_9="29.88714"></scales>
<clustering>
<clus scale="   29.887">  2  9  1 -1</clus>
<clus scale="   95.147">  7  8 -1 -1</clus>
<clus scale="   98.328">  1  7  2 -1</clus>
<clus scale="  103.898">  5  6 -1 -1</clus>
<clus scale="   29.887">  2  5  1 -1</clus>
</clustering>
</event>
<event>
 9    1  0.1464797E-005  0.1430066E+03  0.7546771E-02  0.1209755E+00
          2   -1    0    0  502    0 -0.00000000000E+00  0.00000000000E+00  0.66929307114E+03  0.66929307114E+03  0.00000000000E+00 0. -1.
         21   -1    0    0  501  502  0.00000000000E+00 -0.00000000000E+00 -0.33139391676E+03  0.33139391676E+03  0.00000000000E+00 0. -1.
         23    2    1    2    0    0  0.11316263613E+03  0.17441066109E+02  0.50404064969E+03  0.52533544865E+03  0.93863646127E+02 0.  0.
         23    2    1    2    0    0 -0.92904763077E+02  0.26921932459E+02  0.12338684164E+03  0.18174446344E+03  0.91927427092E+02 0.  0.
        -11    1    3    3    0    0  0.32472906103E+02  0.48655523948E+02  0.15329111743E+03  0.16407320416E+03  0.00000000000E+00 0. -1.
         11    1    3    3    0    0  0.80689730029E+02 -0.31214457840E+02  0.35074953227E+03  0.36126224449E+03  0.00000000000E+00 0.  1.
        -11    1    4    4    0    0 -0.68268392693E+02 -0.23757073361E+02  0.44794394352E+02  0.85038283972E+02  0.00000000000E+00 0.  1.
         11    1    4    4    0    0 -0.24636370384E+02  0.50679005821E+02  0.78592447291E+02  0.96706179471E+02  0.00000000000E+00 0. -1.
          2    1    1    2  501    0 -0.20257873056E+02 -0.44362998568E+02 -0.28952833696E+03  0.29360707581E+03  0.00000000000E+00 0. -1.
<scales pt_clust_5="13000.00000" pt_clust_6="13000.00000" pt_clust_7="13000.00000" pt_clust_8="13000.00000" pt_clust_9="48.76943"></scales>
<clustering>
<clus scale="   48.769">  2  9  1 -1</clus>
<clus scale="   91.927">  7  8 -1 -1</clus>
<clus scale="   93.864">  5  6 -1 -1</clus>
<clus scale="  141.743">  2  7  1 -1</clus>
<clus scale="   48.769">  2  5  1 -1</clus>
</clustering>
</event>
<event>
 9    1  0.1464797E-005  0.1466281E+03  0.7546771E-02  0.1205267E+00
          1   -1    0    0  502    0 -0.00000000000E+00  0.00000000000E+00  0.36736027788E+03  0.36736027788E+03  0.00000000000E+00 0. -1.
         21   -1    0    0  501  502  0.00000000000E+00 -0.00000000000E+00 -0.85232540052E+02  0.85232540052E+02  0.00000000000E+00 0.  1.
         23    2    1    2    0    0 -0.11489734718E+03 -0.13724356016E+02  0.21243051410E+03  0.25813663809E+03  0.90100179060E+02 0.  0.
         23    2    1    2    0    0  0.10192800163E+03  0.46345601492E+02  0.63423387847E+02  0.15879512830E+03  0.93038348830E+02 0.  0.
        -11    1    4    4    0    0  0.27547107833E+02  0.42626097592E+02 -0.12682196936E+02  0.52313148108E+02  0.00000000000E+00 0.  1.
         11    1    4    4    0    0  0.74380893797E+02  0.37195039000E+01  0.76105584783E+02  0.10648198020E+03  0.00000000000E+00 0. -1.
        -13    1    3    3    0    0 -0.37579552021E+02 -0.44826284253E+02  0.12116316979E+03  0.13454416451E+03  0.00000000000E+00 0.  1.
         13    1    3    3    0    0 -0.77317795158E+02  0.31101928237E+02  0.91267344308E+02  0.12359247358E+03  0.00000000000E+00 0. -1.
          1    1    1    2  501    0  0.12969345549E+02 -0.32621245476E+02  0.62738358838E+01  0.35661051542E+02  0.00000000000E+00 0. -1.
<scales pt_clust_5="13000.00000" pt_clust_6="13000.00000" pt_clust_7="13000.00000" pt_clust_8="13000.00000" pt_clust_9="35.10484"></scales>
<clustering>
<clus scale="   35.105">  2  9  1 -1</clus>
<clus scale="   90.100">  7  8 -1 -1</clus>
<clus scale="   93.038">  5  6 -1 -1</clus>
<clus scale="  144.782">  1  7  2 -1</clus>
<clus scale="   35.105">  2  5  1 -1</clus>
</clustering>
</event>
<event>
 9    1  0.1464797E-005  0.1628105E+03  0.7546771E-02  0.1185917E+00
         21   -1    0    0  501  502  0.00000000000E+00  0.00000000000E+00  0.28689334915E+02  0.28689334915E+02  0.00000000000E+00 0.  1.
          1   -1    0    0  502    0 -0.00000000000E+00 -0.00000000000E+00 -0.12921830104E+04  0.12921830104E+04  0.00000000000E+00 0. -1.
         23    2    1    2    0    0  0.11807494734E+03  0.44335687265E+02 -0.70944271125E+03  0.72603245271E+03  0.88920275981E+02 0.  0.
         23    2    1    2    0    0 -0.15141779591E+03 -0.31419488892E+02 -0.43700929665E+03  0.47245800800E+03  0.91240948932E+02 0.  0.
        -11    1    4    4    0    0 -0.12354742954E+02 -0.33929947301E+02 -0.53851781652E+02  0.64837453562E+02  0.00000000000E+00 0. -1.
         11    1    4    4    0    0 -0.13906305295E+03  0.25104584094E+01 -0.38315751500E+03  0.40762055444E+03  0.00000000000E+00 0.  1.
        -13    1    3    3    0    0  0.40824317038E+02  0.58883388985E+02 -0.25652390208E+03  0.26634261901E+03  0.00000000000E+00 0.  1.
         13    1    3    3    0    0  0.77250630300E+02 -0.14547701720E+02 -0.45291880917E+03  0.45968983370E+03  0.00000000000E+00 0. -1.
          1    1    1    2  501    0  0.33342848568E+02 -0.12916198373E+02 -0.11704166761E+03  0.12238188464E+03  0.00000000000E+00 0. -1.
<scales pt_clust_5="13000.00000" pt_clust_6="13000.00000" pt_clust_7="13000.00000" pt_clust_8="13000.00000" pt_clust_9="35.75715"></scales>
<clustering>
<clus scale="   35.757">  1  9  2 -1</clus>
<clus scale="   88.920">  7  8 -1 -1</clus>
<clus scale="   91.241">  5  6 -1 -1</clus>
<clus scale="  161.521">  2  7  1 -1</clus>
<clus scale="   35.757">  1  5  2 -1</clus>
</clustering>
</event>
<event>
 9    1  0.1464797E-005  0.1006460E+03  0.7546771E-02  0.1280024E+00
         21   -1    0    0  501  502  0.00000000000E+00  0.00000000000E+00  0.18014190720E+03  0.18014190720E+03  0.00000000000E+00 0.  1.
          1   -1    0    0  502    0 -0.00000000000E+00 -0.00000000000E+00 -0.95494403006E+02  0.95494403006E+02  0.00000000000E+00 0. -1.
         23    2    1    2    0    0 -0.30074489024E+02 -0.11849042780E+02 -0.21314607101E+02  0.10030889300E+03  0.92534787161E+02 0.  0.
         23    2    1    2    0    0  0.58727351943E+02  0.55219506100E+01  0.68622415750E+02  0.12783771819E+03  0.90299792050E+02 0.  0.
        -13    1    4    4    0    0  0.12566763035E+02 -0.39203304400E+02  0.40266903153E+02  0.57586856996E+02  0.00000000000E+00 0.  1.
         13    1    4    4    0    0  0.46160588908E+02  0.44725255010E+02  0.28355512596E+02  0.70250861195E+02  0.00000000000E+00 0. -1.
        -13    1    3    3    0    0  0.21705549522E+02 -0.30150276765E+02 -0.25763603565E+02  0.45209880974E+02  0.00000000000E+00 0.  1.
         13    1    3    3    0    0 -0.51780038546E+02  0.18301233984E+02  0.44489964638E+01  0.55099012030E+02  0.00000000000E+00 0. -1.
          1    1    1    2  501    0 -0.28652862919E+02  0.63270921705E+01  0.37339695548E+02  0.47489699013E+02  0.00000000000E+00 0. -1.
<scales pt_clust_5="13000.00000" pt_clust_6="13000.00000" pt_clust_7="13000.00000" pt_clust_8="13000.00000" pt_clust_9="29.34312"></scales>
<clustering>
<clus scale="   29.343">  1  9  2 -1</clus>
<clus scale="   90.300">  5  6 -1 -1</clus>
<clus scale="   92.535">  7  8 -1 -1</clus>
<clus scale="   98.595">  1  5  2 -1</clus>
<clus scale="   29.343">  1  5  2 -1</clus>
</clustering>
</event>
<event>
 9    1  0.1464797E-005  0.1022262E+03  0.7546771E-02  0.1280911E+00
         21   -1    0    0  501  502  0.00000000000E+00  0.00000000000E+00  0.53829449645E+02  0.53829449645E+02  0.00000000000E+00 0. -1.
         -3   -1    0    0    0  501 -0.00000000000E+00 -0.00000000000E+00 -0.36563026638E+03  0.36563026638E+03  0.00000000000E+00 0.  1.
         23    2    1    2    0    0  0.17375650340E+02 -0.69121649727E+01 -0.20728802388E+03  0.22710173650E+03  0.90869041099E+02 0.  0.
         23    2    1    2    0    0 -0.17473251542E+02 -0.29628188847E+02 -0.31987423916E+02  0.11114753608E+03  0.10073447967E+03 0.  0.
        -11    1    3    3    0    0 -0.65538877355E+01  0.38670334781E+02 -0.66611594923E+02  0.77301053128E+02  0.00000000000E+00 0.  1.
         11    1    3    3    0    0  0.23929538075E+02 -0.45582499753E+02 -0.14067642896E+03  0.14980068338E+03  0.00000000000E+00 0. -1.
        -13    1    4    4    0    0  0.34969167558E+02  0.42352269254E+01  0.91408894138E+01  0.36391423249E+02  0.00000000000E+00 0.  1.
         13    1    4    4    0    0 -0.52442419100E+02 -0.33863415773E+02 -0.41128313330E+02  0.74756112835E+02  0.00000000000E+00 0. -1.
         -3    1    1    2    0  502  0.97601201835E-01  0.36540353820E+02 -0.72525368941E+02  0.81210443438E+02  0.00000000000E+00 0.  1.
<scales pt_clust_5="13000.00000" pt_clust_6="13000.00000" pt_clust_7="13000.00000" pt_clust_8="13000.00000" pt_clust_9="36.54050"></scales>
<clustering>
<clus scale="   36.541">  1  9  2 -1</clus>
<clus scale="   90.869">  5  6 -1 -1</clus>
<clus scale="   92.520">  2  5  1 -1</clus>
<clus scale="  100.734">  7  8 -1 -1</clus>
<clus scale="   36.541">  1  5  2 -1</clus>
</clustering>
</event>
<event>
 9    1  0.1464797E-005  0.1332501E+03  0.7546771E-02  0.1223793E+00
         21   -1    0    0  501  502  0.00000000000E+00  0.00000000000E+00  0.12083719781E+03  0.12083719781E+03  0.00000000000E+00 0. -1.
         -3   -1    0    0    0  501 -0.00000000000E+00 -0.00000000000E+00 -0.20577046055E+03  0.20577046055E+03  0.00000000000E+00 0.  1.
         23    2    1    2    0    0  0.15215829365E+02  0.79131432615E+02 -0.46809225583E+02  0.13029666222E+03  0.91064875198E+02 0.  0.
         23    2    1    2    0    0 -0.49025409931E+02 -0.99167310325E+02 -0.51476267271E+02  0.15480429569E+03  0.95272858755E+02 0.  0.
        -11    1    4    4    0    0 -0.61884808187E+02 -0.46384988283E+02 -0.62421070326E+02  0.99386551620E+02  0.00000000000E+00 0.  1.
         11    1    4    4    0    0  0.12859398256E+02 -0.52782322042E+02  0.10944803054E+02  0.55417744068E+02  0.00000000000E+00 0. -1.
        -13    1    3    3    0    0 -0.24920326670E+02  0.63197178116E+02 -0.53664540488E+02  0.86572448903E+02  0.00000000000E+00 0.  1.
         13    1    3    3    0    0  0.40136156035E+02  0.15934254499E+02  0.68553149053E+01  0.43724213316E+02  0.00000000000E+00 0. -1.
         -3    1    1    2    0  502  0.33809580566E+02  0.20035877710E+02  0.13352230105E+02  0.41506700452E+02  0.00000000000E+00 0.  1.
<scales pt_clust_5="13000.00000" pt_clust_6="13000.00000" pt_clust_7="13000.00000" pt_clust_8="13000.00000" pt_clust_9="39.30043"></scales>
<clustering>
<clus scale="   39.300">  1  9  2 -1</clus>
<clus scale="   91.065">  7  8 -1 -1</clus>
<clus scale="   95.273">  5  6 -1 -1</clus>
<clus scale="  130.275">  2  7  1 -1</clus>
<clus scale="   39.300">  1  5  2 -1</clus>
</clustering>
</event>
<event>
 9    1  0.1464797E-005  0.1362482E+03  0.7546771E-02  0.1218547E+00
          2   -1    0    0  502    0 -0.00000000000E+00  0.00000000000E+00  0.26776381891E+03  0.26776381891E+03  0.00000000000E+00 0. -1.
         21   -1    0    0  501  502  0.00000000000E+00 -0.00000000000E+00 -0.22135444597E+03  0.22135444597E+03  0.00000000000E+00 0.  1.
         23    2    1    2    0    0 -0.82102207062E+02 -0.50840262258E+02  0.17778980495E+03  0.22204491243E+03  0.91483461453E+02 0.  0.
         23    2    1    2    0    0  0.11205002818E+03  0.80523283365E+02 -0.14782986105E+03  0.22181258083E+03  0.91147930416E+02 0.  0.
        -13    1    4    4    0    0 -0.11152164376E+02  0.17170707541E+02 -0.18460696973E+01  0.20557527601E+02  0.00000000000E+00 0. -1.
         13    1    4    4    0    0  0.12320219255E+03  0.63352575824E+02 -0.14598379135E+03  0.20125505323E+03  0.00000000000E+00 0.  1.
        -13    1    3    3    0    0  0.19983840675E+02 -0.60570517694E+01  0.20547580922E+02  0.29295816186E+02  0.00000000000E+00 0.  1.
         13    1    3    3    0    0 -0.10208604774E+03 -0.44783210488E+02  0.15724222403E+03  0.19274909624E+03  0.00000000000E+00 0. -1.
          2    1    1    2  501    0 -0.29947821117E+02 -0.29683021108E+02  0.16449429044E+02  0.45260771620E+02  0.00000000000E+00 0. -1.
<scales pt_clust_5="13000.00000" pt_clust_6="13000.00000" pt_clust_7="13000.00000" pt_clust_8="13000.00000" pt_clust_9="42.16581"></scales>
<clustering>
<clus scale="   42.166">  2  9  1 -1</clus>
<clus scale="   91.148">  5  6 -1 -1</clus>
<clus scale="   91.483">  7  8 -1 -1</clus>
<clus scale="  136.023">  2  5  1 -1</clus>
<clus scale="   42.166">  2  5  1 -1</clus>
</clustering>
</event>
<event>
 9    1  0.1464797E-005  0.1450832E+03  0.7546771E-02  0.1215458E+00
          1   -1    0    0  502    0 -0.00000000000E+00  0.00000000000E+00  0.79368566387E+03  0.79368566387E+03  0.00000000000E+00 0. -1.
         21   -1    0    0  501  502  0.00000000000E+00 -0.00000000000E+00 -0.33038835035E+02  0.33038835035E+02  0.00000000000E+00 0.  1.
         23    2    1    2    0    0  0.28506431831E+01  0.78402614056E+02  0.49078371814E+03  0.51031352962E+03  0.11574171447E+03 0.  0.
         23    2    1    2    0    0 -0.18269522066E+02 -0.10175093228E+03  0.24738348136E+03  0.28051919411E+03  0.82494871097E+02 0.  0.
        -11    1    4    4    0    0 -0.29496626274E+02 -0.26762590313E+02  0.15973079103E+03  0.16462142268E+03  0.00000000000E+00 0. -1.
         11    1    4    4    0    0  0.11227104208E+02 -0.74988341971E+02  0.87652690326E+02  0.11589777143E+03  0.00000000000E+00 0.  1.
        -13    1    3    3    0    0  0.33234930854E+01 -0.30282273878E+02  0.12954469774E+03  0.13307851228E+03  0.00000000000E+00 0.  1.
         13    1    3    3    0    0 -0.47284990223E+00  0.10868488793E+03  0.36123902040E+03  0.37723501734E+03  0.00000000000E+00 0. -1.
          1    1    1    2  501    0  0.15418878883E+02  0.23348318228E+02  0.22479629343E+02  0.35891775179E+02  0.00000000000E+00 0. -1.
<scales pt_clust_5="13000.00000" pt_clust_6="13000.00000" pt_clust_7="13000.00000" pt_clust_8="13000.00000" pt_clust_9="27.98010"></scales>
<clustering>
<clus scale="   27.980">  2  9  1 -1</clus>
<clus scale="   82.495">  5  6 -1 -1</clus>
<clus scale="  115.742">  7  8 -1 -1</clus>
<clus scale="  120.243">  2  5  1 -1</clus>
<clus scale="   27.980">  2  5  1 -1</clus>
</clustering>
</event>
<event>
 9    1  0.1464797E-005  0.1029606E+03  0.7546771E-02  0.1274836E+00
         21   -1    0    0  501  502  0.00000000000E+00  0.00000000000E+00  0.63092574733E+02  0.63092574733E+02  0.00000000000E+00 0. -1.
          1   -1    0    0  502    0 -0.00000000000E+00 -0.00000000000E+00 -0.28806758416E+03  0.28806758416E+03  0.00000000000E+00 0. -1.
         23    2    1    2    0    0 -0.53841655652E+02 -0.28639502364E+02 -0.16992722273E+03  0.20145779215E+03  0.89391476180E+02 0.  0.
         23    2    1    2    0    0  0.98968476035E+01  0.25413652450E+02 -0.32866212000E+02  0.10037109352E+03  0.90831531968E+02 0.  0.
        -13    1    4    4    0    0 -0.72487687123E+01  0.35751101905E+02  0.21563961338E+02  0.42375586886E+02  0.00000000000E+00 0. -1.
         13    1    4    4    0    0  0.17145616316E+02 -0.10337449455E+02 -0.54430173339E+02  0.57995506634E+02  0.00000000000E+00 0.  1.
        -13    1    3    3    0    0  0.14231312379E+02 -0.27489595046E+02 -0.20157336838E+02  0.36939495344E+02  0.00000000000E+00 0.  1.
         13    1    3    3    0    0 -0.68072968031E+02 -0.11499073172E+01 -0.14976988589E+03  0.16451829681E+03  0.00000000000E+00 0. -1.
          1    1    1    2  501    0  0.43944808048E+02  0.32258499132E+01 -0.22181574700E+02  0.49331273227E+02  0.00000000000E+00 0. -1.
<scales pt_clust_5="13000.00000" pt_clust_6="13000.00000" pt_clust_7="13000.00000" pt_clust_8="13000.00000" pt_clust_9="44.06305"></scales>
<clustering>
<clus scale="   44.063">  1  9  2 -1</clus>
<clus scale="   89.391">  7  8 -1 -1</clus>
<clus scale="   90.832">  5  6 -1 -1</clus>
<clus scale="  101.692">  2  7  1 -1</clus>
<clus scale="   44.063">  1  5  2 -1</clus>
</clustering>
</event>
<event>
 9    1  0.1464797E-005  0.1197208E+03  0.7546771E-02  0.1243657E+00
         21   -1    0    0  501  502  0.00000000000E+00  0.00000000000E+00  0.15261558115E+03  0.15261558115E+03  0.00000000000E+00 0. -1.
         -3   -1    0    0    0  501 -0.00000000000E+00 -0.00000000000E+00 -0.29688098403E+03  0.29688098403E+03  0.00000000000E+00 0.  1.
         23    2    1    2    0    0 -0.27516746219E+02 -0.65894446822E+02 -0.11926073172E+03  0.16619455224E+03  0.91094772728E+02 0.  0.
         23    2    1    2    0    0  0.56540061275E+02  0.64747597344E+02 -0.12623472527E+03  0.17798728493E+03  0.91406990122E+02 0.  0.
        -11    1    3    3    0    0 -0.39100756048E+02 -0.30237359608E+02 -0.11883037121E+03  0.12870052121E+03  0.00000000000E+00 0.  1.
         11    1    3    3    0    0  0.11584009829E+02 -0.35657087214E+02 -0.43036051549E+00  0.37494031025E+02  0.00000000000E+00 0. -1.
        -13    1    4    4    0    0 -0.13872554462E+02  0.51198677074E+02 -0.44325766224E+02  0.69126882273E+02  0.00000000000E+00 0. -1.
         13    1    4    4    0    0  0.70412615737E+02  0.13548920270E+02 -0.81908959042E+02  0.10886040266E+03  0.00000000000E+00 0.  1.
         -3    1    1    2    0  502 -0.29023315056E+02  0.11468494780E+01  0.10123005411E+03  0.10531472801E+03  0.00000000000E+00 0.  1.
<scales pt_clust_5="13000.00000" pt_clust_6="13000.00000" pt_clust_7="13000.00000" pt_clust_8="13000.00000" pt_clust_9="29.04596"></scales>
<clustering>
<clus scale="   29.046">  1  9  2 -1</clus>
<clus scale="   91.095">  5  6 -1 -1</clus>
<clus scale="   91.407">  7  8 -1 -1</clus>
<clus scale="  119.483">  2  5  1 -1</clus>
<clus scale="   29.046">  1  5  2 -1</clus>
</clustering>
</event>
<event>
 9    1  0.1464797E-005  0.9087109E+02  0.7546771E-02  0.1301195E+00
         21   -1    0    0  501  502  0.00000000000E+00  0.00000000000E+00  0.16201500447E+03  0.16201500447E+03  0.00000000000E+00 0.  1.
         -2   -1    0    0    0  501 -0.00000000000E+00 -0.00000000000E+00 -0.43539531393E+03  0.43539531393E+03  0.00000000000E+00 0.  1.
         23    2    1    2    0    0  0.10856201185E+02 -0.76987319763E+01 -0.39159905150E+03  0.40177896333E+03  0.88878516307E+02 0.  0.
         23    2    1    2    0    0 -0.37641436270E+02  0.98704615472E+01  0.28208777664E+02  0.10169542524E+03  0.89620983273E+02 0.  0.
        -13    1    4    4    0    0 -0.42880989642E+02 -0.28876364588E+02  0.34417215979E+02  0.62106106465E+02  0.00000000000E+00 0.  1.
         13    1    4    4    0    0  0.52395533722E+01  0.38746826135E+02 -0.62084383158E+01  0.39589318780E+02  0.00000000000E+00 0. -1.
        -13    1    3    3    0    0  0.26323719305E+02  0.35379229443E+02 -0.19302188090E+03  0.19799513777E+03  0.00000000000E+00 0. -1.
         13    1    3    3    0    0 -0.15467518119E+02 -0.43077961420E+02 -0.19857717060E+03  0.20378382556E+03  0.00000000000E+00 0.  1.
         -2    1    1    2    0  502  0.26785235085E+02 -0.21717295708E+01  0.90009964370E+02  0.93935929834E+02  0.00000000000E+00 0.  1.
<scales pt_clust_5="13000.00000" pt_clust_6="13000.00000" pt_clust_7="13000.00000" pt_clust_8="13000.00000" pt_clust_9="26.87313"></scales>
<clustering>
<clus scale="   26.873">  1  9  2 -1</clus>
<clus scale="   88.879">  7  8 -1 -1</clus>
<clus scale="   89.621">  5  6 -1 -1</clus>
<clus scale="   90.139">  2  7  1 -1</clus>
<clus scale="   26.873">  1  5  2 -1</clus>
</clustering>
</event>
<event>
 9    1  0.1464797E-005  0.9668874E+02  0.7546771E-02  0.1288487E+00
         -1   -1    0    0    0  501 -0.00000000000E+00  0.00000000000E+00  0.35113914736E+03  0.35113914736E+03  0.00000000000E+00 0.  1.
         21   -1    0    0  501  502  0.00000000000E+00 -0.00000000000E+00 -0.15798726695E+03  0.15798726695E+03  0.00000000000E+00 0.  1.
         23    2    1    2    0    0 -0.27224908659E+02  0.14691139907E+02  0.24518415393E+03  0.26362330620E+03  0.91787542675E+02 0.  0.
         23    2    1    2    0    0  0.87367087460E+01  0.75323728141E+01  0.71594409187E+02  0.11854148112E+03  0.93772365860E+02 0.  0.
        -11    1    4    4    0    0 -0.34149044326E+02 -0.10747488888E+02  0.61006534423E+02  0.70735160904E+02  0.00000000000E+00 0.  1.
         11    1    4    4    0    0  0.42885753072E+02  0.18279861702E+02  0.10587874763E+02  0.47806320214E+02  0.00000000000E+00 0. -1.
        -11    1    3    3    0    0 -0.67576770299E+01  0.50836642481E+02  0.96938040381E+02  0.10966774407E+03  0.00000000000E+00 0.  1.
         11    1    3    3    0    0 -0.20467231629E+02 -0.36145502574E+02  0.14824611355E+03  0.15395556212E+03  0.00000000000E+00 0. -1.
         -1    1    1    2    0  502  0.18488199913E+02 -0.22223512721E+02 -0.12362668270E+03  0.12696162700E+03  0.00000000000E+00 0.  1.
<scales pt_clust_5="13000.00000" pt_clust_6="13000.00000" pt_clust_7="13000.00000" pt_clust_8="13000.00000" pt_clust_9="28.90844"></scales>
<clustering>
<clus scale="   28.908">  2  9  1 -1</clus>
<clus scale="   91.788">  7  8 -1 -1</clus>
<clus scale="   93.772">  5  6 -1 -1</clus>
<clus scale="   94.765">  1  7  2 -1</clus>
<clus scale="   28.908">  2  5  1 -1</clus>
</clustering>
</event>
<event>
 9    1  0.1464797E-005  0.1073594E+03  0.7546771E-02  0.1270250E+00
          1   -1    0    0  502    0 -0.00000000000E+00  0.00000000000E+00  0.38826656942E+03  0.38826656942E+03  0.00000000000E+00 0. -1.
         21   -1    0    0  501  502  0.00000000000E+00 -0.00000000000E+00 -0.53723750216E+02  0.53723750216E+02  0.00000000000E+00 0. -1.
         23    2    1    2    0    0 -0.25257861697E+02  0.48975246638E+02  0.23355717422E+03  0.25869166638E+03  0.96622410755E+02 0.  0.
         23    2    1    2    0    0 -0.19012530796E+01 -0.39178598640E+02  0.11686023031E+03  0.15035029538E+03  0.86083218667E+02 0.  0.
        -11    1    3    3    0    0  0.23932048626E+02 -0.78761438511E+01  0.19629261181E+02  0.31938761528E+02  0.00000000000E+00 0.  1.
         11    1    3    3    0    0 -0.49189910323E+02  0.56851390489E+02  0.21392791304E+03  0.22675290485E+03  0.00000000000E+00 0. -1.
        -13    1    4    4    0    0  0.20658539094E+02 -0.45963775761E+02  0.11634163579E+03  0.12678651402E+03  0.00000000000E+00 0.  1.
         13    1    4    4    0    0 -0.22559792174E+02  0.67851771212E+01  0.51859452610E+00  0.23563781356E+02  0.00000000000E+00 0. -1.
          1    1    1    2  501    0  0.27159114777E+02 -0.97966479984E+01 -0.15874585337E+02  0.32948357881E+02  0.00000000000E+00 0. -1.
<scales pt_clust_5="13000.00000" pt_clust_6="13000.00000" pt_clust_7="13000.00000" pt_clust_8="13000.00000" pt_clust_9="28.87199"></scales>
<clustering>
<clus scale="   28.872">  2  9  1 -1</clus>
<clus scale="   86.083">  7  8 -1 -1</clus>
<clus scale="   96.622">  5  6 -1 -1</clus>
<clus scale="   97.982">  2  7  1 -1</clus>
<clus scale="   28.872">  2  5  1 -1</clus>
</clustering>
</event>
<event>
 9    1  0.1464797E-005  0.1352686E+03  0.7546771E-02  0.1236391E+00
         21   -1    0    0  501  502  0.00000000000E+00  0.00000000000E+00  0.95807997487E+03  0.95807997487E+03  0.00000000000E+00 0.  1.
         -3   -1    0    0    0  501 -0.00000000000E+00 -0.00000000000E+00 -0.29582963703E+02  0.29582963703E+02  0.00000000000E+00 0.  1.
         23    2    1    2    0    0 -0.15014357006E+02 -0.24014983875E+02  0.25306329425E+03  0.27066338466E+03  0.91735960967E+02 0.  0.
         23    2    1    2    0    0  0.78030755293E+02 -0.59423287519E+02  0.31914109499E+03  0.34568103292E+03  0.89579083168E+02 0.  0.
        -11    1    4    4    0    0 -0.13892581995E+01  0.20260031548E+02  0.46611837566E+02  0.50843508121E+02  0.00000000000E+00 0. -1.
         11    1    4    4    0    0  0.79420013493E+02 -0.79683319067E+02  0.27252925742E+03  0.29483752480E+03  0.00000000000E+00 0.  1.
        -11    1    3    3    0    0 -0.29904152637E+02 -0.53178661237E+02  0.19076636572E+03  0.20028488372E+03  0.00000000000E+00 0.  1.
         11    1    3    3    0    0  0.14889795631E+02  0.29163677362E+02  0.62296928522E+02  0.70378500939E+02  0.00000000000E+00 0. -1.
         -3    1    1    2    0  502 -0.63016398287E+02  0.83438271394E+02  0.35629262194E+03  0.37131852100E+03  0.00000000000E+00 0.  1.
<scales pt_clust_5="13000.00000" pt_clust_6="13000.00000" pt_clust_7="13000.00000" pt_clust_8="13000.00000" pt_clust_9="101.35673"></scales>
<clustering>
<clus scale="   89.579">  5  6 -1 -1</clus>
<clus scale="   91.736">  7  8 -1 -1</clus>
<clus scale="   96.009">  2  7  1 -1</clus>
<clus scale="  101.357">  1  9  2 -1</clus>
<clus scale="  101.357">  1  5  2 -1</clus>
</clustering>
</event>
<event>
 9    1  0.1464797E-005  0.1174052E+03  0.7546771E-02  0.1259177E+00
          3   -1    0    0  502    0 -0.00000000000E+00  0.00000000000E+00  0.21856259656E+03  0.21856259656E+03  0.00000000000E+00 0. -1.
         21   -1    0    0  501  502  0.00000000000E+00 -0.00000000000E+00 -0.61588273493E+02  0.61588273493E+02  0.00000000000E+00 0.  1.
         23    2    1    2    0    0  0.24805597350E+02 -0.22708244274E+02  0.79120697497E+02  0.14024533089E+03  0.11080472032E+03 0.  0.
         23    2    1    2    0    0 -0.42936135392E+02  0.12971203370E+02  0.64309279716E+02  0.11526866274E+03  0.84495072715E+02 0.  0.
        -11    1    4    4    0    0  0.25907963655E+02  0.29490958828E+01  0.16576406329E+02  0.30898171371E+02  0.00000000000E+00 0.  1.
         11    1    4    4    0    0 -0.68844099048E+02  0.10022107488E+02  0.47732873388E+02  0.84370491370E+02  0.00000000000E+00 0. -1.
        -13    1    3    3    0    0  0.46382196613E+02 -0.57127753676E+02  0.61756957251E+02  0.96066696475E+02  0.00000000000E+00 0.  1.
         13    1    3    3    0    0 -0.21576599263E+02  0.34419509402E+02  0.17363740246E+02  0.44178634413E+02  0.00000000000E+00 0. -1.
          3    1    1    2  501    0  0.18130538042E+02  0.97370409042E+01  0.13544345851E+02  0.24636876421E+02  0.00000000000E+00 0. -1.
<scales pt_clust_5="13000.00000" pt_clust_6="13000.00000" pt_clust_7="13000.00000" pt_clust_8="13000.00000" pt_clust_9="20.57976"></scales>
<clustering>
<clus scale="   20.580">  2  9  1 -1</clus>
<clus scale="   84.495">  5  6 -1 -1</clus>
<clus scale="   92.982">  2  5  1 -1</clus>
<clus scale="  110.805">  7  8 -1 -1</clus>
<clus scale="   20.580">  2  5  1 -1</clus>
</clustering>
</event>
<event>
 9    1  0.1464797E-005  0.1197203E+03  0.7546771E-02  0.1243934E+00
          1   -1    0    0  502    0 -0.00000000000E+00  0.00000000000E+00  0.53755623979E+03  0.53755623979E+03  0.00000000000E+00 0. -1.
         21   -1    0    0  501  502  0.00000000000E+00 -0.00000000000E+00 -0.40447906875E+02  0.40447906875E+02  0.00000000000E+00 0.  1.
         23    2    1    2    0    0 -0.35866467817E+02  0.68326224880E+02  0.25928692955E+03  0.28518123028E+03  0.90242704674E+02 0.  0.
         23    2    1    2    0    0  0.65512881502E+02 -0.50130151576E+02  0.12797381641E+03  0.17759922400E+03  0.91428753347E+02 0.  0.
        -11    1    3    3    0    0 -0.16276532188E+02 -0.20553459173E+02  0.78770674805E+02  0.83019210989E+02  0.00000000000E+00 0.  1.
         11    1    3    3    0    0 -0.19589935629E+02  0.88879684053E+02  0.18051625474E+03  0.20216201929E+03  0.00000000000E+00 0. -1.
        -13    1    4    4    0    0  0.65545054216E+02 -0.44546680766E+01  0.36012070775E+02  0.74919072614E+02  0.00000000000E+00 0.  1.
         13    1    4    4    0    0 -0.32172713788E-01 -0.45675483499E+02  0.91961745639E+02  0.10268015139E+03  0.00000000000E+00 0. -1.
          1    1    1    2  501    0 -0.29646413685E+02 -0.18196073304E+02  0.10984758695E+03  0.11522369239E+03  0.00000000000E+00 0. -1.
<scales pt_clust_5="13000.00000" pt_clust_6="13000.00000" pt_clust_7="13000.00000" pt_clust_8="13000.00000" pt_clust_9="34.78517"></scales>
<clustering>
<clus scale="   34.785">  2  9  1 -1</clus>
<clus scale="   90.243">  5  6 -1 -1</clus>
<clus scale="   91.429">  7  8 -1 -1</clus>
<clus scale="  118.817">  1  5  2 -1</clus>
<clus scale="   34.785">  2  5  1 -1</clus>
</clustering>
</event>
<event>
 9    1  0.1464797E-005  0.9984558E+02  0.7546771E-02  0.1283432E+00
         21   -1    0    0  501  502  0.00000000000E+00  0.00000000000E+00  0.32385045546E+03  0.32385045546E+03  0.00000000000E+00 0. -1.
         -3   -1    0    0    0  501 -0.00000000000E+00 -0.00000000000E+00 -0.39894624247E+02  0.39894624247E+02  0.00000000000E+00 0.  1.
         23    2    1    2    0    0 -0.91287997868E+01  0.37293815648E+02  0.89793991201E+02  0.13554248580E+03  0.93992770628E+02 0.  0.
         23    2    1    2    0    0  0.23876550315E+02 -0.20262191906E+02  0.13101711571E+03  0.16115911130E+03  0.88465408320E+02 0.  0.
        -11    1    4    4    0    0 -0.31698700412E+02  0.61792630490E+01  0.45822568533E+02  0.56059777797E+02  0.00000000000E+00 0. -1.
         11    1    4    4    0    0  0.55575250727E+02 -0.26441454955E+02  0.85194547176E+02  0.10509933350E+03  0.00000000000E+00 0.  1.
        -11    1    3    3    0    0  0.13836158769E+02  0.63358326530E+02  0.70557774416E+02  0.95833795504E+02  0.00000000000E+00 0. -1.
         11    1    3    3    0    0 -0.22964958556E+02 -0.26064510881E+02  0.19236216785E+02  0.39708690298E+02  0.00000000000E+00 0.  1.
         -3    1    1    2    0  502 -0.14747750529E+02 -0.17031623742E+02  0.63144724299E+02  0.67043482604E+02  0.00000000000E+00 0.  1.
<scales pt_clust_5="13000.00000" pt_clust_6="13000.00000" pt_clust_7="13000.00000" pt_clust_8="13000.00000" pt_clust_9="22.52937"></scales>
<clustering>
<clus scale="   22.529">  1  9  2 -1</clus>
<clus scale="   88.465">  5  6 -1 -1</clus>
<clus scale="   93.993">  7  8 -1 -1</clus>
<clus scale="   94.661">  1  5  2 -1</clus>
<clus scale="   22.529">  1  5  2 -1</clus>
</clustering>
</event>
<event>
 9    1  0.1464797E-005  0.1044614E+03  0.7546771E-02  0.1272302E+00
         21   -1    0    0  501  502  0.00000000000E+00  0.00000000000E+00  0.13855847292E+03  0.13855847292E+03  0.00000000000E+00 0.  1.
          2   -1    0    0  502    0 -0.00000000000E+00 -0.00000000000E+00 -0.18213637207E+03  0.18213637207E+03  0.00000000000E+00 0. -1.
         23    2    1    2    0    0 -0.91362532998E+01  0.52882291957E+02 -0.92080463778E+02  0.14073926153E+03  0.91916919007E+02 0.  0.
         23    2    1    2    0    0  0.37966455613E+02 -0.16881537776E+01  0.62690026878E+02  0.11951301207E+03  0.94387599663E+02 0.  0.
        -11    1    4    4    0    0 -0.21706928142E+02 -0.32850499814E+01  0.55131138683E+02  0.59341593635E+02  0.00000000000E+00 0. -1.
         11    1    4    4    0    0  0.59673383755E+02  0.15968962038E+01  0.75588881954E+01  0.60171418439E+02  0.00000000000E+00 0.  1.
        -13    1    3    3    0    0 -0.29272658569E+02  0.36245512128E+02 -0.10252032141E+03  0.11261013272E+03  0.00000000000E+00 0. -1.
         13    1    3    3    0    0  0.20136405269E+02  0.16636779829E+02  0.10439857633E+02  0.28129128811E+02  0.00000000000E+00 0.  1.
          2    1    1    2  501    0 -0.28830202313E+02 -0.51194138180E+02 -0.14187462251E+02  0.60442571376E+02  0.00000000000E+00 0. -1.
<scales pt_clust_5="13000.00000" pt_clust_6="13000.00000" pt_clust_7="13000.00000" pt_clust_8="13000.00000" pt_clust_9="58.75393"></scales>
<clustering>
<clus scale="   58.754">  1  9  2 -1</clus>
<clus scale="   91.917">  7  8 -1 -1</clus>
<clus scale="   94.388">  5  6 -1 -1</clus>
<clus scale="  102.235">  2  7  1 -1</clus>
<clus scale="   58.754">  1  5  2 -1</clus>
</clustering>
</event>
<event>
 9    1  0.1464797E-005  0.1190313E+03  0.7546771E-02  0.1244952E+00
         21   -1    0    0  501  502  0.00000000000E+00  0.00000000000E+00  0.14017702701E+03  0.14017702701E+03  0.00000000000E+00 0.  1.
         -1   -1    0    0    0  501 -0.00000000000E+00 -0.00000000000E+00 -0.26260929057E+03  0.26260929057E+03  0.00000000000E+00 0.  1.
         23    2    1    2    0    0  0.66636152270E+02  0.34959811148E+02 -0.20426249756E+03  0.23611074660E+03  0.91446987742E+02 0.  0.
         23    2    1    2    0    0 -0.56593920856E+02 -0.53415102619E+02  0.55025033663E+02  0.13261734202E+03  0.92214749418E+02 0.  0.
        -11    1    4    4    0    0 -0.92831437175E+01 -0.36347301665E+02 -0.19831617275E+02  0.42433431859E+02  0.00000000000E+00 0. -1.
         11    1    4    4    0    0 -0.47310777139E+02 -0.17067800954E+02  0.74856650938E+02  0.90183910164E+02  0.00000000000E+00 0.  1.
        -11    1    3    3    0    0 -0.19712769312E+02  0.24460981912E+02 -0.51978807961E+02  0.60734910777E+02  0.00000000000E+00 0. -1.
         11    1    3    3    0    0  0.86348921582E+02  0.10498829237E+02 -0.15228368960E+03  0.17537583582E+03  0.00000000000E+00 0.  1.
         -1    1    1    2    0  502 -0.10042231414E+02  0.18455291470E+02  0.26805200326E+02  0.34058228955E+02  0.00000000000E+00 0.  1.
<scales pt_clust_5="13000.00000" pt_clust_6="13000.00000" pt_clust_7="13000.00000" pt_clust_8="13000.00000" pt_clust_9="21.01057"></scales>
<clustering>
<clus scale="   21.011">  1  9  2 -1</clus>
<clus scale="   91.447">  7  8 -1 -1</clus>
<clus scale="   92.215">  5  6 -1 -1</clus>
<clus scale="  118.438">  2  7  1 -1</clus>
<clus scale="   21.011">  1  5  2 -1</clus>
</clustering>
</event>
<event>
 9    1  0.1464797E-005  0.1023859E+03  0.7546771E-02  0.1276585E+00
         21   -1    0    0  501  502  0.00000000000E+00  0.00000000000E+00  0.34840197065E+02  0.34840197065E+02  0.00000000000E+00 0.  1.
          3   -1    0    0  502    0 -0.00000000000E+00 -0.00000000000E+00 -0.50577755075E+03  0.50577755075E+03  0.00000000000E+00 0. -1.
         23    2    1    2    0    0  0.20451250202E+02 -0.58607008429E+02 -0.31277816825E+03  0.33077011432E+03  0.87895682030E+02 0.  0.
         23    2    1    2    0    0 -0.90287934455E+01  0.15511593767E+02 -0.94555243845E+02  0.13217428756E+03  0.90593705640E+02 0.  0.
        -13    1    4    4    0    0  0.24878853468E+02 -0.24946134852E+02 -0.58357031920E+02  0.68167515493E+02  0.00000000000E+00 0.  1.
         13    1    4    4    0    0 -0.33907646913E+02  0.40457728619E+02 -0.36198211925E+02  0.64006772069E+02  0.00000000000E+00 0. -1.
        -13    1    3    3    0    0  0.33086398779E+02 -0.77332693717E+02 -0.26258060333E+03  0.27572382658E+03  0.00000000000E+00 0.  1.
         13    1    3    3    0    0 -0.12635148577E+02  0.18725685289E+02 -0.50197564922E+02  0.55046287733E+02  0.00000000000E+00 0. -1.
          3    1    1    2  501    0 -0.11422456756E+02  0.43095414661E+02 -0.63603941590E+02  0.77673345937E+02  0.00000000000E+00 0. -1.
<scales pt_clust_5="13000.00000" pt_clust_6="13000.00000" pt_clust_7="13000.00000" pt_clust_8="13000.00000" pt_clust_9="44.58349"></scales>
<clustering>
<clus scale="   44.583">  1  9  2 -1</clus>
<clus scale="   87.896">  7  8 -1 -1</clus>
<clus scale="   90.594">  5  6 -1 -1</clus>
<clus scale="  100.007">  2  7  1 -1</clus>
<clus scale="   44.583">  1  5  2 -1</clus>
</clustering>
</event>
<event>
 9    1  0.1464797E-005  0.9278655E+02  0.7546771E-02  0.1298321E+00
          2   -1    0    0  502    0 -0.00000000000E+00  0.00000000000E+00  0.15168538015E+03  0.15168538015E+03  0.00000000000E+00 0. -1.
         21   -1    0    0  501  502  0.00000000000E+00 -0.00000000000E+00 -0.11632463618E+03  0.11632463618E+03  0.00000000000E+00 0.  1.
         23    2    1    2    0    0  0.15842390907E+00 -0.62614266885E+01  0.47437235459E+02  0.99466536124E+02  0.87201318444E+02 0.  0.
         23    2    1    2    0    0 -0.14714620756E+02  0.32287060341E+02  0.42511464628E+02  0.10634170028E+03  0.90787434507E+02 0.  0.
        -13    1    3    3    0    0 -0.11694769942E+02  0.32453837553E+02 -0.31855442277E+01  0.34643425177E+02  0.00000000000E+00 0.  1.
         13    1    3    3    0    0  0.11853193851E+02 -0.38715264242E+02  0.50622779686E+02  0.64823110948E+02  0.00000000000E+00 0. -1.
        -13    1    4    4    0    0  0.26647207629E+02  0.43744902708E+02  0.36740109822E+02  0.63035909267E+02  0.00000000000E+00 0.  1.
         13    1    4    4    0    0 -0.41361828385E+02 -0.11457842367E+02  0.57713548061E+01  0.43305791014E+02  0.00000000000E+00 0. -1.
          2    1    1    2  501    0  0.14556196847E+02 -0.26025633653E+02 -0.54587956110E+02  0.62201779926E+02  0.00000000000E+00 0. -1.
<scales pt_clust_5="13000.00000" pt_clust_6="13000.00000" pt_clust_7="13000.00000" pt_clust_8="13000.00000" pt_clust_9="29.81973"></scales>
<clustering>
<clus scale="   29.820">  2  9  1 -1</clus>
<clus scale="   87.201">  5  6 -1 -1</clus>
<clus scale="   89.281">  1  5  2 -1</clus>
<clus scale="   90.787">  7  8 -1 -1</clus>
<clus scale="   29.820">  2  5  1 -1</clus>
</clustering>
</event>
<event>
 9    1  0.1464797E-005  0.1465349E+03  0.7546771E-02  0.1204875E+00
          1   -1    0    0  502    0 -0.00000000000E+00  0.00000000000E+00  0.30022566483E+03  0.30022566483E+03  0.00000000000E+00 0. -1.
         21   -1    0    0  501  502  0.00000000000E+00 -0.00000000000E+00 -0.11842457719E+03  0.11842457719E+03  0.00000000000E+00 0.  1.
         23    2    1    2    0    0  0.24698814860E+02  0.95694219865E+02  0.10784954127E+03  0.17275056871E+03  0.91890262090E+02 0.  0.
         23    2    1    2    0    0 -0.11501311460E+02 -0.13603860063E+03  0.10346190996E+03  0.19420146527E+03  0.91493504001E+02 0.  0.
        -13    1    4    4    0    0  0.16876304290E+02 -0.12305415393E+03  0.53376767279E+02  0.13518954741E+03  0.00000000000E+00 0.  1.
         13    1    4    4    0    0 -0.28377615750E+02 -0.12984446706E+02  0.50085142684E+02  0.59011917860E+02  0.00000000000E+00 0. -1.
        -13    1    3    3    0    0 -0.28156889399E+02  0.11093583149E+02  0.73389090507E+01  0.31140610041E+02  0.00000000000E+00 0. -1.
         13    1    3    3    0    0  0.52855704259E+02  0.84600636716E+02  0.10051063222E+03  0.14160995867E+03  0.00000000000E+00 0.  1.
          1    1    1    2  501    0 -0.13197503401E+02  0.40344380766E+02 -0.29510363593E+02  0.51698208042E+02  0.00000000000E+00 0. -1.
<scales pt_clust_5="13000.00000" pt_clust_6="13000.00000" pt_clust_7="13000.00000" pt_clust_8="13000.00000" pt_clust_9="42.44812"></scales>
<clustering>
<clus scale="   42.448">  2  9  1 -1</clus>
<clus scale="   91.494">  5  6 -1 -1</clus>
<clus scale="   91.890">  7  8 -1 -1</clus>
<clus scale="  146.286">  2  5  1 -1</clus>
<clus scale="   42.448">  2  5  1 -1</clus>
</clustering>
</event>
<event>
 9    1  0.1464797E-005  0.2030750E+03  0.7546771E-02  0.1147206E+00
         21   -1    0    0  501  502  0.00000000000E+00  0.00000000000E+00  0.13861019524E+03  0.13861019524E+03  0.00000000000E+00 0. -1.
          2   -1    0    0  502    0 -0.00000000000E+00 -0.00000000000E+00 -0.50272361510E+03  0.50272361510E+03  0.00000000000E+00 0. -1.
         23    2    1    2    0    0 -0.85730175361E+02  0.15152622686E+03 -0.11800510028E+03  0.22941025025E+03  0.91618768998E+02 0.  0.
         23    2    1    2    0    0  0.11110630991E+02 -0.20090821342E+03 -0.10447293052E+03  0.24439075605E+03  0.91239750606E+02 0.  0.
        -11    1    3    3    0    0 -0.77872389832E+02  0.55004853139E+02 -0.83095826574E+02  0.12646959856E+03  0.00000000000E+00 0. -1.
         11    1    3    3    0    0 -0.78577855295E+01  0.96521373719E+02 -0.34909273704E+02  0.10294065168E+03  0.00000000000E+00 0.  1.
        -13    1    4    4    0    0  0.31201427753E+01 -0.24032801193E+02 -0.55694448425E+02  0.60738640168E+02  0.00000000000E+00 0.  1.
         13    1    4    4    0    0  0.79904882153E+01 -0.17687541223E+03 -0.48778482099E+02  0.18365211589E+03  0.00000000000E+00 0. -1.
          2    1    1    2  501    0  0.74619544370E+02  0.49381986564E+02 -0.14163538906E+03  0.16753280405E+03  0.00000000000E+00 0. -1.
<scales pt_clust_5="13000.00000" pt_clust_6="13000.00000" pt_clust_7="13000.00000" pt_clust_8="13000.00000" pt_clust_9="89.47997"></scales>
<clustering>
<clus scale="   89.480">  1  9  2 -1</clus>
<clus scale="   91.240">  7  8 -1 -1</clus>
<clus scale="   91.619">  5  6 -1 -1</clus>
<clus scale="  202.904">  1  7  2 -1</clus>
<clus scale="   89.480">  1  5  2 -1</clus>
</clustering>
</event>
<event>
 9    1  0.1464797E-005  0.9786628E+02  0.7546771E-02  0.1287045E+00
         21   -1    0    0  501  502  0.00000000000E+00  0.00000000000E+00  0.12391831139E+03  0.12391831139E+03  0.00000000000E+00 0. -1.
         -1   -1    0    0    0  501 -0.00000000000E+00 -0.00000000000E+00 -0.11041646795E+03  0.11041646795E+03  0.00000000000E+00 0.  1.
         23    2    1    2    0    0 -0.69661748402E+01 -0.36487632424E+02 -0.30779282812E+02  0.10394787105E+03  0.92075625083E+02 0.  0.
         23    2    1    2    0    0  0.24112458677E+02  0.18580117083E+02  0.49088191373E+02  0.10513256153E+03  0.87844029657E+02 0.  0.
        -13    1    4    4    0    0  0.22343651299E+02 -0.33782271248E+02  0.23483746014E+02  0.46818446481E+02  0.00000000000E+00 0.  1.
         13    1    4    4    0    0  0.17688073786E+01  0.52362388331E+02  0.25604445359E+02  0.58314115045E+02  0.00000000000E+00 0. -1.
        -13    1    3    3    0    0  0.22327612845E+02 -0.31065527950E+02 -0.53998159300E+02  0.66176963741E+02  0.00000000000E+00 0.  1.
         13    1    3    3    0    0 -0.29293787686E+02 -0.54221044745E+01  0.23218876488E+02  0.37770907313E+02  0.00000000000E+00 0. -1.
         -1    1    1    2    0  502 -0.17146283837E+02  0.17907515341E+02 -0.48070651288E+01  0.25254346760E+02  0.00000000000E+00 0.  1.
<scales pt_clust_5="13000.00000" pt_clust_6="13000.00000" pt_clust_7="13000.00000" pt_clust_8="13000.00000" pt_clust_9="24.79264"></scales>
<clustering>
<clus scale="   24.793">  1  9  2 -1</clus>
<clus scale="   87.844">  5  6 -1 -1</clus>
<clus scale="   92.076">  7  8 -1 -1</clus>
<clus scale="   93.896">  1  5  2 -1</clus>
<clus scale="   24.793">  1  5  2 -1</clus>
</clustering>
</event>
<event>
 9    1  0.1464797E-005  0.9624305E+02  0.7546771E-02  0.1290785E+00
          3   -1    0    0  502    0 -0.00000000000E+00  0.00000000000E+00  0.17772424782E+03  0.17772424782E+03  0.00000000000E+00 0. -1.
         21   -1    0    0  501  502  0.00000000000E+00 -0.00000000000E+00 -0.81660757947E+02  0.81660757947E+02  0.00000000000E+00 0.  1.
         23    2    1    2    0    0  0.75921112853E+01  0.34342850345E+02  0.66840528350E+02  0.11620486827E+03  0.88311061915E+02 0.  0.
         23    2    1    2    0    0  0.14357580712E+02 -0.15876662693E+02  0.50280563510E+02  0.10759626943E+03  0.92685562986E+02 0.  0.
        -11    1    3    3    0    0 -0.18655077878E+02  0.25771154389E+02  0.79648574003E+02  0.85767474429E+02  0.00000000000E+00 0. -1.
         11    1    3    3    0    0  0.26247189163E+02  0.85716959564E+01 -0.12808045653E+02  0.30437393844E+02  0.00000000000E+00 0.  1.
        -13    1    4    4    0    0 -0.34125053913E+02 -0.11689363971E+02  0.46409720147E+02  0.58779440783E+02  0.00000000000E+00 0. -1.
         13    1    4    4    0    0  0.48482634625E+02 -0.41872987216E+01  0.38708433630E+01  0.48816828646E+02  0.00000000000E+00 0.  1.
          3    1    1    2  501    0 -0.21949691997E+02 -0.18466187652E+02 -0.21057601985E+02  0.35583868066E+02  0.00000000000E+00 0. -1.
<scales pt_clust_5="13000.00000" pt_clust_6="13000.00000" pt_clust_7="13000.00000" pt_clust_8="13000.00000" pt_clust_9="28.68430"></scales>
<clustering>
<clus scale="   28.684">  2  9  1 -1</clus>
<clus scale="   88.311">  5  6 -1 -1</clus>
<clus scale="   92.038">  1  5  2 -1</clus>
<clus scale="   92.686">  7  8 -1 -1</clus>
<clus scale="   28.684">  2  5  1 -1</clus>
</clustering>
</event>
<event>
 9    1  0.1464797E-005  0.9652059E+02  0.7546771E-02  0.1289375E+00
          3   -1    0    0  502    0 -0.00000000000E+00  0.00000000000E+00  0.31382051077E+03  0.31382051077E+03  0.00000000000E+00 0. -1.
         21   -1    0    0  501  502  0.00000000000E+00 -0.00000000000E+00 -0.34605259925E+03  0.34605259925E+03  0.00000000000E+00 0.  1.
         23    2    1    2    0    0  0.20818333875E+02  0.89280685025E+01  0.24516358200E+03  0.26339509953E+03  0.93587836213E+02 0.  0.
         23    2    1    2    0    0 -0.40417276315E+02  0.49912954366E+02  0.11499300575E+01  0.11111151616E+03  0.90661940444E+02 0.  0.
        -11    1    4    4    0    0 -0.10280290810E+02  0.69450173706E+02 -0.14903416772E+02  0.71771323232E+02  0.00000000000E+00 0.  1.
         11    1    4    4    0    0 -0.30136985505E+02 -0.19537219340E+02  0.16053346829E+02  0.39340192924E+02  0.00000000000E+00 0. -1.
        -13    1    3    3    0    0  0.30562589081E+02  0.39524955401E+02  0.74274988950E+02  0.89515741265E+02  0.00000000000E+00 0. -1.
         13    1    3    3    0    0 -0.97442552063E+01 -0.30596886898E+02  0.17088859305E+03  0.17387935826E+03  0.00000000000E+00 0.  1.
          3    1    1    2  501    0  0.19598942440E+02 -0.58841022869E+02 -0.27854560053E+03  0.28536649434E+03  0.00000000000E+00 0. -1.
<scales pt_clust_5="13000.00000" pt_clust_6="13000.00000" pt_clust_7="13000.00000" pt_clust_8="13000.00000" pt_clust_9="62.01923"></scales>
<clustering>
<clus scale="   62.019">  2  9  1 -1</clus>
<clus scale="   90.662">  5  6 -1 -1</clus>
<clus scale="   93.588">  7  8 -1 -1</clus>
<clus scale="   93.686">  2  5  1 -1</clus>
<clus scale="   62.019">  2  5  1 -1</clus>
</clustering>
</event>
<event>
 9    1  0.1464797E-005  0.9823763E+02  0.7546771E-02  0.1300890E+00
          2   -1    0    0  502    0 -0.00000000000E+00  0.00000000000E+00  0.69119810853E+03  0.69119810853E+03  0.00000000000E+00 0. -1.
         21   -1    0    0  501  502  0.00000000000E+00 -0.00000000000E+00 -0.25460598101E+02  0.25460598101E+02  0.00000000000E+00 0. -1.
         23    2    1    2    0    0 -0.23633215715E+02  0.15039950156E+02  0.36555004569E+03  0.37176324597E+03  0.61614496404E+02 0.  0.
         23    2    1    2    0    0  0.54530181382E+02 -0.45522603153E+02  0.26477360997E+03  0.28887800150E+03  0.91102069858E+02 0.  0.
        -13    1    3    3    0    0 -0.25532269502E+01 -0.23270358633E+02  0.10586337226E+03  0.10842085659E+03  0.00000000000E+00 0.  1.
         13    1    3    3    0    0 -0.21079988765E+02  0.38310308789E+02  0.25968667343E+03  0.26334238938E+03  0.00000000000E+00 0. -1.
        -13    1    4    4    0    0 -0.43649665505E+01  0.23970952633E+02  0.59883850891E+02  0.64650870843E+02  0.00000000000E+00 0.  1.
         13    1    4    4    0    0  0.58895147933E+02 -0.69493555787E+02  0.20488975908E+03  0.22422713066E+03  0.00000000000E+00 0. -1.
          2    1    1    2  501    0 -0.30896965667E+02  0.30482652997E+02  0.35413854766E+02  0.56017459159E+02  0.00000000000E+00 0. -1.
<scales pt_clust_5="13000.00000" pt_clust_6="13000.00000" pt_clust_7="13000.00000" pt_clust_8="13000.00000" pt_clust_9="43.40293"></scales>
<clustering>
<clus scale="   43.403">  2  9  1 -1</clus>
<clus scale="   61.614">  5  6 -1 -1</clus>
<clus scale="   71.745">  1  5  2 -1</clus>
<clus scale="   91.102">  7  8 -1 -1</clus>
<clus scale="   43.403">  2  5  1 -1</clus>
</clustering>
</event>
<event>
 9    1  0.1464797E-005  0.1071283E+03  0.7546771E-02  0.1268978E+00
         21   -1    0    0  501  502  0.00000000000E+00  0.00000000000E+00  0.42615948294E+02  0.42615948294E+02  0.00000000000E+00 0. -1.
          2   -1    0    0  502    0 -0.00000000000E+00 -0.00000000000E+00 -0.75543729717E+03  0.75543729717E+03  0.00000000000E+00 0. -1.
         23    2    1    2    0    0  0.37894562550E+02  0.12592684415E+02 -0.45873604987E+03  0.47050750711E+03  0.96664250010E+02 0.  0.
         23    2    1    2    0    0 -0.60259189828E+02  0.93034760621E+01 -0.27100432474E+03  0.29196664578E+03  0.89908028545E+02 0.  0.
        -11    1    4    4    0    0 -0.13451860749E+02  0.36261962645E+02 -0.19454269406E+03  0.19835004992E+03  0.00000000000E+00 0. -1.
         11    1    4    4    0    0 -0.46807329079E+02 -0.26958486582E+02 -0.76461630682E+02  0.93616595862E+02  0.00000000000E+00 0.  1.
        -11    1    3    3    0    0  0.70513131000E+02  0.29630430433E+01 -0.30824158684E+03  0.31621789501E+03  0.00000000000E+00 0. -1.
         11    1    3    3    0    0 -0.32618568450E+02  0.96296413717E+01 -0.15049446302E+03  0.15428961210E+03  0.00000000000E+00 0.  1.
          2    1    1    2  501    0  0.22364627278E+02 -0.21896160477E+02  0.16919025724E+02  0.35579092574E+02  0.00000000000E+00 0. -1.
<scales pt_clust_5="13000.00000" pt_clust_6="13000.00000" pt_clust_7="13000.00000" pt_clust_8="13000.00000" pt_clust_9="31.29886"></scales>
<clustering>
<clus scale="   31.299">  1  9  2 -1</clus>
<clus scale="   89.908">  5  6 -1 -1</clus>
<clus scale="   96.664">  7  8 -1 -1</clus>
<clus scale="  101.074">  1  5  2 -1</clus>
<clus scale="   31.299">  1  5  2 -1</clus>
</clustering>
</event>
<event>
 9    1  0.1464797E-005  0.1068104E+03  0.7546771E-02  0.1268025E+00
         21   -1    0    0  501  502  0.00000000000E+00  0.00000000000E+00  0.14210886868E+03  0.14210886868E+03  0.00000000000E+00 0.  1.
         -4   -1    0    0    0  501 -0.00000000000E+00 -0.00000000000E+00 -0.28156376987E+03  0.28156376987E+03  0.00000000000E+00 0.  1.
         23    2    1    2    0    0  0.50258474463E+02  0.14167386030E+02 -0.13090879589E+03  0.16887208477E+03  0.93027087945E+02 0.  0.
         23    2    1    2    0    0 -0.31368119137E+02 -0.53395084060E+02 -0.10353823329E+03  0.15030575869E+03  0.89647428539E+02 0.  0.
        -11    1    3    3    0    0  0.72083846192E+02  0.76619774733E+01 -0.59069604341E+02  0.93509384223E+02  0.00000000000E+00 0.  1.
         11    1    3    3    0    0 -0.21825371730E+02  0.65054085565E+01 -0.71839191550E+02  0.75362700550E+02  0.00000000000E+00 0. -1.
        -11    1    4    4    0    0 -0.24364182146E+02 -0.16308845775E+02  0.97489031151E+01  0.30897134723E+02  0.00000000000E+00 0. -1.
         11    1    4    4    0    0 -0.70039369912E+01 -0.37086238285E+02 -0.11328713641E+03  0.11940862397E+03  0.00000000000E+00 0.  1.
         -4    1    1    2    0  502 -0.18890355325E+02  0.39227698030E+02  0.94992127993E+02  0.10449479508E+03  0.00000000000E+00 0.  1.
<scales pt_clust_5="13000.00000" pt_clust_6="13000.00000" pt_clust_7="13000.00000" pt_clust_8="13000.00000" pt_clust_9="43.53915"></scales>
<clustering>
<clus scale="   43.539">  1  9  2 -1</clus>
<clus scale="   89.647">  7  8 -1 -1</clus>
<clus scale="   93.027">  5  6 -1 -1</clus>
<clus scale="  103.880">  1  7  2 -1</clus>
<clus scale="   43.539">  1  5  2 -1</clus>
</clustering>
</event>
<event>
 9    1  0.1464797E-005  0.9612647E+02  0.7546771E-02  0.1289237E+00
         21   -1    0    0  501  502  0.00000000000E+00  0.00000000000E+00  0.90891592468E+02  0.90891592468E+02  0.00000000000E+00 0. -1.
          1   -1    0    0  502    0 -0.00000000000E+00 -0.00000000000E+00 -0.24591077933E+03  0.24591077933E+03  0.00000000000E+00 0. -1.
         23    2    1    2    0    0  0.13332701924E+02 -0.37501691085E+02 -0.12526104130E+03  0.15947111023E+03  0.90313724075E+02 0.  0.
         23    2    1    2    0    0 -0.12203621986E+02  0.13422289286E+02 -0.79218381308E+02  0.12230938107E+03  0.91405396570E+02 0.  0.
        -11    1    3    3    0    0  0.34913379615E+02  0.17858895426E+02 -0.52561267268E+02  0.65578739228E+02  0.00000000000E+00 0. -1.
         11    1    3    3    0    0 -0.21580677691E+02 -0.55360586510E+02 -0.72699774029E+02  0.93892371001E+02  0.00000000000E+00 0.  1.
        -13    1    4    4    0    0 -0.28140451318E+02  0.43788373542E+02 -0.24021777682E+02  0.57326716815E+02  0.00000000000E+00 0.  1.
         13    1    4    4    0    0  0.15936829332E+02 -0.30366084256E+02 -0.55196603626E+02  0.64982664258E+02  0.00000000000E+00 0. -1.
          1    1    1    2  501    0 -0.11290799385E+01  0.24079401799E+02  0.49460235747E+02  0.55021880490E+02  0.00000000000E+00 0. -1.
<scales pt_clust_5="13000.00000" pt_clust_6="13000.00000" pt_clust_7="13000.00000" pt_clust_8="13000.00000" pt_clust_9="24.10586"></scales>
<clustering>
<clus scale="   24.106">  1  9  2 -1</clus>
<clus scale="   90.314">  5  6 -1 -1</clus>
<clus scale="   91.405">  7  8 -1 -1</clus>
<clus scale="   95.089">  2  5  1 -1</clus>
<clus scale="   24.106">  1  5  2 -1</clus>
</clustering>
</event>
<event>
 9    1  0.1464797E-005  0.2035677E+03  0.7546771E-02  0.1163885E+00
         21   -1    0    0  501  502  0.00000000000E+00  0.00000000000E+00  0.96555528066E+03  0.96555528066E+03  0.00000000000E+00 0.  1.
         -3   -1    0    0    0  501 -0.00000000000E+00 -0.00000000000E+00 -0.15788414164E+03  0.15788414164E+03  0.00000000000E+00 0.  1.
         23    2    1    2    0    0 -0.42578886662E+01  0.10004094891E+03  0.17742692565E+03  0.22367408790E+03  0.92322600567E+02 0.  0.
         23    2    1    2    0    0 -0.10436922729E+03  0.54090375580E+02 -0.76374986804E+02  0.16841930853E+03  0.93344633163E+02 0.  0.
        -11    1    3    3    0    0 -0.35806040029E+02  0.47435184974E+02  0.35918570580E+02  0.69442875722E+02  0.00000000000E+00 0.  1.
         11    1    3    3    0    0  0.31548151363E+02  0.52605763938E+02  0.14150835507E+03  0.15423121218E+03  0.00000000000E+00 0. -1.
        -13    1    4    4    0    0 -0.47873943508E+02  0.49617002940E+02 -0.86742970704E+02  0.11080660817E+03  0.00000000000E+00 0.  1.
         13    1    4    4    0    0 -0.56495283778E+02  0.44733726396E+01  0.10367983901E+02  0.57612700354E+02  0.00000000000E+00 0. -1.
         -3    1    1    2    0  502  0.10862711595E+03 -0.15413132449E+03  0.70661920018E+03  0.73134602588E+03  0.00000000000E+00 0.  1.
<scales pt_clust_5="13000.00000" pt_clust_6="13000.00000" pt_clust_7="13000.00000" pt_clust_8="13000.00000" pt_clust_9="180.90486"></scales>
<clustering>
<clus scale="   92.323">  5  6 -1 -1</clus>
<clus scale="   93.345">  7  8 -1 -1</clus>
<clus scale="  136.198">  2  5  1 -1</clus>
<clus scale="  180.905">  1  9  2 -1</clus>
<clus scale="  180.905">  1  5  2 -1</clus>
</clustering>
</event>
<event>
 9    1  0.1464797E-005  0.2067881E+03  0.7546771E-02  0.1144826E+00
         -1   -1    0    0    0  501 -0.00000000000E+00  0.00000000000E+00  0.60717472315E+03  0.60717472315E+03  0.00000000000E+00 0.  1.
         21   -1    0    0  501  502  0.00000000000E+00 -0.00000000000E+00 -0.10967364075E+03  0.10967364075E+03  0.00000000000E+00 0. -1.
         23    2    1    2    0    0  0.17201828569E+03  0.48777646543E+02  0.39010266647E+03  0.43807859144E+03  0.88109094179E+02 0.  0.
         23    2    1    2    0    0 -0.18011366672E+03 -0.84256505377E+02  0.95894714670E+02  0.24060408419E+03  0.95678824163E+02 0.  0.
        -11    1    3    3    0    0  0.52875960852E+02 -0.21312413961E+02  0.76886164088E+02  0.95716082520E+02  0.00000000000E+00 0. -1.
         11    1    3    3    0    0  0.11914232483E+03  0.70090060504E+02  0.31321650238E+03  0.34236250892E+03  0.00000000000E+00 0.  1.
        -13    1    4    4    0    0 -0.36522862248E+02 -0.47683387505E+02  0.66375171011E+02  0.89516971784E+02  0.00000000000E+00 0.  1.
         13    1    4    4    0    0 -0.14359080447E+03 -0.36573117872E+02  0.29519543659E+02  0.15108711241E+03  0.00000000000E+00 0. -1.
         -1    1    1    2    0  502  0.80953810292E+01  0.35478858834E+02  0.11503701251E+02  0.38165688264E+02  0.00000000000E+00 0.  1.
<scales pt_clust_5="13000.00000" pt_clust_6="13000.00000" pt_clust_7="13000.00000" pt_clust_8="13000.00000" pt_clust_9="36.39072"></scales>
<clustering>
<clus scale="   36.391">  2  9  1 -1</clus>
<clus scale="   88.109">  5  6 -1 -1</clus>
<clus scale="   95.679">  7  8 -1 -1</clus>
<clus scale="  203.396">  1  5  2 -1</clus>
<clus scale="   36.391">  2  5  1 -1</clus>
</clustering>
</event>
<event>
 9    1  0.1464797E-005  0.1379478E+03  0.7546771E-02  0.1217005E+00
         21   -1    0    0  501  502  0.00000000000E+00  0.00000000000E+00  0.12475613291E+03  0.12475613291E+03  0.00000000000E+00 0. -1.
          1   -1    0    0  502    0 -0.00000000000E+00 -0.00000000000E+00 -0.63571300789E+03  0.63571300789E+03  0.00000000000E+00 0. -1.
         23    2    1    2    0    0  0.18392721549E+01 -0.10456211260E+03 -0.56832356666E+03  0.58460998934E+03  0.88546851460E+02 0.  0.
         23    2    1    2    0    0  0.26211522484E+01  0.84233930101E+02  0.11632007783E+02  0.12561184606E+03  0.92416485788E+02 0.  0.
        -11    1    3    3    0    0 -0.29768559362E+02 -0.24209291012E+02 -0.80174547740E+02  0.88883153652E+02  0.00000000000E+00 0.  1.
         11    1    3    3    0    0  0.31607831517E+02 -0.80352821587E+02 -0.48814901892E+03  0.49572683569E+03  0.00000000000E+00 0. -1.
        -11    1    4    4    0    0 -0.41065066641E+02  0.35986184834E+02  0.23513108307E+02  0.59449234305E+02  0.00000000000E+00 0.  1.
         11    1    4    4    0    0  0.43686218890E+02  0.48247745267E+02 -0.11881100523E+02  0.66162611752E+02  0.00000000000E+00 0. -1.
          1    1    1    2  501    0 -0.44604244033E+01  0.20328182498E+02  0.45734683890E+02  0.50247305400E+02  0.00000000000E+00 0. -1.
<scales pt_clust_5="13000.00000" pt_clust_6="13000.00000" pt_clust_7="13000.00000" pt_clust_8="13000.00000" pt_clust_9="20.81178"></scales>
<clustering>
<clus scale="   20.812">  1  9  2 -1</clus>
<clus scale="   88.547">  5  6 -1 -1</clus>
<clus scale="   92.416">  7  8 -1 -1</clus>
<clus scale="  135.386">  2  5  1 -1</clus>
<clus scale="   20.812">  1  5  2 -1</clus>
</clustering>
</event>
<event>
 9    1  0.1464797E-005  0.1008738E+03  0.7546771E-02  0.1283943E+00
         21   -1    0    0  501  502  0.00000000000E+00  0.00000000000E+00  0.22503127288E+03  0.22503127288E+03  0.00000000000E+00 0.  1.
          1   -1    0    0  502    0 -0.00000000000E+00 -0.00000000000E+00 -0.72470398319E+02  0.72470398319E+02  0.00000000000E+00 0. -1.
         23    2    1    2    0    0  0.19114650557E+02  0.25958806729E+02 -0.63938059989E+01  0.92635188542E+02  0.86609282922E+02 0.  0.
         23    2    1    2    0    0 -0.22049707454E+02  0.32286161707E+01  0.12901733406E+03  0.16295270294E+03  0.97012872070E+02 0.  0.
        -11    1    4    4    0    0 -0.21704811583E+02 -0.45227089028E+02  0.54573776981E+02  0.74127495316E+02  0.00000000000E+00 0. -1.
         11    1    4    4    0    0 -0.34489587087E+00  0.48455705199E+02  0.74443557080E+02  0.88825207628E+02  0.00000000000E+00 0.  1.
        -13    1    3    3    0    0 -0.32821262046E+02  0.12158325334E+02 -0.15238088930E+02  0.38174068050E+02  0.00000000000E+00 0.  1.
         13    1    3    3    0    0  0.51935912603E+02  0.13800481396E+02  0.88442829310E+01  0.54461120492E+02  0.00000000000E+00 0. -1.
          1    1    1    2  501    0  0.29350568966E+01 -0.29187422900E+02  0.29937346498E+02  0.41913779714E+02  0.00000000000E+00 0. -1.
<scales pt_clust_5="13000.00000" pt_clust_6="13000.00000" pt_clust_7="13000.00000" pt_clust_8="13000.00000" pt_clust_9="29.33462"></scales>
<clustering>
<clus scale="   29.335">  1  9  2 -1</clus>
<clus scale="   86.609">  7  8 -1 -1</clus>
<clus scale="   90.913">  2  7  1 -1</clus>
<clus scale="   97.013">  5  6 -1 -1</clus>
<clus scale="   29.335">  1  5  2 -1</clus>
</clustering>
</event>
<event>
 9    1  0.1464797E-005  0.9563946E+02  0.7546771E-02  0.1289907E+00
         21   -1    0    0  501  502  0.00000000000E+00  0.00000000000E+00  0.48538020225E+02  0.48538020225E+02  0.00000000000E+00 0.  1.
         -1   -1    0    0    0  501 -0.00000000000E+00 -0.00000000000E+00 -0.64144052392E+03  0.64144052392E+03  0.00000000000E+00 0.  1.
         23    2    1    2    0    0  0.33320772360E+02 -0.18243714784E+02 -0.49121665196E+03  0.50108633901E+03  0.91381688451E+02 0.  0.
         23    2    1    2    0    0  0.55792858435E+00 -0.25799076217E+02 -0.92911387405E+02  0.13263809380E+03  0.91073785474E+02 0.  0.
        -11    1    4    4    0    0  0.12642742733E+02 -0.52724370693E+02 -0.27320597412E+02  0.60713369629E+02  0.00000000000E+00 0.  1.
         11    1    4    4    0    0 -0.12084814148E+02  0.26925294477E+02 -0.65590789993E+02  0.71924724174E+02  0.00000000000E+00 0. -1.
        -13    1    3    3    0    0  0.51222647303E+02 -0.43784150677E+02 -0.31445699360E+03  0.32159603895E+03  0.00000000000E+00 0.  1.
         13    1    3    3    0    0 -0.17901874943E+02  0.25540435893E+02 -0.17675965836E+03  0.17949030006E+03  0.00000000000E+00 0. -1.
         -1    1    1    2    0  502 -0.33878700944E+02  0.44042791000E+02 -0.87744643284E+01  0.56254111326E+02  0.00000000000E+00 0.  1.
<scales pt_clust_5="13000.00000" pt_clust_6="13000.00000" pt_clust_7="13000.00000" pt_clust_8="13000.00000" pt_clust_9="55.56558"></scales>
<clustering>
<clus scale="   55.566">  1  9  2 -1</clus>
<clus scale="   91.074">  5  6 -1 -1</clus>
<clus scale="   91.382">  7  8 -1 -1</clus>
<clus scale="   95.345">  1  5  2 -1</clus>
<clus scale="   55.566">  1  5  2 -1</clus>
</clustering>
</event>
<event>
 9    1  0.1464797E-005  0.1028894E+03  0.7546771E-02  0.1275578E+00
          1   -1    0    0  502    0 -0.00000000000E+00  0.00000000000E+00  0.54226081576E+03  0.54226081576E+03  0.00000000000E+00 0. -1.
         21   -1    0    0  501  502  0.00000000000E+00 -0.00000000000E+00 -0.77016319761E+02  0.77016319761E+02  0.00000000000E+00 0. -1.
         23    2    1    2    0    0 -0.43520985387E+02  0.39019853980E+02  0.39588370985E+03  0.40994063635E+03  0.88942613154E+02 0.  0.
         23    2    1    2    0    0 -0.12150902338E+01 -0.25574710882E+02  0.11137717981E+03  0.14650763899E+03  0.91673713899E+02 0.  0.
        -11    1    3    3    0    0  0.22527085497E+01 -0.26327490560E+02  0.11037002477E+03  0.11348900310E+03  0.00000000000E+00 0. -1.
         11    1    3    3    0    0 -0.45773693936E+02  0.65347344540E+02  0.28551368508E+03  0.29645163326E+03  0.00000000000E+00 0.  1.
        -11    1    4    4    0    0  0.33775642860E+02  0.68340602512E+01  0.12372266784E+02  0.36613814544E+02  0.00000000000E+00 0.  1.
         11    1    4    4    0    0 -0.34990733093E+02 -0.32408771133E+02  0.99004913026E+02  0.10989382445E+03  0.00000000000E+00 0. -1.
          1    1    1    2  501    0  0.44736075621E+02 -0.13445143099E+02 -0.42016393660E+02  0.62828860176E+02  0.00000000000E+00 0. -1.
<scales pt_clust_5="13000.00000" pt_clust_6="13000.00000" pt_clust_7="13000.00000" pt_clust_8="13000.00000" pt_clust_9="46.71283"></scales>
<clustering>
<clus scale="   46.713">  2  9  1 -1</clus>
<clus scale="   88.943">  5  6 -1 -1</clus>
<clus scale="   91.674">  7  8 -1 -1</clus>
<clus scale="  100.464">  1  5  2 -1</clus>
<clus scale="   46.713">  2  5  1 -1</clus>
</clustering>
</event>
<event>
 9    1  0.1464797E-005  0.1016764E+03  0.7546771E-02  0.1277572E+00
          1   -1    0    0  502    0 -0.00000000000E+00  0.00000000000E+00  0.32459081585E+03  0.32459081585E+03  0.00000000000E+00 0. -1.
         21   -1    0    0  501  502  0.00000000000E+00 -0.00000000000E+00 -0.55578125240E+02  0.55578125240E+02  0.00000000000E+00 0.  1.
         23    2    1    2    0    0 -0.30473532093E+01  0.45844275856E+02  0.18391720795E+03  0.20964760749E+03  0.89529860694E+02 0.  0.
         23    2    1    2    0    0  0.37711751449E+02 -0.46027260465E+02  0.84836640702E+02  0.13585548603E+03  0.87856545435E+02 0.  0.
        -11    1    4    4    0    0  0.64644502283E+02 -0.45266580114E+02  0.59086953108E+02  0.98586221036E+02  0.00000000000E+00 0.  1.
         11    1    4    4    0    0 -0.26932750834E+02 -0.76068035139E+00  0.25749687594E+02  0.37269264995E+02  0.00000000000E+00 0. -1.
        -13    1    3    3    0    0 -0.26445583804E+02  0.35884794290E+02  0.30205599031E+02  0.53846685848E+02  0.00000000000E+00 0.  1.
         13    1    3    3    0    0  0.23398230595E+02  0.99594815658E+01  0.15371160892E+03  0.15580092164E+03  0.00000000000E+00 0. -1.
          1    1    1    2  501    0 -0.34664398240E+02  0.18298460964E+00  0.25884196101E+00  0.34665847572E+02  0.00000000000E+00 0. -1.
<scales pt_clust_5="13000.00000" pt_clust_6="13000.00000" pt_clust_7="13000.00000" pt_clust_8="13000.00000" pt_clust_9="34.66488"></scales>
<clustering>
<clus scale="   34.665">  2  9  1 -1</clus>
<clus scale="   87.857">  5  6 -1 -1</clus>
<clus scale="   89.530">  7  8 -1 -1</clus>
<clus scale="  100.206">  2  5  1 -1</clus>
<clus scale="   34.665">  2  5  1 -1</clus>
</clustering>
</event>
<event>
 9    1  0.1464797E-005  0.1382498E+03  0.7546771E-02  0.1215874E+00
          1   -1    0    0  502    0 -0.00000000000E+00  0.00000000000E+00  0.54402983283E+03  0.54402983283E+03  0.00000000000E+00 0. -1.
         21   -1    0    0  501  502  0.00000000000E+00 -0.00000000000E+00 -0.47357577172E+02  0.47357577172E+02  0.00000000000E+00 0. -1.
         23    2    1    2    0    0  0.36612420570E+02  0.84861831602E+02  0.26572831725E+03  0.29662359009E+03  0.93978805070E+02 0.  0.
         23    2    1    2    0    0 -0.45969510340E+02 -0.10420483620E+03  0.23023276817E+03  0.27326468693E+03  0.93244934521E+02 0.  0.
        -11    1    4    4    0    0  0.19431043022E+02 -0.43734311453E+02  0.37004037945E+02  0.60494249771E+02  0.00000000000E+00 0.  1.
         11    1    4    4    0    0 -0.65400553362E+02 -0.60470524750E+02  0.19322873023E+03  0.21277043716E+03  0.00000000000E+00 0. -1.
        -13    1    3    3    0    0  0.14693582778E+02 -0.19554152733E+02  0.38810632686E+02  0.45875172735E+02  0.00000000000E+00 0.  1.
         13    1    3    3    0    0  0.21918837792E+02  0.10441598433E+03  0.22691768457E+03  0.25074841735E+03  0.00000000000E+00 0. -1.
          1    1    1    2  501    0  0.93570897697E+01  0.19343004601E+02  0.71117022958E+00  0.21499132983E+02  0.00000000000E+00 0. -1.
<scales pt_clust_5="13000.00000" pt_clust_6="13000.00000" pt_clust_7="13000.00000" pt_clust_8="13000.00000" pt_clust_9="21.48737"></scales>
<clustering>
<clus scale="   21.487">  2  9  1 -1</clus>
<clus scale="   93.245">  5  6 -1 -1</clus>
<clus scale="   93.979">  7  8 -1 -1</clus>
<clus scale="  137.752">  2  5  1 -1</clus>
<clus scale="   21.487">  2  5  1 -1</clus>
</clustering>
</event>
<event>
 9    1  0.4657982E-005  0.9107575E+02  0.7546771E-02  0.1300648E+00
         21   -1    0    0  501  502  0.00000000000E+00  0.00000000000E+00  0.14750516198E+03  0.14750516198E+03  0.00000000000E+00 0. -1.
          3   -1    0    0  502    0 -0.00000000000E+00 -0.00000000000E+00 -0.41297216930E+03  0.41297216930E+03  0.00000000000E+00 0. -1.
         23    2    1    2    0    0 -0.41734936249E+01  0.60890900434E+01 -0.36799044297E+03  0.37896372591E+03  0.90233277495E+02 0.  0.
         23    2    1    2    0    0 -0.13076714194E+01  0.28863836208E+02  0.10976635029E+03  0.14539975712E+03  0.90871374312E+02 0.  0.
        -11    1    3    3    0    0  0.42193179205E+02  0.11694621467E+02 -0.18413676506E+03  0.18927064429E+03  0.00000000000E+00 0.  1.
         11    1    3    3    0    0 -0.46366672830E+02 -0.56055314240E+01 -0.18385367791E+03  0.18969308161E+03  0.00000000000E+00 0. -1.
        -11    1    4    4    0    0  0.25058368675E+02 -0.24049245242E+02  0.53503651985E+02  0.63788155743E+02  0.00000000000E+00 0.  1.
         11    1    4    4    0    0 -0.26366040094E+02  0.52913081450E+02  0.56262698306E+02  0.81611601378E+02  0.00000000000E+00 0. -1.
          3    1    1    2  501    0  0.54811650443E+01 -0.34952926251E+02 -0.72429146373E+01  0.36113848261E+02  0.00000000000E+00 0. -1.
<scales pt_clust_5="13000.00000" pt_clust_6="13000.00000" pt_clust_7="13000.00000" pt_clust_8="13000.00000" pt_clust_9="35.38008"></scales>
<clustering>
<clus scale="   35.380">  1  9  2 -1</clus>
<clus scale="   90.233">  5  6 -1 -1</clus>
<clus scale="   90.439">  2  5  1 -1</clus>
<clus scale="   90.871">  7  8 -1 -1</clus>
<clus scale="   35.380">  1  5  2 -1</clus>
</clustering>
</event>
<event>
 9    1  0.1464797E-005  0.1245346E+03  0.7546771E-02  0.1237133E+00
          1   -1    0    0  502    0 -0.00000000000E+00  0.00000000000E+00  0.12145187764E+03  0.12145187764E+03  0.00000000000E+00 0. -1.
         21   -1    0    0  501  502  0.00000000000E+00 -0.00000000000E+00 -0.78575707559E+03  0.78575707559E+03  0.00000000000E+00 0. -1.
         23    2    1    2    0    0  0.10667320298E+03  0.81791191460E-01 -0.72712174822E+01  0.14069281872E+03  0.91446266803E+02 0.  0.
         23    2    1    2    0    0 -0.45520696308E+02 -0.73716760806E+02 -0.22381469023E+02  0.12468629094E+03  0.86829985469E+02 0.  0.
        -11    1    3    3    0    0  0.27508321693E+02  0.40526414487E+02  0.10357723638E+02  0.50063764067E+02  0.00000000000E+00 0. -1.
         11    1    3    3    0    0  0.79164881284E+02 -0.40444623296E+02 -0.17628941120E+02  0.90629054653E+02  0.00000000000E+00 0.  1.
        -11    1    4    4    0    0 -0.45523019337E+00 -0.42551129660E+02  0.27436844666E+02  0.50631870547E+02  0.00000000000E+00 0. -1.
         11    1    4    4    0    0 -0.45065466114E+02 -0.31165631146E+02 -0.49818313689E+02  0.74054420392E+02  0.00000000000E+00 0.  1.
          1    1    1    2  501    0 -0.61152506669E+02  0.73634969615E+02 -0.63465251144E+03  0.64182984357E+03  0.00000000000E+00 0. -1.
<scales pt_clust_5="13000.00000" pt_clust_6="13000.00000" pt_clust_7="13000.00000" pt_clust_8="13000.00000" pt_clust_9="95.71697"></scales>
<clustering>
<clus scale="   86.830">  7  8 -1 -1</clus>
<clus scale="   91.446">  5  6 -1 -1</clus>
<clus scale="   95.717">  2  9  1 -1</clus>
<clus scale="  121.185">  2  7  1 -1</clus>
<clus scale="   95.717">  2  5  1 -1</clus>
</clustering>
</event>
<event>
 9    1  0.1464797E-005  0.1567698E+03  0.7546771E-02  0.1193692E+00
          1   -1    0    0  502    0 -0.00000000000E+00  0.00000000000E+00  0.72141705292E+03  0.72141705292E+03  0.00000000000E+00 0. -1.
         21   -1    0    0  501  502  0.00000000000E+00 -0.00000000000E+00 -0.20856125121E+03  0.20856125121E+03  0.00000000000E+00 0. -1.
         23    2    1    2    0    0 -0.82103342180E+02  0.59011019406E+02  0.25109524573E+03  0.28413783308E+03  0.86384179978E+02 0.  0.
         23    2    1    2    0    0  0.15816902474E+03 -0.29585387890E+02  0.42461806912E+03  0.46370199230E+03  0.93948376650E+02 0.  0.
        -13    1    3    3    0    0  0.83098151935E+01  0.35665020639E+02  0.46086853969E+02  0.58864631439E+02  0.00000000000E+00 0.  1.
         13    1    3    3    0    0 -0.90413157374E+02  0.23345998767E+02  0.20500839176E+03  0.22527320164E+03  0.00000000000E+00 0. -1.
        -13    1    4    4    0    0  0.39731503500E+02 -0.28228560369E+02  0.46108000510E+02  0.67092411657E+02  0.00000000000E+00 0.  1.
         13    1    4    4    0    0  0.11843752124E+03 -0.13568275208E+01  0.37851006861E+03  0.39660958064E+03  0.00000000000E+00 0. -1.
          1    1    1    2  501    0 -0.76065682564E+02 -0.29425631516E+02 -0.16285751314E+03  0.18213847875E+03  0.00000000000E+00 0. -1.
<scales pt_clust_5="13000.00000" pt_clust_6="13000.00000" pt_clust_7="13000.00000" pt_clust_8="13000.00000" pt_clust_9="81.55891"></scales>
<clustering>
<clus scale="   81.559">  2  9  1 -1</clus>
<clus scale="   86.384">  5  6 -1 -1</clus>
<clus scale="   93.948">  7  8 -1 -1</clus>
<clus scale="  152.357">  1  5  2 -1</clus>
<clus scale="   81.559">  2  5  1 -1</clus>
</clustering>
</event>
<event>
 9    1  0.1464797E-005  0.9997024E+02  0.7546771E-02  0.1280689E+00
         -2   -1    0    0    0  501 -0.00000000000E+00  0.00000000000E+00  0.66470401765E+03  0.66470401765E+03  0.00000000000E+00 0.  1.
         21   -1    0    0  501  502  0.00000000000E+00 -0.00000000000E+00 -0.34616621029E+02  0.34616621029E+02  0.00000000000E+00 0.  1.
         23    2    1    2    0    0  0.33231313194E+02  0.12727690087E+02  0.44852333140E+03  0.45904704549E+03  0.91020310311E+02 0.  0.
         23    2    1    2    0    0 -0.36071416600E+02 -0.43481201158E+02  0.17948011158E+03  0.20931898944E+03  0.91703690976E+02 0.  0.
        -11    1    4    4    0    0 -0.40879983814E+02 -0.69766708540E+02  0.13041356017E+03  0.15344791747E+03  0.00000000000E+00 0.  1.
         11    1    4    4    0    0  0.48085672138E+01  0.26285507382E+02  0.49066551404E+02  0.55871071975E+02  0.00000000000E+00 0. -1.
        -11    1    3    3    0    0  0.45921052843E+02  0.42582885872E+02  0.34225536467E+03  0.34793789663E+03  0.00000000000E+00 0.  1.
         11    1    3    3    0    0 -0.12689739649E+02 -0.29855195785E+02  0.10626796673E+03  0.11110914886E+03  0.00000000000E+00 0. -1.
         -2    1    1    2    0  502  0.28401034063E+01  0.30753511071E+02  0.20839536429E+01  0.30954603751E+02  0.00000000000E+00 0.  1.
<scales pt_clust_5="13000.00000" pt_clust_6="13000.00000" pt_clust_7="13000.00000" pt_clust_8="13000.00000" pt_clust_9="30.88438"></scales>
<clustering>
<clus scale="   30.884">  2  9  1 -1</clus>
<clus scale="   91.020">  7  8 -1 -1</clus>
<clus scale="   91.704">  5  6 -1 -1</clus>
<clus scale="   99.344">  1  7  2 -1</clus>
<clus scale="   30.884">  2  5  1 -1</clus>
</clustering>
</event>
<event>
 9    1  0.1464797E-005  0.9753258E+02  0.7546771E-02  0.1285593E+00
          2   -1    0    0  502    0 -0.00000000000E+00  0.00000000000E+00  0.31537075022E+03  0.31537075022E+03  0.00000000000E+00 0. -1.
         21   -1    0    0  501  502  0.00000000000E+00 -0.00000000000E+00 -0.37780558443E+02  0.37780558443E+02  0.00000000000E+00 0.  1.
         23    2    1    2    0    0  0.93754924667E+01  0.23893366496E+02  0.13512854812E+03  0.16527443184E+03  0.91635803492E+02 0.  0.
         23    2    1    2    0    0 -0.27260258543E+01 -0.43685057685E+02  0.11705338742E+03  0.15499061934E+03  0.91677593199E+02 0.  0.
        -11    1    4    4    0    0 -0.43447919324E+02 -0.30074330797E+01  0.43040929550E+02  0.61231429543E+02  0.00000000000E+00 0.  1.
         11    1    4    4    0    0  0.40721893470E+02 -0.40677624606E+02  0.74012457868E+02  0.93759189795E+02  0.00000000000E+00 0. -1.
        -11    1    3    3    0    0  0.23107145311E+02  0.55791561186E+02  0.83275356237E+02  0.10286604600E+03  0.00000000000E+00 0.  1.
         11    1    3    3    0    0 -0.13731652844E+02 -0.31898194690E+02  0.51853191882E+02  0.62408385836E+02  0.00000000000E+00 0. -1.
          2    1    1    2  501    0 -0.66494666124E+01  0.19791691190E+02  0.25408256244E+02  0.32886257491E+02  0.00000000000E+00 0. -1.
<scales pt_clust_5="13000.00000" pt_clust_6="13000.00000" pt_clust_7="13000.00000" pt_clust_8="13000.00000" pt_clust_9="20.87885"></scales>
<clustering>
<clus scale="   20.879">  2  9  1 -1</clus>
<clus scale="   91.636">  7  8 -1 -1</clus>
<clus scale="   91.678">  5  6 -1 -1</clus>
<clus scale="   97.493">  1  7  2 -1</clus>
<clus scale="   20.879">  2  5  1 -1</clus>
</clustering>
</event>
<event>
 9    1  0.1464797E-005  0.1178877E+03  0.7546771E-02  0.1248088E+00
          1   -1    0    0  502    0 -0.00000000000E+00  0.00000000000E+00  0.54024434357E+03  0.54024434357E+03  0.00000000000E+00 0. -1.
         21   -1    0    0  501  502  0.00000000000E+00 -0.00000000000E+00 -0.50113694923E+02  0.50113694923E+02  0.00000000000E+00 0.  1.
         23    2    1    2    0    0 -0.18418211287E+02  0.70897099315E+02  0.27408314837E+03  0.29652625588E+03  0.86259022763E+02 0.  0.
         23    2    1    2    0    0 -0.32042333917E+02 -0.82211392792E+02  0.20504177731E+03  0.24096018535E+03  0.90742802543E+02 0.  0.
        -13    1    4    4    0    0 -0.33167877113E+02 -0.17387043293E+02  0.15311335675E+02  0.40458056636E+02  0.00000000000E+00 0.  1.
         13    1    4    4    0    0  0.11255431955E+01 -0.64824349499E+02  0.18973044163E+03  0.20050212871E+03  0.00000000000E+00 0. -1.
        -13    1    3    3    0    0  0.24637382775E+02  0.17304009457E+02  0.16400034565E+03  0.16674094502E+03  0.00000000000E+00 0.  1.
         13    1    3    3    0    0 -0.43055594061E+02  0.53593089858E+02  0.11008280273E+03  0.12978531087E+03  0.00000000000E+00 0. -1.
          1    1    1    2  501    0  0.50460545204E+02  0.11314293477E+02  0.11005722968E+02  0.52871597263E+02  0.00000000000E+00 0. -1.
<scales pt_clust_5="13000.00000" pt_clust_6="13000.00000" pt_clust_7="13000.00000" pt_clust_8="13000.00000" pt_clust_9="51.71344"></scales>
<clustering>
<clus scale="   51.713">  2  9  1 -1</clus>
<clus scale="   86.259">  7  8 -1 -1</clus>
<clus scale="   90.743">  5  6 -1 -1</clus>
<clus scale="  114.472">  1  7  2 -1</clus>
<clus scale="   51.713">  2  5  1 -1</clus>
</clustering>
</event>
<event>
 9    1  0.1464797E-005  0.9515181E+02  0.7546771E-02  0.1293174E+00
         21   -1    0    0  501  502  0.00000000000E+00  0.00000000000E+00  0.45813718921E+03  0.45813718921E+03  0.00000000000E+00 0. -1.
          1   -1    0    0  502    0 -0.00000000000E+00 -0.00000000000E+00 -0.86560149360E+02  0.86560149360E+02  0.00000000000E+00 0. -1.
         23    2    1    2    0    0 -0.16850468909E+02 -0.58225526622E+02  0.90685334079E+01  0.11051318804E+03  0.91960731726E+02 0.  0.
         23    2    1    2    0    0 -0.27705717841E+02 -0.17465858052E+02  0.43430727277E+02  0.10323843195E+03  0.87745556927E+02 0.  0.
        -13    1    3    3    0    0  0.82327903577E+01  0.22731389941E+02 -0.47551319258E+01  0.24639525266E+02  0.00000000000E+00 0.  1.
         13    1    3    3    0    0 -0.25083259266E+02 -0.80956916563E+02  0.13823665334E+02  0.85873662773E+02  0.00000000000E+00 0. -1.
        -13    1    4    4    0    0 -0.47714787250E+02  0.40980144339E+01  0.53818527639E+02  0.72041158804E+02  0.00000000000E+00 0.  1.
         13    1    4    4    0    0  0.20009069409E+02 -0.21563872486E+02 -0.10387800362E+02  0.31197273143E+02  0.00000000000E+00 0. -1.
          1    1    1    2  501    0  0.44556186750E+02  0.75691384674E+02  0.31907777917E+03  0.33094571859E+03  0.00000000000E+00 0. -1.
<scales pt_clust_5="13000.00000" pt_clust_6="13000.00000" pt_clust_7="13000.00000" pt_clust_8="13000.00000" pt_clust_9="87.83188"></scales>
<clustering>
<clus scale="   87.746">  7  8 -1 -1</clus>
<clus scale="   87.832">  1  9  2 -1</clus>
<clus scale="   91.084">  1  7  2 -1</clus>
<clus scale="   91.961">  5  6 -1 -1</clus>
<clus scale="   87.832">  1  5  2 -1</clus>
</clustering>
</event>
<event>
 9    1  0.1464797E-005  0.1018756E+03  0.7546771E-02  0.1276672E+00
         21   -1    0    0  501  502  0.00000000000E+00  0.00000000000E+00  0.16780666303E+03  0.16780666303E+03  0.00000000000E+00 0. -1.
          4   -1    0    0  502    0 -0.00000000000E+00 -0.00000000000E+00 -0.21680150044E+03  0.21680150044E+03  0.00000000000E+00 0. -1.
         23    2    1    2    0    0 -0.41732570675E+02 -0.18218270123E+02 -0.13508469807E+03  0.16877684837E+03  0.90356162333E+02 0.  0.
         23    2    1    2    0    0  0.17366276437E+02  0.61466128072E+02 -0.59113884346E+01  0.11129269378E+03  0.90947494298E+02 0.  0.
        -11    1    4    4    0    0  0.27033663859E+02  0.82779933080E+02 -0.95626000876E+01  0.87605819571E+02  0.00000000000E+00 0.  1.
         11    1    4    4    0    0 -0.96673874224E+01 -0.21313805007E+02  0.36512116530E+01  0.23686874213E+02  0.00000000000E+00 0. -1.
        -13    1    3    3    0    0  0.41067280102E+01  0.32515292860E+02 -0.41761969063E+02  0.53086453496E+02  0.00000000000E+00 0.  1.
         13    1    3    3    0    0 -0.45839298685E+02 -0.50733562983E+02 -0.93322729004E+02  0.11569039487E+03  0.00000000000E+00 0. -1.
          4    1    1    2  501    0  0.24366294238E+02 -0.43247857950E+02  0.92001249088E+02  0.10453862131E+03  0.00000000000E+00 0. -1.
<scales pt_clust_5="13000.00000" pt_clust_6="13000.00000" pt_clust_7="13000.00000" pt_clust_8="13000.00000" pt_clust_9="49.63964"></scales>
<clustering>
<clus scale="   49.640">  1  9  2 -1</clus>
<clus scale="   90.356">  7  8 -1 -1</clus>
<clus scale="   90.947">  5  6 -1 -1</clus>
<clus scale="  101.348">  2  7  1 -1</clus>
<clus scale="   49.640">  1  5  2 -1</clus>
</clustering>
</event>
<event>
 9    1  0.1464797E-005  0.9961682E+02  0.7546771E-02  0.1283433E+00
         21   -1    0    0  501  502  0.00000000000E+00  0.00000000000E+00  0.24426243707E+02  0.24426243707E+02  0.00000000000E+00 0.  1.
          1   -1    0    0  502    0 -0.00000000000E+00 -0.00000000000E+00 -0.55248907082E+03  0.55248907082E+03  0.00000000000E+00 0. -1.
         23    2    1    2    0    0  0.18036420397E+01  0.37662267246E+02 -0.28089097297E+03  0.29773690268E+03  0.91245958942E+02 0.  0.
         23    2    1    2    0    0  0.19909177577E+02 -0.40799265394E+02 -0.23401801970E+03  0.25359891510E+03  0.86527572422E+02 0.  0.
        -11    1    4    4    0    0  0.51922256172E+02 -0.29863597675E+02 -0.11240206884E+03  0.12736553785E+03  0.00000000000E+00 0. -1.
         11    1    4    4    0    0 -0.32013078595E+02 -0.10935667720E+02 -0.12161595086E+03  0.12623337725E+03  0.00000000000E+00 0.  1.
        -13    1    3    3    0    0 -0.36923002852E+02  0.42250700191E+00 -0.60386601653E+02  0.70781553465E+02  0.00000000000E+00 0.  1.
         13    1    3    3    0    0  0.38726644892E+02  0.37239760244E+02 -0.22050437132E+03  0.22695534922E+03  0.00000000000E+00 0. -1.
          1    1    1    2  501    0 -0.21712819616E+02  0.31369981482E+01 -0.13153834444E+02  0.25579496744E+02  0.00000000000E+00 0. -1.
<scales pt_clust_5="13000.00000" pt_clust_6="13000.00000" pt_clust_7="13000.00000" pt_clust_8="13000.00000" pt_clust_9="21.93826"></scales>
<clustering>
<clus scale="   21.938">  1  9  2 -1</clus>
<clus scale="   86.528">  5  6 -1 -1</clus>
<clus scale="   91.246">  7  8 -1 -1</clus>
<clus scale="   95.314">  1  5  2 -1</clus>
<clus scale="   21.938">  1  5  2 -1</clus>
</clustering>
</event>
<event>
 9    1  0.1464797E-005  0.1009613E+03  0.7546771E-02  0.1278369E+00
         21   -1    0    0  501  502  0.00000000000E+00  0.00000000000E+00  0.62259440340E+02  0.62259440340E+02  0.00000000000E+00 0. -1.
         -1   -1    0    0    0  501 -0.00000000000E+00 -0.00000000000E+00 -0.26271595618E+03  0.26271595618E+03  0.00000000000E+00 0.  1.
         23    2    1    2    0    0  0.83442673610E+01  0.32759157218E+02 -0.99383720389E+02  0.13892585016E+03  0.90997136139E+02 0.  0.
         23    2    1    2    0    0 -0.17098801946E+02 -0.51079615599E+02 -0.11890644272E+03  0.15902511212E+03  0.90822618379E+02 0.  0.
        -13    1    4    4    0    0 -0.16977535816E+02 -0.75525001018E+02 -0.10636109564E+03  0.13154826174E+03  0.00000000000E+00 0.  1.
         13    1    4    4    0    0 -0.12126613039E+00  0.24445385418E+02 -0.12545347071E+02  0.27476850381E+02  0.00000000000E+00 0. -1.
        -13    1    3    3    0    0  0.12303871223E+02 -0.30475491819E+02 -0.25513605606E+02  0.41606308653E+02  0.00000000000E+00 0.  1.
         13    1    3    3    0    0 -0.39596038621E+01  0.63234649037E+02 -0.73870114783E+02  0.97319541510E+02  0.00000000000E+00 0. -1.
         -1    1    1    2    0  502  0.87545345849E+01  0.18320458381E+02  0.17833647262E+02  0.27024434236E+02  0.00000000000E+00 0.  1.
<scales pt_clust_5="13000.00000" pt_clust_6="13000.00000" pt_clust_7="13000.00000" pt_clust_8="13000.00000" pt_clust_9="20.30471"></scales>
<clustering>
<clus scale="   20.305">  1  9  2 -1</clus>
<clus scale="   90.823">  5  6 -1 -1</clus>
<clus scale="   90.997">  7  8 -1 -1</clus>
<clus scale="  100.804">  1  5  2 -1</clus>
<clus scale="   20.305">  1  5  2 -1</clus>
</clustering>
</event>
<event>
 9    1  0.1464797E-005  0.9591315E+02  0.7546771E-02  0.1291138E+00
          4   -1    0    0  502    0 -0.00000000000E+00  0.00000000000E+00  0.31581046148E+03  0.31581046148E+03  0.00000000000E+00 0. -1.
         21   -1    0    0  501  502  0.00000000000E+00 -0.00000000000E+00 -0.57580611910E+02  0.57580611910E+02  0.00000000000E+00 0.  1.
         23    2    1    2    0    0 -0.49165237575E+01  0.30191974557E+02  0.20833617930E+03  0.23039729291E+03  0.93505194743E+02 0.  0.
         23    2    1    2    0    0 -0.40630509333E+01 -0.24954587056E+01  0.64199526045E+02  0.11055326166E+03  0.89876074804E+02 0.  0.
        -11    1    4    4    0    0 -0.19686929202E+02 -0.42598181075E+02  0.35055014030E+02  0.58575030696E+02  0.00000000000E+00 0.  1.
         11    1    4    4    0    0  0.15623878269E+02  0.40102722370E+02  0.29144512014E+02  0.51978230964E+02  0.00000000000E+00 0. -1.
        -11    1    3    3    0    0 -0.32911487054E+02  0.19562527561E+02  0.27601097892E+02  0.47198295197E+02  0.00000000000E+00 0.  1.
         11    1    3    3    0    0  0.27994963297E+02  0.10629446996E+02  0.18073508141E+03  0.18319899772E+03  0.00000000000E+00 0. -1.
          4    1    1    2  501    0  0.89795746908E+01 -0.27696515851E+02 -0.14305855771E+02  0.32440518819E+02  0.00000000000E+00 0. -1.
<scales pt_clust_5="13000.00000" pt_clust_6="13000.00000" pt_clust_7="13000.00000" pt_clust_8="13000.00000" pt_clust_9="29.11580"></scales>
<clustering>
<clus scale="   29.116">  2  9  1 -1</clus>
<clus scale="   89.876">  5  6 -1 -1</clus>
<clus scale="   92.379">  2  5  1 -1</clus>
<clus scale="   93.505">  7  8 -1 -1</clus>
<clus scale="   29.116">  2  5  1 -1</clus>
</clustering>
</event>
<event>
 9    1  0.1464797E-005  0.1142492E+03  0.7546771E-02  0.1261551E+00
         21   -1    0    0  501  502  0.00000000000E+00  0.00000000000E+00  0.10377652787E+03  0.10377652787E+03  0.00000000000E+00 0. -1.
          2   -1    0    0  502    0 -0.00000000000E+00 -0.00000000000E+00 -0.29073509667E+03  0.29073509667E+03  0.00000000000E+00 0. -1.
         23    2    1    2    0    0  0.39798887273E+02 -0.10277443782E+02 -0.19149855804E+03  0.21535964387E+03  0.89546084196E+02 0.  0.
         23    2    1    2    0    0 -0.17595730909E+02  0.58473626224E+01 -0.49326353922E+02  0.12072092132E+03  0.10861238538E+03 0.  0.
        -11    1    3    3    0    0 -0.11181678541E+02 -0.28191069899E+02 -0.22029531483E+02  0.37484218204E+02  0.00000000000E+00 0.  1.
         11    1    3    3    0    0  0.50980565814E+02  0.17913626117E+02 -0.16946902656E+03  0.17787542566E+03  0.00000000000E+00 0. -1.
        -13    1    4    4    0    0  0.24619156787E+02  0.43104821438E+02 -0.66775438042E+01  0.50087105161E+02  0.00000000000E+00 0. -1.
         13    1    4    4    0    0 -0.42214887696E+02 -0.37257458816E+02 -0.42648810118E+02  0.70633816158E+02  0.00000000000E+00 0.  1.
          2    1    1    2  501    0 -0.22203156364E+02  0.44300811592E+01  0.53866343161E+02  0.58431059354E+02  0.00000000000E+00 0. -1.
<scales pt_clust_5="13000.00000" pt_clust_6="13000.00000" pt_clust_7="13000.00000" pt_clust_8="13000.00000" pt_clust_9="22.64080"></scales>
<clustering>
<clus scale="   22.641">  1  9  2 -1</clus>
<clus scale="   89.546">  5  6 -1 -1</clus>
<clus scale="   96.305">  2  5  1 -1</clus>
<clus scale="  108.612">  7  8 -1 -1</clus>
<clus scale="   22.641">  1  5  2 -1</clus>
</clustering>
</event>
<event>
 9    1  0.1464797E-005  0.1034477E+03  0.7546771E-02  0.1273851E+00
          3   -1    0    0  502    0 -0.00000000000E+00  0.00000000000E+00  0.36909052907E+03  0.36909052907E+03  0.00000000000E+00 0. -1.
         21   -1    0    0  501  502  0.00000000000E+00 -0.00000000000E+00 -0.11997036950E+03  0.11997036950E+03  0.00000000000E+00 0.  1.
         23    2    1    2    0    0  0.38397138213E+02 -0.19732678344E+02  0.31928194696E+03  0.33549251709E+03  0.93544366753E+02 0.  0.
         23    2    1    2    0    0 -0.59770832505E+02  0.38813339581E+01 -0.58766893398E+02  0.12462112710E+03  0.92137182444E+02 0.  0.
        -11    1    3    3    0    0  0.46054796285E+02 -0.43749001227E+02  0.28990659995E+03  0.29678419107E+03  0.00000000000E+00 0. -1.
         11    1    3    3    0    0 -0.76576580727E+01  0.24016322883E+02  0.29375347010E+02  0.38708326029E+02  0.00000000000E+00 0.  1.
        -11    1    4    4    0    0 -0.79748014478E+02  0.16325675988E+02 -0.59887505829E+02  0.10105833397E+03  0.00000000000E+00 0.  1.
         11    1    4    4    0    0  0.19977181973E+02 -0.12444342030E+02  0.11206124307E+01  0.23562793136E+02  0.00000000000E+00 0. -1.
          3    1    1    2  501    0  0.21373694292E+02  0.15851344386E+02 -0.11394893993E+02  0.28947254372E+02  0.00000000000E+00 0. -1.
<scales pt_clust_5="13000.00000" pt_clust_6="13000.00000" pt_clust_7="13000.00000" pt_clust_8="13000.00000" pt_clust_9="26.61015"></scales>
<clustering>
<clus scale="   26.610">  2  9  1 -1</clus>
<clus scale="   92.137">  7  8 -1 -1</clus>
<clus scale="   93.544">  5  6 -1 -1</clus>
<clus scale="  102.177">  2  7  1 -1</clus>
<clus scale="   26.610">  2  5  1 -1</clus>
</clustering>
</event>
<event>
 9    1  0.1464797E-005  0.1110495E+03  0.7546771E-02  0.1259933E+00
          2   -1    0    0  502    0 -0.00000000000E+00  0.00000000000E+00  0.98578373237E+03  0.98578373237E+03  0.00000000000E+00 0. -1.
         21   -1    0    0  501  502  0.00000000000E+00 -0.00000000000E+00 -0.64033327329E+02  0.64033327329E+02  0.00000000000E+00 0.  1.
         23    2    1    2    0    0  0.11378399509E+02 -0.71043882560E+02  0.57835142993E+03  0.59018541127E+03  0.93014740441E+02 0.  0.
         23    2    1    2    0    0 -0.37450609274E+02  0.38310880147E+02  0.38601993741E+03  0.39990095283E+03  0.89661074741E+02 0.  0.
        -11    1    4    4    0    0  0.23208984946E+02  0.11941271712E+02  0.41035401570E+02  0.48632860643E+02  0.00000000000E+00 0.  1.
         11    1    4    4    0    0 -0.60659594220E+02  0.26369608436E+02  0.34498453584E+03  0.35126809219E+03  0.00000000000E+00 0. -1.
        -13    1    3    3    0    0 -0.34958906846E+02 -0.30468545734E+01  0.18980640186E+03  0.19302300038E+03  0.00000000000E+00 0. -1.
         13    1    3    3    0    0  0.46337306355E+02 -0.67997027987E+02  0.38854502808E+03  0.39716241088E+03  0.00000000000E+00 0.  1.
          2    1    1    2  501    0  0.26072209765E+02  0.32733002413E+02 -0.42620962307E+02  0.59730695601E+02  0.00000000000E+00 0. -1.
<scales pt_clust_5="13000.00000" pt_clust_6="13000.00000" pt_clust_7="13000.00000" pt_clust_8="13000.00000" pt_clust_9="41.84746"></scales>
<clustering>
<clus scale="   41.847">  2  9  1 -1</clus>
<clus scale="   89.661">  5  6 -1 -1</clus>
<clus scale="   93.015">  7  8 -1 -1</clus>
<clus scale="  108.256">  2  5  1 -1</clus>
<clus scale="   41.847">  2  5  1 -1</clus>
</clustering>
</event>
<event>
 9    1  0.1464797E-005  0.1145909E+03  0.7546771E-02  0.1252637E+00
         21   -1    0    0  501  502  0.00000000000E+00  0.00000000000E+00  0.47628326974E+02  0.47628326974E+02  0.00000000000E+00 0.  1.
         -1   -1    0    0    0  501 -0.00000000000E+00 -0.00000000000E+00 -0.69909679085E+03  0.69909679085E+03  0.00000000000E+00 0.  1.
         23    2    1    2    0    0  0.47384906756E+02  0.35346684866E+02 -0.41431841331E+03  0.42844000879E+03  0.91686291255E+02 0.  0.
         23    2    1    2    0    0 -0.73829533207E+02 -0.50303300544E+02 -0.25357700550E+03  0.28374725344E+03  0.90719259776E+02 0.  0.
        -13    1    3    3    0    0  0.53553092321E+01 -0.24005380067E+02 -0.38762806961E+02  0.45907437444E+02  0.00000000000E+00 0. -1.
         13    1    3    3    0    0  0.42029597524E+02  0.59352064933E+02 -0.37555560635E+03  0.38253257135E+03  0.00000000000E+00 0.  1.
        -13    1    4    4    0    0 -0.79948304755E+02 -0.69930047943E+02 -0.22145061694E+03  0.24560602350E+03  0.00000000000E+00 0. -1.
         13    1    4    4    0    0  0.61187715487E+01  0.19626747399E+02 -0.32126388566E+02  0.38141229936E+02  0.00000000000E+00 0.  1.
         -1    1    1    2    0  502  0.26444626451E+02  0.14956615678E+02  0.16426954938E+02  0.34537855596E+02  0.00000000000E+00 0.  1.
<scales pt_clust_5="13000.00000" pt_clust_6="13000.00000" pt_clust_7="13000.00000" pt_clust_8="13000.00000" pt_clust_9="30.38122"></scales>
<clustering>
<clus scale="   30.381">  1  9  2 -1</clus>
<clus scale="   90.719">  7  8 -1 -1</clus>
<clus scale="   91.686">  5  6 -1 -1</clus>
<clus scale="  113.819">  1  7  2 -1</clus>
<clus scale="   30.381">  1  5  2 -1</clus>
</clustering>
</event>
<event>
 9    1  0.1464797E-005  0.1248822E+03  0.7546771E-02  0.1237831E+00
          2   -1    0    0  502    0 -0.00000000000E+00  0.00000000000E+00  0.67082923405E+03  0.67082923405E+03  0.00000000000E+00 0. -1.
         21   -1    0    0  501  502  0.00000000000E+00 -0.00000000000E+00 -0.35627434411E+02  0.35627434411E+02  0.00000000000E+00 0. -1.
         23    2    1    2    0    0  0.59064024758E+02 -0.41243614164E+02  0.27942853301E+03  0.30205991642E+03  0.89276499242E+02 0.  0.
         23    2    1    2    0    0 -0.75719727404E+02  0.87391887310E+02  0.23269201742E+03  0.27189743336E+03  0.80073842234E+02 0.  0.
        -13    1    3    3    0    0  0.13782974067E+02  0.28318594186E+02  0.68745445754E+02  0.75616462908E+02  0.00000000000E+00 0.  1.
         13    1    3    3    0    0  0.45281050691E+02 -0.69562208350E+02  0.21068308726E+03  0.22644345351E+03  0.00000000000E+00 0. -1.
        -13    1    4    4    0    0 -0.60904720812E+02  0.12329319800E+02  0.12735303893E+03  0.14170460003E+03  0.00000000000E+00 0.  1.
         13    1    4    4    0    0 -0.14815006593E+02  0.75062567511E+02  0.10533897848E+03  0.13019283333E+03  0.00000000000E+00 0. -1.
          2    1    1    2  501    0  0.16655702646E+02 -0.46148273146E+02  0.12308124921E+03  0.13249931868E+03  0.00000000000E+00 0. -1.
<scales pt_clust_5="13000.00000" pt_clust_6="13000.00000" pt_clust_7="13000.00000" pt_clust_8="13000.00000" pt_clust_9="49.06198"></scales>
<clustering>
<clus scale="   49.062">  2  9  1 -1</clus>
<clus scale="   80.074">  7  8 -1 -1</clus>
<clus scale="   89.276">  5  6 -1 -1</clus>
<clus scale="  118.478">  2  7  1 -1</clus>
<clus scale="   49.062">  2  5  1 -1</clus>
</clustering>
</event>
<event>
 9    1  0.1464797E-005  0.1339648E+03  0.7546771E-02  0.1238918E+00
          2   -1    0    0  502    0 -0.00000000000E+00  0.00000000000E+00  0.64384614139E+03  0.64384614139E+03  0.00000000000E+00 0. -1.
         21   -1    0    0  501  502  0.00000000000E+00 -0.00000000000E+00 -0.72333167500E+02  0.72333167500E+02  0.00000000000E+00 0.  1.
         23    2    1    2    0    0  0.20185860484E+02 -0.19064630445E+02  0.43131336346E+03  0.44141116716E+03  0.89675369528E+02 0.  0.
         23    2    1    2    0    0 -0.18883578193E+02 -0.89614969374E+02  0.75795772943E+02  0.14843205963E+03  0.88879946385E+02 0.  0.
        -13    1    4    4    0    0 -0.39883959459E+02 -0.65163813503E+01  0.14008122032E+02  0.42771730511E+02  0.00000000000E+00 0.  1.
         13    1    4    4    0    0  0.21000381266E+02 -0.83098588024E+02  0.61787650912E+02  0.10566032912E+03  0.00000000000E+00 0. -1.
        -13    1    3    3    0    0 -0.18921599850E+02 -0.43614473570E+02  0.23162499009E+03  0.23645376986E+03  0.00000000000E+00 0. -1.
         13    1    3    3    0    0  0.39107460335E+02  0.24549843125E+02  0.19968837337E+03  0.20495739731E+03  0.00000000000E+00 0.  1.
          2    1    1    2  501    0 -0.13022822909E+01  0.10867959982E+03  0.64403837486E+02  0.12633608209E+03  0.00000000000E+00 0. -1.
<scales pt_clust_5="13000.00000" pt_clust_6="13000.00000" pt_clust_7="13000.00000" pt_clust_8="13000.00000" pt_clust_9="100.23445"></scales>
<clustering>
<clus scale="   88.880">  5  6 -1 -1</clus>
<clus scale="   89.675">  7  8 -1 -1</clus>
<clus scale="   93.875">  1  7  2 -1</clus>
<clus scale="  100.234">  2  9  1 -1</clus>
<clus scale="  100.234">  2  5  1 -1</clus>
</clustering>
</event>
<event>
 9    1  0.1464797E-005  0.1106930E+03  0.7546771E-02  0.1259346E+00
         21   -1    0    0  501  502  0.00000000000E+00  0.00000000000E+00  0.21856643280E+03  0.21856643280E+03  0.00000000000E+00 0. -1.
          3   -1    0    0  502    0 -0.00000000000E+00 -0.00000000000E+00 -0.12231157730E+03  0.12231157730E+03  0.00000000000E+00 0. -1.
         23    2    1    2    0    0  0.57620077576E+02  0.87747922442E+01 -0.41606707220E+02  0.11542660965E+03  0.90526867900E+02 0.  0.
         23    2    1    2    0    0 -0.69744173473E+02 -0.35234867474E+02  0.44568981043E+02  0.12772404973E+03  0.90671347128E+02 0.  0.
        -11    1    4    4    0    0  0.60922565572E+01 -0.21987593897E+02  0.45315970450E+02  0.50735658596E+02  0.00000000000E+00 0. -1.
         11    1    4    4    0    0 -0.75836430030E+02 -0.13247273577E+02 -0.74698940718E+00  0.76988391138E+02  0.00000000000E+00 0.  1.
        -13    1    3    3    0    0  0.38390992856E+02  0.34550781906E+02  0.11897614832E+02  0.53001680176E+02  0.00000000000E+00 0.  1.
         13    1    3    3    0    0  0.19229084720E+02 -0.25775989662E+02 -0.53504322051E+02  0.62424929479E+02  0.00000000000E+00 0. -1.
          3    1    1    2  501    0  0.12124095897E+02  0.26460075230E+02  0.93292581678E+02  0.97727350719E+02  0.00000000000E+00 0. -1.
<scales pt_clust_5="13000.00000" pt_clust_6="13000.00000" pt_clust_7="13000.00000" pt_clust_8="13000.00000" pt_clust_9="29.10549"></scales>
<clustering>
<clus scale="   29.105">  1  9  2 -1</clus>
<clus scale="   90.527">  7  8 -1 -1</clus>
<clus scale="   90.671">  5  6 -1 -1</clus>
<clus scale="  110.575">  2  7  1 -1</clus>
<clus scale="   29.105">  1  5  2 -1</clus>
</clustering>
</event>
<event>
 9    1  0.1464797E-005  0.9181339E+02  0.7546771E-02  0.1300769E+00
          1   -1    0    0  502    0 -0.00000000000E+00  0.00000000000E+00  0.33244232206E+02  0.33244232206E+02  0.00000000000E+00 0. -1.
         21   -1    0    0  501  502  0.00000000000E+00 -0.00000000000E+00 -0.33684790328E+03  0.33684790328E+03  0.00000000000E+00 0.  1.
         23    2    1    2    0    0  0.18086473208E+02  0.56793148171E+01 -0.96015997132E+02  0.13059897052E+03  0.86473373165E+02 0.  0.
         23    2    1    2    0    0 -0.22405799464E+01 -0.21293182859E+02 -0.13680509042E+03  0.16529707788E+03  0.90272206994E+02 0.  0.
        -11    1    3    3    0    0 -0.21610963594E+02 -0.26931442051E+02 -0.54630887159E+02  0.64628709953E+02  0.00000000000E+00 0. -1.
         11    1    3    3    0    0  0.39697436802E+02  0.32610756869E+02 -0.41385109973E+02  0.65970260570E+02  0.00000000000E+00 0.  1.
        -11    1    4    4    0    0  0.29511792255E+02  0.73251904259E+01 -0.11161082209E+03  0.11567877897E+03  0.00000000000E+00 0.  1.
         11    1    4    4    0    0 -0.31752372201E+02 -0.28618373285E+02 -0.25194268335E+02  0.49618298911E+02  0.00000000000E+00 0. -1.
          1    1    1    2  501    0 -0.15845893262E+02  0.15613868042E+02 -0.70782583515E+02  0.74196087077E+02  0.00000000000E+00 0. -1.
<scales pt_clust_5="13000.00000" pt_clust_6="13000.00000" pt_clust_7="13000.00000" pt_clust_8="13000.00000" pt_clust_9="22.24602"></scales>
<clustering>
<clus scale="   22.246">  2  9  1 -1</clus>
<clus scale="   86.473">  5  6 -1 -1</clus>
<clus scale="   88.081">  1  5  2 -1</clus>
<clus scale="   90.272">  7  8 -1 -1</clus>
<clus scale="   22.246">  2  5  1 -1</clus>
</clustering>
</event>
<event>
 9    1  0.1464797E-005  0.1140448E+03  0.7546771E-02  0.1253630E+00
         21   -1    0    0  501  502  0.00000000000E+00  0.00000000000E+00  0.15159968303E+03  0.15159968303E+03  0.00000000000E+00 0. -1.
          3   -1    0    0  502    0 -0.00000000000E+00 -0.00000000000E+00 -0.22507601150E+03  0.22507601150E+03  0.00000000000E+00 0. -1.
         23    2    1    2    0    0  0.65394209101E+02 -0.30091078275E+02 -0.17038200327E+03  0.20572953523E+03  0.90070744712E+02 0.  0.
         23    2    1    2    0    0 -0.44150155832E+02  0.11896650274E+02  0.99993791188E+02  0.14280573513E+03  0.91126028999E+02 0.  0.
        -11    1    3    3    0    0  0.87241616761E+02 -0.14458046685E+02 -0.12977119107E+03  0.15703724666E+03  0.00000000000E+00 0. -1.
         11    1    3    3    0    0 -0.21847407660E+02 -0.15633031591E+02 -0.40610812201E+02  0.48692288566E+02  0.00000000000E+00 0.  1.
        -11    1    4    4    0    0 -0.74804789704E+01  0.46186395037E+02  0.70395538178E+02  0.84526164278E+02  0.00000000000E+00 0.  1.
         11    1    4    4    0    0 -0.36669676861E+02 -0.34289744763E+02  0.29598253010E+02  0.58279570848E+02  0.00000000000E+00 0. -1.
          3    1    1    2  501    0 -0.21244053269E+02  0.18194428001E+02 -0.30881163888E+01  0.28140424169E+02  0.00000000000E+00 0. -1.
<scales pt_clust_5="13000.00000" pt_clust_6="13000.00000" pt_clust_7="13000.00000" pt_clust_8="13000.00000" pt_clust_9="27.97047"></scales>
<clustering>
<clus scale="   27.970">  1  9  2 -1</clus>
<clus scale="   90.071">  5  6 -1 -1</clus>
<clus scale="   91.126">  7  8 -1 -1</clus>
<clus scale="  113.203">  2  5  1 -1</clus>
<clus scale="   27.970">  1  5  2 -1</clus>
</clustering>
</event>
<event>
 9    1  0.1464797E-005  0.1005218E+03  0.7546771E-02  0.1279810E+00
         21   -1    0    0  501  502  0.00000000000E+00  0.00000000000E+00  0.43108257890E+03  0.43108257890E+03  0.00000000000E+00 0. -1.
          1   -1    0    0  502    0 -0.00000000000E+00 -0.00000000000E+00 -0.50068345177E+02  0.50068345177E+02  0.00000000000E+00 0. -1.
         23    2    1    2    0    0  0.49424434443E+02 -0.84198431192E+01  0.35382388995E+02  0.10970968490E+03  0.90943020794E+02 0.  0.
         23    2    1    2    0    0 -0.10893533480E+02 -0.36940291773E+01  0.20405704086E+03  0.22421759528E+03  0.92205960698E+02 0.  0.
        -11    1    4    4    0    0 -0.45147117428E+02 -0.78906087795E+01  0.56870491598E+02  0.73039555951E+02  0.00000000000E+00 0.  1.
         11    1    4    4    0    0  0.34253583948E+02  0.41965796022E+01  0.14718654926E+03  0.15117803933E+03  0.00000000000E+00 0. -1.
        -13    1    3    3    0    0  0.10654102940E+02  0.40142875821E+02  0.11074691904E+02  0.42983824741E+02  0.00000000000E+00 0.  1.
         13    1    3    3    0    0  0.38770331503E+02 -0.48562718940E+02  0.24307697091E+02  0.66725860156E+02  0.00000000000E+00 0. -1.
          1    1    1    2  501    0 -0.38530900963E+02  0.12113872297E+02  0.14157480387E+03  0.14722364389E+03  0.00000000000E+00 0. -1.
<scales pt_clust_5="13000.00000" pt_clust_6="13000.00000" pt_clust_7="13000.00000" pt_clust_8="13000.00000" pt_clust_9="40.39030"></scales>
<clustering>
<clus scale="   40.390">  1  9  2 -1</clus>
<clus scale="   90.943">  7  8 -1 -1</clus>
<clus scale="   92.206">  5  6 -1 -1</clus>
<clus scale="   99.365">  2  7  1 -1</clus>
<clus scale="   40.390">  1  5  2 -1</clus>
</clustering>
</event>
<event>
 9    1  0.1464797E-005  0.1100528E+03  0.7546771E-02  0.1260746E+00
         21   -1    0    0  501  502  0.00000000000E+00  0.00000000000E+00  0.14338951243E+03  0.14338951243E+03  0.00000000000E+00 0.  1.
          3   -1    0    0  502    0 -0.00000000000E+00 -0.00000000000E+00 -0.33720215811E+03  0.33720215811E+03  0.00000000000E+00 0. -1.
         23    2    1    2    0    0  0.56830952143E+02 -0.21024214847E+02 -0.28287339203E+03  0.30304409991E+03  0.90258494571E+02 0.  0.
         23    2    1    2    0    0 -0.78627692101E+02  0.34776411762E+02  0.57508100173E+02  0.13680704689E+03  0.89539230030E+02 0.  0.
        -13    1    3    3    0    0 -0.23218524875E+02  0.51697403794E+01 -0.49049668006E+02  0.54513264848E+02  0.00000000000E+00 0.  1.
         13    1    3    3    0    0  0.80049477018E+02 -0.26193955227E+02 -0.23382372403E+03  0.24853083507E+03  0.00000000000E+00 0. -1.
        -13    1    4    4    0    0  0.69822406254E+00  0.44162275416E+02  0.22924199164E+02  0.49762566192E+02  0.00000000000E+00 0. -1.
         13    1    4    4    0    0 -0.79325916163E+02 -0.93858636538E+01  0.34583901009E+02  0.87044480702E+02  0.00000000000E+00 0.  1.
          3    1    1    2  501    0  0.21796739958E+02 -0.13752196914E+02  0.31552646177E+02  0.40740523727E+02  0.00000000000E+00 0. -1.
<scales pt_clust_5="13000.00000" pt_clust_6="13000.00000" pt_clust_7="13000.00000" pt_clust_8="13000.00000" pt_clust_9="25.77248"></scales>
<clustering>
<clus scale="   25.772">  1  9  2 -1</clus>
<clus scale="   89.539">  7  8 -1 -1</clus>
<clus scale="   90.258">  5  6 -1 -1</clus>
<clus scale="  109.464">  1  7  2 -1</clus>
<clus scale="   25.772">  1  5  2 -1</clus>
</clustering>
</event>
<event>
 9    1  0.1464797E-005  0.1304160E+03  0.7546771E-02  0.1227104E+00
          1   -1    0    0  502    0 -0.00000000000E+00  0.00000000000E+00  0.47462108891E+03  0.47462108891E+03  0.00000000000E+00 0. -1.
         21   -1    0    0  501  502  0.00000000000E+00 -0.00000000000E+00 -0.10028606554E+03  0.10028606554E+03  0.00000000000E+00 0. -1.
         23    2    1    2    0    0  0.41117438640E+02  0.92281819456E+02  0.27498241829E+03  0.30712968775E+03  0.92231972590E+02 0.  0.
         23    2    1    2    0    0 -0.28552882495E+02 -0.75860029834E+02  0.16142050096E+03  0.20235601039E+03  0.91221519325E+02 0.  0.
        -11    1    3    3    0    0  0.60983878400E+02  0.97797262381E+02  0.24484014428E+03  0.27061048428E+03  0.00000000000E+00 0. -1.
         11    1    3    3    0    0 -0.19866439760E+02 -0.55154429246E+01  0.30142274009E+02  0.36519203467E+02  0.00000000000E+00 0.  1.
        -13    1    4    4    0    0  0.66494389179E+01 -0.63765970371E+02  0.15046651557E+03  0.16355575907E+03  0.00000000000E+00 0.  1.
         13    1    4    4    0    0 -0.35202321413E+02 -0.12094059463E+02  0.10953985384E+02  0.38800251326E+02  0.00000000000E+00 0. -1.
          1    1    1    2  501    0 -0.12564556145E+02 -0.16421789622E+02 -0.62067895877E+02  0.65421456298E+02  0.00000000000E+00 0. -1.
<scales pt_clust_5="13000.00000" pt_clust_6="13000.00000" pt_clust_7="13000.00000" pt_clust_8="13000.00000" pt_clust_9="20.67712"></scales>
<clustering>
<clus scale="   20.677">  2  9  1 -1</clus>
<clus scale="   91.222">  7  8 -1 -1</clus>
<clus scale="   92.232">  5  6 -1 -1</clus>
<clus scale="  129.703">  2  7  1 -1</clus>
<clus scale="   20.677">  2  5  1 -1</clus>
</clustering>
</event>
<event>
 9    1  0.1464797E-005  0.1403184E+03  0.7546771E-02  0.1214878E+00
         21   -1    0    0  501  502  0.00000000000E+00  0.00000000000E+00  0.15126397088E+03  0.15126397088E+03  0.00000000000E+00 0. -1.
          2   -1    0    0  502    0 -0.00000000000E+00 -0.00000000000E+00 -0.25863126289E+03  0.25863126289E+03  0.00000000000E+00 0. -1.
         23    2    1    2    0    0 -0.10969899410E+03  0.13988629817E+02 -0.11824064942E+03  0.19058096240E+03  0.10055198150E+03 0.  0.
         23    2    1    2    0    0  0.82609627626E+02  0.34901810638E+02 -0.48700524463E+02  0.13762488195E+03  0.92338399847E+02 0.  0.
        -11    1    3    3    0    0 -0.18077883283E+02  0.45168913218E+02 -0.19781578970E+02  0.52520010014E+02  0.00000000000E+00 0.  1.
         11    1    3    3    0    0 -0.91621110815E+02 -0.31180283401E+02 -0.98459070447E+02  0.13806095238E+03  0.00000000000E+00 0. -1.
        -13    1    4    4    0    0  0.96808996279E+01  0.34606371399E+02  0.16736945450E+02  0.39641469474E+02  0.00000000000E+00 0. -1.
         13    1    4    4    0    0  0.72928727998E+02  0.29543923837E+00 -0.65437469913E+02  0.97983412475E+02  0.00000000000E+00 0.  1.
          2    1    1    2  501    0  0.27089366472E+02 -0.48890440454E+02  0.59573881867E+02  0.81689389424E+02  0.00000000000E+00 0. -1.
<scales pt_clust_5="13000.00000" pt_clust_6="13000.00000" pt_clust_7="13000.00000" pt_clust_8="13000.00000" pt_clust_9="55.89373"></scales>
<clustering>
<clus scale="   55.894">  1  9  2 -1</clus>
<clus scale="   92.338">  7  8 -1 -1</clus>
<clus scale="  100.552">  5  6 -1 -1</clus>
<clus scale="  134.555">  1  7  2 -1</clus>
<clus scale="   55.894">  1  5  2 -1</clus>
</clustering>
</event>
<event>
 9    1  0.1464797E-005  0.9320970E+02  0.7546771E-02  0.1296921E+00
         21   -1    0    0  501  502  0.00000000000E+00  0.00000000000E+00  0.40592807886E+03  0.40592807886E+03  0.00000000000E+00 0.  1.
         -1   -1    0    0    0  501 -0.00000000000E+00 -0.00000000000E+00 -0.84495565071E+02  0.84495565071E+02  0.00000000000E+00 0.  1.
         23    2    1    2    0    0 -0.17118201624E+02 -0.10155123936E+02 -0.29598100668E+02  0.98831760568E+02  0.92171090722E+02 0.  0.
         23    2    1    2    0    0 -0.28110507533E+00 -0.44775141259E+02  0.13462021350E+03  0.16764204177E+03  0.89310469659E+02 0.  0.
        -11    1    3    3    0    0 -0.57466585176E+01  0.38505844828E+02  0.31909344430E+01  0.39062849777E+02  0.00000000000E+00 0. -1.
         11    1    3    3    0    0 -0.11371543107E+02 -0.48660968764E+02 -0.32789035111E+02  0.59768910791E+02  0.00000000000E+00 0.  1.
        -13    1    4    4    0    0  0.32067255294E+02 -0.17882456576E+02  0.12996377541E+02  0.38948644963E+02  0.00000000000E+00 0.  1.
         13    1    4    4    0    0 -0.32348360369E+02 -0.26892684683E+02  0.12162383596E+03  0.12869339680E+03  0.00000000000E+00 0. -1.
         -1    1    1    2    0  502  0.17399306700E+02  0.54930265195E+02  0.21641040096E+03  0.22394984160E+03  0.00000000000E+00 0.  1.
<scales pt_clust_5="13000.00000" pt_clust_6="13000.00000" pt_clust_7="13000.00000" pt_clust_8="13000.00000" pt_clust_9="57.62005"></scales>
<clustering>
<clus scale="   57.620">  1  9  2 -1</clus>
<clus scale="   89.310">  7  8 -1 -1</clus>
<clus scale="   90.382">  1  7  2 -1</clus>
<clus scale="   92.171">  5  6 -1 -1</clus>
<clus scale="   57.620">  1  5  2 -1</clus>
</clustering>
</event>
<event>
 9    1  0.1464797E-005  0.1305985E+03  0.7546771E-02  0.1227585E+00
         -1   -1    0    0    0  501 -0.00000000000E+00  0.00000000000E+00  0.49219734327E+03  0.49219734327E+03  0.00000000000E+00 0.  1.
         21   -1    0    0  501  502  0.00000000000E+00 -0.00000000000E+00 -0.64991020808E+02  0.64991020808E+02  0.00000000000E+00 0. -1.
         23    2    1    2    0    0 -0.98426127735E+02  0.28995242772E+02  0.32259092311E+03  0.35054296487E+03  0.91033179788E+02 0.  0.
         23    2    1    2    0    0  0.81200778692E+02  0.12516441270E+02  0.10844667909E+03  0.16153873378E+03  0.87085317611E+02 0.  0.
        -11    1    4    4    0    0  0.37817593510E+02  0.26800272846E+02  0.27930009750E+01  0.46435179099E+02  0.00000000000E+00 0. -1.
         11    1    4    4    0    0  0.43383185182E+02 -0.14283831576E+02  0.10565367812E+03  0.11510355468E+03  0.00000000000E+00 0.  1.
        -11    1    3    3    0    0 -0.30090556108E+02 -0.30641258268E+02  0.14359648629E+03  0.14988088321E+03  0.00000000000E+00 0.  1.
         11    1    3    3    0    0 -0.68335571627E+02  0.59636501040E+02  0.17899443682E+03  0.20066208166E+03  0.00000000000E+00 0. -1.
         -1    1    1    2    0  502  0.17225349042E+02 -0.41511684042E+02 -0.38312797376E+01  0.45106665428E+02  0.00000000000E+00 0.  1.
<scales pt_clust_5="13000.00000" pt_clust_6="13000.00000" pt_clust_7="13000.00000" pt_clust_8="13000.00000" pt_clust_9="44.94366"></scales>
<clustering>
<clus scale="   44.944">  2  9  1 -1</clus>
<clus scale="   87.085">  5  6 -1 -1</clus>
<clus scale="   91.033">  7  8 -1 -1</clus>
<clus scale="  127.878">  2  5  1 -1</clus>
<clus scale="   44.944">  2  5  1 -1</clus>
</clustering>
</event>
<event>
 9    1  0.1464797E-005  0.1691281E+03  0.7546771E-02  0.1178872E+00
         21   -1    0    0  501  502  0.00000000000E+00  0.00000000000E+00  0.18282787159E+03  0.18282787159E+03  0.00000000000E+00 0.  1.
          1   -1    0    0  502    0 -0.00000000000E+00 -0.00000000000E+00 -0.45243856894E+03  0.45243856894E+03  0.00000000000E+00 0. -1.
         23    2    1    2    0    0 -0.10074915431E+03  0.84302503534E+02 -0.23041886256E+03  0.28042028261E+03  0.91024054413E+02 0.  0.
         23    2    1    2    0    0  0.20668651664E+03 -0.53164076648E+02  0.14310202667E+02  0.23214817758E+03  0.90234468178E+02 0.  0.
        -11    1    4    4    0    0  0.16769972999E+03 -0.43611149828E+02 -0.26050980877E+02  0.17522495665E+03  0.00000000000E+00 0. -1.
         11    1    4    4    0    0  0.38986786645E+02 -0.95529268204E+01  0.40361183544E+02  0.56923220928E+02  0.00000000000E+00 0.  1.
        -11    1    3    3    0    0 -0.66891672767E+02  0.77577346925E+02 -0.91740019870E+02  0.13750989742E+03  0.00000000000E+00 0. -1.
         11    1    3    3    0    0 -0.33857481541E+02  0.67251566098E+01 -0.13867884269E+03  0.14291038520E+03  0.00000000000E+00 0.  1.
          1    1    1    2  501    0 -0.10593736233E+03 -0.31138426886E+02 -0.53502037458E+02  0.12269798033E+03  0.00000000000E+00 0. -1.
<scales pt_clust_5="13000.00000" pt_clust_6="13000.00000" pt_clust_7="13000.00000" pt_clust_8="13000.00000" pt_clust_9="110.41892"></scales>
<clustering>
<clus scale="   90.234">  5  6 -1 -1</clus>
<clus scale="   91.024">  7  8 -1 -1</clus>
<clus scale="  110.419">  1  9  2 -1</clus>
<clus scale="  168.704">  1  5  2 -1</clus>
<clus scale="  110.419">  1  5  2 -1</clus>
</clustering>
</event>
<event>
 9    1  0.1464797E-005  0.1265426E+03  0.7546771E-02  0.1232697E+00
          1   -1    0    0  502    0 -0.00000000000E+00  0.00000000000E+00  0.67224998999E+03  0.67224998999E+03  0.00000000000E+00 0. -1.
         21   -1    0    0  501  502  0.00000000000E+00 -0.00000000000E+00 -0.67674423775E+02  0.67674423775E+02  0.00000000000E+00 0. -1.
         23    2    1    2    0    0  0.31115214420E+02  0.59279446056E+02  0.31648712374E+03  0.33612287787E+03  0.91281324705E+02 0.  0.
         23    2    1    2    0    0 -0.23794457086E+02 -0.14961531165E+03  0.24816864168E+03  0.30476743775E+03  0.91348775210E+02 0.  0.
        -11    1    4    4    0    0 -0.46423038684E+02 -0.65400658423E+02  0.70208021688E+02  0.10659038865E+03  0.00000000000E+00 0. -1.
         11    1    4    4    0    0  0.22628581598E+02 -0.84214653225E+02  0.17796061999E+03  0.19817704910E+03  0.00000000000E+00 0.  1.
        -13    1    3    3    0    0  0.52979636979E+02  0.65417680578E+01  0.11652647948E+03  0.12817198245E+03  0.00000000000E+00 0. -1.
         13    1    3    3    0    0 -0.21864422559E+02  0.52737677998E+02  0.19996064426E+03  0.20795089542E+03  0.00000000000E+00 0.  1.
          1    1    1    2  501    0 -0.73207573335E+01  0.90335865592E+02  0.39919800794E+02  0.99034098146E+02  0.00000000000E+00 0. -1.
<scales pt_clust_5="13000.00000" pt_clust_6="13000.00000" pt_clust_7="13000.00000" pt_clust_8="13000.00000" pt_clust_9="90.63201"></scales>
<clustering>
<clus scale="   90.632">  2  9  1 -1</clus>
<clus scale="   91.281">  7  8 -1 -1</clus>
<clus scale="   91.349">  5  6 -1 -1</clus>
<clus scale="  126.494">  1  7  2 -1</clus>
<clus scale="   90.632">  2  5  1 -1</clus>
</clustering>
</event>
<event>
 9    1  0.1464797E-005  0.1418004E+03  0.7546771E-02  0.1211768E+00
          1   -1    0    0  502    0 -0.00000000000E+00  0.00000000000E+00  0.41755170619E+03  0.41755170619E+03  0.00000000000E+00 0. -1.
         21   -1    0    0  501  502  0.00000000000E+00 -0.00000000000E+00 -0.14510158227E+03  0.14510158227E+03  0.00000000000E+00 0.  1.
         23    2    1    2    0    0  0.11236826820E+03 -0.11225649685E+02  0.35801887261E+03  0.38642462893E+03  0.91617890091E+02 0.  0.
         23    2    1    2    0    0 -0.77297248584E+02  0.10937619118E+01 -0.58010945979E+02  0.13048957278E+03  0.87670963244E+02 0.  0.
        -11    1    3    3    0    0  0.69944558248E+02 -0.45266380369E+02  0.27356688427E+03  0.28597224793E+03  0.00000000000E+00 0.  1.
         11    1    3    3    0    0  0.42423709956E+02  0.34040730684E+02  0.84451988345E+02  0.10045238099E+03  0.00000000000E+00 0. -1.
        -11    1    4    4    0    0 -0.37314718806E+02 -0.20325076033E+02 -0.71495704980E+02  0.83169301944E+02  0.00000000000E+00 0.  1.
         11    1    4    4    0    0 -0.39982529778E+02  0.21418837945E+02  0.13484759000E+02  0.47320270832E+02  0.00000000000E+00 0. -1.
          1    1    1    2  501    0 -0.35071019620E+02  0.10131887774E+02 -0.27557802718E+02  0.45739086761E+02  0.00000000000E+00 0. -1.
<scales pt_clust_5="13000.00000" pt_clust_6="13000.00000" pt_clust_7="13000.00000" pt_clust_8="13000.00000" pt_clust_9="36.50523"></scales>
<clustering>
<clus scale="   36.505">  2  9  1 -1</clus>
<clus scale="   87.671">  7  8 -1 -1</clus>
<clus scale="   91.618">  5  6 -1 -1</clus>
<clus scale="  139.283">  2  7  1 -1</clus>
<clus scale="   36.505">  2  5  1 -1</clus>
</clustering>
</event>
<event>
 9    1  0.1464797E-005  0.9856582E+02  0.7546771E-02  0.1287589E+00
         21   -1    0    0  501  502  0.00000000000E+00  0.00000000000E+00  0.10389053615E+03  0.10389053615E+03  0.00000000000E+00 0.  1.
          1   -1    0    0  502    0 -0.00000000000E+00 -0.00000000000E+00 -0.15955344005E+03  0.15955344005E+03  0.00000000000E+00 0. -1.
         23    2    1    2    0    0  0.29535139037E+01 -0.28601929171E+01 -0.89901718636E+02  0.13313577705E+03  0.98111733087E+02 0.  0.
         23    2    1    2    0    0 -0.24636118655E+02 -0.61784020900E+01  0.68551939120E+01  0.94229199192E+02  0.90482248546E+02 0.  0.
        -13    1    3    3    0    0  0.75727591858E+01  0.31997220393E+02 -0.92210783864E+02  0.97897893008E+02  0.00000000000E+00 0. -1.
         13    1    3    3    0    0 -0.46192452821E+01 -0.34857413310E+02  0.23090652277E+01  0.35237884043E+02  0.00000000000E+00 0.  1.
        -13    1    4    4    0    0 -0.57985730678E+02  0.27335996296E+01 -0.35975022604E+01  0.58161495439E+02  0.00000000000E+00 0. -1.
         13    1    4    4    0    0  0.33349612023E+02 -0.89120017195E+01  0.10452696172E+02  0.36067703753E+02  0.00000000000E+00 0.  1.
          1    1    1    2  501    0  0.21682604751E+02  0.90385950070E+01  0.27383620822E+02  0.36078999956E+02  0.00000000000E+00 0. -1.
<scales pt_clust_5="13000.00000" pt_clust_6="13000.00000" pt_clust_7="13000.00000" pt_clust_8="13000.00000" pt_clust_9="23.49110"></scales>
<clustering>
<clus scale="   23.491">  1  9  2 -1</clus>
<clus scale="   90.482">  7  8 -1 -1</clus>
<clus scale="   90.974">  1  7  2 -1</clus>
<clus scale="   98.112">  5  6 -1 -1</clus>
<clus scale="   23.491">  1  5  2 -1</clus>
</clustering>
</event>
<event>
 9    1  0.1464797E-005  0.1883838E+03  0.7546771E-02  0.1159963E+00
         21   -1    0    0  501  502  0.00000000000E+00  0.00000000000E+00  0.19074498213E+03  0.19074498213E+03  0.00000000000E+00 0.  1.
          1   -1    0    0  502    0 -0.00000000000E+00 -0.00000000000E+00 -0.26321835754E+03  0.26321835754E+03  0.00000000000E+00 0. -1.
         23    2    1    2    0    0 -0.11345294826E+03  0.10137167653E+03 -0.72639627896E+02  0.19051220108E+03  0.88716373620E+02 0.  0.
         23    2    1    2    0    0  0.15426672907E+03 -0.10675771629E+03 -0.33396516778E+02  0.21033585256E+03  0.89052848659E+02 0.  0.
        -11    1    3    3    0    0 -0.51682895342E+02 -0.56361200195E+01 -0.14584530794E+02  0.53996259670E+02  0.00000000000E+00 0.  1.
         11    1    3    3    0    0 -0.61770052918E+02  0.10700779655E+03 -0.58055097102E+02  0.13651594141E+03  0.00000000000E+00 0. -1.
        -13    1    4    4    0    0  0.10136286955E+03 -0.10745947141E+03 -0.48213981416E+02  0.15539162565E+03  0.00000000000E+00 0.  1.
         13    1    4    4    0    0  0.52903859525E+02  0.70175511523E+00  0.14817464639E+02  0.54944226914E+02  0.00000000000E+00 0. -1.
          1    1    1    2  501    0 -0.40813780812E+02  0.53860397644E+01  0.33562769265E+02  0.53115286022E+02  0.00000000000E+00 0. -1.
<scales pt_clust_5="13000.00000" pt_clust_6="13000.00000" pt_clust_7="13000.00000" pt_clust_8="13000.00000" pt_clust_9="41.16763"></scales>
<clustering>
<clus scale="   41.168">  1  9  2 -1</clus>
<clus scale="   88.716">  5  6 -1 -1</clus>
<clus scale="   89.053">  7  8 -1 -1</clus>
<clus scale="  188.225">  2  5  1 -1</clus>
<clus scale="   41.168">  1  5  2 -1</clus>
</clustering>
</event>
<event>
 9    1  0.1464797E-005  0.1173220E+03  0.7546771E-02  0.1247670E+00
          1   -1    0    0  502    0 -0.00000000000E+00  0.00000000000E+00  0.91517332817E+03  0.91517332817E+03  0.00000000000E+00 0. -1.
         21   -1    0    0  501  502  0.00000000000E+00 -0.00000000000E+00 -0.24234295529E+02  0.24234295529E+02  0.00000000000E+00 0.  1.
         23    2    1    2    0    0  0.66927185762E+02  0.52764273247E+02  0.63691382644E+03  0.64888417819E+03  0.90156184929E+02 0.  0.
         23    2    1    2    0    0 -0.34510242939E+02 -0.42793489386E+02  0.20998893187E+03  0.23494046097E+03  0.89885644517E+02 0.  0.
        -13    1    4    4    0    0 -0.48232536835E+02  0.61887578043E+01  0.14153435865E+03  0.14965511355E+03  0.00000000000E+00 0. -1.
         13    1    4    4    0    0  0.13722293896E+02 -0.48982247190E+02  0.68454573217E+02  0.85285347416E+02  0.00000000000E+00 0.  1.
        -13    1    3    3    0    0 -0.82236161284E+01 -0.18590798364E+02  0.11464083171E+03  0.11642923147E+03  0.00000000000E+00 0.  1.
         13    1    3    3    0    0  0.75150801890E+02  0.71355071611E+02  0.52227299472E+03  0.53245494672E+03  0.00000000000E+00 0. -1.
          1    1    1    2  501    0 -0.32416942823E+02 -0.99707838609E+01  0.44036274339E+02  0.55582984541E+02  0.00000000000E+00 0. -1.
<scales pt_clust_5="13000.00000" pt_clust_6="13000.00000" pt_clust_7="13000.00000" pt_clust_8="13000.00000" pt_clust_9="33.91570"></scales>
<clustering>
<clus scale="   33.916">  2  9  1 -1</clus>
<clus scale="   89.886">  5  6 -1 -1</clus>
<clus scale="   90.156">  7  8 -1 -1</clus>
<clus scale="  117.114">  2  5  1 -1</clus>
<clus scale="   33.916">  2  5  1 -1</clus>
</clustering>
</event>
<event>
 9    1  0.1464797E-005  0.1548395E+03  0.7546771E-02  0.1214060E+00
         -1   -1    0    0    0  501 -0.00000000000E+00  0.00000000000E+00  0.12964607945E+03  0.12964607945E+03  0.00000000000E+00 0.  1.
         21   -1    0    0  501  502  0.00000000000E+00 -0.00000000000E+00 -0.41867219579E+03  0.41867219579E+03  0.00000000000E+00 0. -1.
         23    2    1    2    0    0  0.20686126448E+02 -0.95040149668E+01  0.20071007086E+02  0.10384714657E+03  0.99313354580E+02 0.  0.
         23    2    1    2    0    0  0.10165936949E+03 -0.34791881686E+02 -0.41549145964E+02  0.14696067998E+03  0.91246958812E+02 0.  0.
        -11    1    4    4    0    0  0.54576200096E+02 -0.12253372531E+02  0.25926055331E+02  0.61651172741E+02  0.00000000000E+00 0. -1.
         11    1    4    4    0    0  0.47083169395E+02 -0.22538509155E+02 -0.67475201294E+02  0.85309507236E+02  0.00000000000E+00 0.  1.
        -13    1    3    3    0    0  0.41303731213E+02  0.68048475854E+01  0.49207681506E+02  0.64604180066E+02  0.00000000000E+00 0.  1.
         13    1    3    3    0    0 -0.20617604766E+02 -0.16308862552E+02 -0.29136674420E+02  0.39242966507E+02  0.00000000000E+00 0. -1.
         -1    1    1    2    0  502 -0.12234549594E+03  0.44295896653E+02 -0.26754797746E+03  0.29751044869E+03  0.00000000000E+00 0.  1.
<scales pt_clust_5="13000.00000" pt_clust_6="13000.00000" pt_clust_7="13000.00000" pt_clust_8="13000.00000" pt_clust_9="125.09702"></scales>
<clustering>
<clus scale="   91.247">  5  6 -1 -1</clus>
<clus scale="   99.313">  7  8 -1 -1</clus>
<clus scale="  101.889">  1  7  2 -1</clus>
<clus scale="  125.097">  2  9  1 -1</clus>
<clus scale="  125.097">  2  5  1 -1</clus>
</clustering>
</event>
<event>
 9    1  0.1464797E-005  0.2534140E+03  0.7546771E-02  0.1111645E+00
         21   -1    0    0  501  502  0.00000000000E+00  0.00000000000E+00  0.11504150514E+03  0.11504150514E+03  0.00000000000E+00 0. -1.
          2   -1    0    0  502    0 -0.00000000000E+00 -0.00000000000E+00 -0.12938795293E+04  0.12938795293E+04  0.00000000000E+00 0. -1.
         23    2    1    2    0    0 -0.14670119988E+03 -0.12710638074E+03 -0.55426450137E+03  0.59432839263E+03  0.91322651833E+02 0.  0.
         23    2    1    2    0    0  0.26285220394E+03  0.22821809833E+03 -0.49548994888E+03  0.61365184398E+03  0.99415867200E+02 0.  0.
        -11    1    3    3    0    0 -0.38783448214E+02 -0.90476351798E+02 -0.21577770299E+03  0.23717112640E+03  0.00000000000E+00 0.  1.
         11    1    3    3    0    0 -0.10791775166E+03 -0.36630028946E+02 -0.33848679838E+03  0.35715726624E+03  0.00000000000E+00 0. -1.
        -11    1    4    4    0    0  0.83285318874E+02  0.96519447041E+02 -0.10961024114E+03  0.16812749020E+03  0.00000000000E+00 0.  1.
         11    1    4    4    0    0  0.17956688507E+03  0.13169865129E+03 -0.38587970775E+03  0.44552435378E+03  0.00000000000E+00 0. -1.
          2    1    1    2  501    0 -0.11615100406E+03 -0.10111171759E+03 -0.12908357390E+03  0.20094079782E+03  0.00000000000E+00 0. -1.
<scales pt_clust_5="13000.00000" pt_clust_6="13000.00000" pt_clust_7="13000.00000" pt_clust_8="13000.00000" pt_clust_9="153.99557"></scales>
<clustering>
<clus scale="   91.323">  5  6 -1 -1</clus>
<clus scale="   99.416">  7  8 -1 -1</clus>
<clus scale="  153.996">  1  9  2 -1</clus>
<clus scale="  250.350">  2  5  1 -1</clus>
<clus scale="  153.996">  1  5  2 -1</clus>
</clustering>
</event>
<event>
 9    1  0.1464797E-005  0.1404968E+03  0.7546771E-02  0.1221544E+00
         21   -1    0    0  501  502  0.00000000000E+00  0.00000000000E+00  0.80554241548E+02  0.80554241548E+02  0.00000000000E+00 0. -1.
          2   -1    0    0  502    0 -0.00000000000E+00 -0.00000000000E+00 -0.69701786344E+03  0.69701786344E+03  0.00000000000E+00 0. -1.
         23    2    1    2    0    0 -0.23627227563E+02  0.75525449442E+02 -0.46220631058E+03  0.47727990368E+03  0.88876844700E+02 0.  0.
         23    2    1    2    0    0  0.55320148380E+02 -0.47124496322E+02 -0.19622077859E+03  0.24052609089E+03  0.11861352992E+03 0.  0.
        -13    1    3    3    0    0 -0.52942546108E+02  0.65334902971E+02 -0.38484038102E+03  0.39392090779E+03  0.00000000000E+00 0.  1.
         13    1    3    3    0    0  0.29315318544E+02  0.10190546471E+02 -0.77365929563E+02  0.83358995890E+02  0.00000000000E+00 0. -1.
        -13    1    4    4    0    0  0.83641485474E+02 -0.42974089927E+02 -0.18885259224E+03  0.21096912592E+03  0.00000000000E+00 0. -1.
         13    1    4    4    0    0 -0.28321337094E+02 -0.41504063945E+01 -0.73681863493E+01  0.29556964968E+02  0.00000000000E+00 0.  1.
          2    1    1    2  501    0 -0.31692920817E+02 -0.28400953121E+02  0.41963467277E+02  0.59766110414E+02  0.00000000000E+00 0. -1.
<scales pt_clust_5="13000.00000" pt_clust_6="13000.00000" pt_clust_7="13000.00000" pt_clust_8="13000.00000" pt_clust_9="42.55650"></scales>
<clustering>
<clus scale="   42.556">  1  9  2 -1</clus>
<clus scale="   88.877">  5  6 -1 -1</clus>
<clus scale="  116.487">  2  5  1 -1</clus>
<clus scale="  118.614">  7  8 -1 -1</clus>
<clus scale="   42.556">  1  5  2 -1</clus>
</clustering>
</event>
<event>
 9    1  0.1464797E-005  0.1134368E+03  0.7546771E-02  0.1256179E+00
         -1   -1    0    0    0  501 -0.00000000000E+00  0.00000000000E+00  0.15144464659E+03  0.15144464659E+03  0.00000000000E+00 0.  1.
         21   -1    0    0  501  502  0.00000000000E+00 -0.00000000000E+00 -0.13133236271E+03  0.13133236271E+03  0.00000000000E+00 0.  1.
         23    2    1    2    0    0 -0.19075445704E+02  0.74005505893E+02  0.70130898981E+02  0.13777245615E+03  0.90676453125E+02 0.  0.
         23    2    1    2    0    0  0.16194694614E+02 -0.51599976584E+02 -0.13537106646E+02  0.10209526593E+03  0.85529903260E+02 0.  0.
        -13    1    4    4    0    0 -0.18511322895E+01 -0.66102376998E+02 -0.31060984109E+02  0.73059808851E+02  0.00000000000E+00 0. -1.
         13    1    4    4    0    0  0.18045826903E+02  0.14502400414E+02  0.17523877463E+02  0.29035457078E+02  0.00000000000E+00 0.  1.
        -13    1    3    3    0    0 -0.19704612389E+02  0.31594207058E+02 -0.16949240209E+02  0.40911397100E+02  0.00000000000E+00 0. -1.
         13    1    3    3    0    0  0.62916668513E+00  0.42411298835E+02  0.87080139190E+02  0.96861059053E+02  0.00000000000E+00 0.  1.
         -1    1    1    2    0  502  0.28807510903E+01 -0.22405529309E+02 -0.36481508452E+02  0.42909287216E+02  0.00000000000E+00 0.  1.
<scales pt_clust_5="13000.00000" pt_clust_6="13000.00000" pt_clust_7="13000.00000" pt_clust_8="13000.00000" pt_clust_9="22.58996"></scales>
<clustering>
<clus scale="   22.590">  2  9  1 -1</clus>
<clus scale="   85.530">  5  6 -1 -1</clus>
<clus scale="   90.676">  7  8 -1 -1</clus>
<clus scale="  109.367">  2  5  1 -1</clus>
<clus scale="   22.590">  2  5  1 -1</clus>
</clustering>
</event>
<event>
 9    1  0.1464797E-005  0.9753194E+02  0.7546771E-02  0.1287500E+00
          2   -1    0    0  502    0 -0.00000000000E+00  0.00000000000E+00  0.28094274390E+03  0.28094274390E+03  0.00000000000E+00 0. -1.
         21   -1    0    0  501  502  0.00000000000E+00 -0.00000000000E+00 -0.94819399181E+02  0.94819399181E+02  0.00000000000E+00 0. -1.
         23    2    1    2    0    0 -0.27294581415E+02  0.29827347838E+01  0.18852306020E+03  0.21320175046E+03  0.95708679285E+02 0.  0.
         23    2    1    2    0    0 -0.55174283514E+00  0.46194677298E+01  0.48346150935E+02  0.10417928082E+03  0.92164680546E+02 0.  0.
        -11    1    3    3    0    0 -0.18169109204E+01 -0.20706018975E+02 -0.70973778173E+00  0.20797694940E+02  0.00000000000E+00 0.  1.
         11    1    3    3    0    0 -0.25477670495E+02  0.23688753759E+02  0.18923279798E+03  0.19240405552E+03  0.00000000000E+00 0. -1.
        -13    1    4    4    0    0 -0.26537184286E+02 -0.31263494470E+02  0.35274796202E+01  0.41159098007E+02  0.00000000000E+00 0. -1.
         13    1    4    4    0    0  0.25985441451E+02  0.35882962200E+02  0.44818671315E+02  0.63020182815E+02  0.00000000000E+00 0.  1.
          2    1    1    2  501    0  0.27846324250E+02 -0.76022025136E+01 -0.50745866412E+02  0.58381111802E+02  0.00000000000E+00 0. -1.
<scales pt_clust_5="13000.00000" pt_clust_6="13000.00000" pt_clust_7="13000.00000" pt_clust_8="13000.00000" pt_clust_9="28.86540"></scales>
<clustering>
<clus scale="   28.865">  2  9  1 -1</clus>
<clus scale="   92.165">  7  8 -1 -1</clus>
<clus scale="   94.057">  2  7  1 -1</clus>
<clus scale="   95.709">  5  6 -1 -1</clus>
<clus scale="   28.865">  2  5  1 -1</clus>
</clustering>
</event>
<event>
 9    1  0.1464797E-005  0.9602880E+02  0.7546771E-02  0.1288897E+00
         21   -1    0    0  501  502  0.00000000000E+00  0.00000000000E+00  0.13314657217E+03  0.13314657217E+03  0.00000000000E+00 0.  1.
          2   -1    0    0  502    0 -0.00000000000E+00 -0.00000000000E+00 -0.12583531963E+03  0.12583531963E+03  0.00000000000E+00 0. -1.
         23    2    1    2    0    0 -0.93573516618E+01  0.57305098282E+01 -0.18871261851E+02  0.96042810302E+02  0.93529129761E+02 0.  0.
         23    2    1    2    0    0  0.26856349828E+02  0.44327724982E+02  0.96769027478E+01  0.10740101325E+03  0.93568822111E+02 0.  0.
        -11    1    4    4    0    0 -0.27307653801E+02  0.43495564718E+02  0.13481126483E+02  0.53097202163E+02  0.00000000000E+00 0. -1.
         11    1    4    4    0    0  0.54164003629E+02  0.83216026381E+00 -0.38042237353E+01  0.54303811083E+02  0.00000000000E+00 0.  1.
        -13    1    3    3    0    0  0.28008805261E+02 -0.30633886895E+02 -0.13394220811E+02  0.43615746578E+02  0.00000000000E+00 0.  1.
         13    1    3    3    0    0 -0.37366156922E+02  0.36364396723E+02 -0.54770410400E+01  0.52427063724E+02  0.00000000000E+00 0. -1.
          2    1    1    2  501    0 -0.17498998166E+02 -0.50058234810E+02  0.16505611642E+02  0.55538068249E+02  0.00000000000E+00 0. -1.
<scales pt_clust_5="13000.00000" pt_clust_6="13000.00000" pt_clust_7="13000.00000" pt_clust_8="13000.00000" pt_clust_9="53.02869"></scales>
<clustering>
<clus scale="   53.029">  1  9  2 -1</clus>
<clus scale="   93.529">  7  8 -1 -1</clus>
<clus scale="   93.569">  5  6 -1 -1</clus>
<clus scale="   95.990">  2  7  1 -1</clus>
<clus scale="   53.029">  1  5  2 -1</clus>
</clustering>
</event>
<event>
 9    1  0.1464797E-005  0.1229229E+03  0.7546771E-02  0.1238576E+00
          2   -1    0    0  502    0 -0.00000000000E+00  0.00000000000E+00  0.13191404352E+04  0.13191404352E+04  0.00000000000E+00 0. -1.
         21   -1    0    0  501  502  0.00000000000E+00 -0.00000000000E+00 -0.20683060674E+02  0.20683060674E+02  0.00000000000E+00 0. -1.
         23    2    1    2    0    0 -0.37665294036E+02 -0.10814676457E+03  0.73431684891E+03  0.74881011444E+03  0.91547560438E+02 0.  0.
         23    2    1    2    0    0 -0.51668400438E+01  0.49452503528E+02  0.32818584560E+03  0.34412429904E+03  0.90792827880E+02 0.  0.
        -13    1    3    3    0    0  0.29006732263E+02 -0.18034154117E+02  0.19471007820E+03  0.19768317020E+03  0.00000000000E+00 0.  1.
         13    1    3    3    0    0 -0.66672026298E+02 -0.90112610453E+02  0.53960677072E+03  0.55112694423E+03  0.00000000000E+00 0. -1.
        -13    1    4    4    0    0  0.15830492467E+02  0.65588090068E+02  0.28939628604E+03  0.29715755488E+03  0.00000000000E+00 0.  1.
         13    1    4    4    0    0 -0.20997332511E+02 -0.16135586540E+02  0.38789559563E+02  0.46966744157E+02  0.00000000000E+00 0. -1.
          2    1    1    2  501    0  0.42832134079E+02  0.58694261042E+02  0.23595468002E+03  0.24688908241E+03  0.00000000000E+00 0. -1.
<scales pt_clust_5="13000.00000" pt_clust_6="13000.00000" pt_clust_7="13000.00000" pt_clust_8="13000.00000" pt_clust_9="72.66091"></scales>
<clustering>
<clus scale="   72.661">  2  9  1 -1</clus>
<clus scale="   90.793">  7  8 -1 -1</clus>
<clus scale="   91.548">  5  6 -1 -1</clus>
<clus scale="  122.362">  2  7  1 -1</clus>
<clus scale="   72.661">  2  5  1 -1</clus>
</clustering>
</event>
<event>
 9    1  0.1464797E-005  0.9772346E+02  0.7546771E-02  0.1285567E+00
          4   -1    0    0  502    0 -0.00000000000E+00  0.00000000000E+00  0.24549308256E+03  0.24549308256E+03  0.00000000000E+00 0.  1.
         21   -1    0    0  501  502  0.00000000000E+00 -0.00000000000E+00 -0.19226937739E+03  0.19226937739E+03  0.00000000000E+00 0. -1.
         23    2    1    2    0    0 -0.80459724005E+01 -0.31840468595E+02  0.21585958420E+03  0.23716604038E+03  0.92594910810E+02 0.  0.
         23    2    1    2    0    0  0.12443983958E+01  0.84158998120E+01 -0.13770132194E+03  0.16571513564E+03  0.91801286597E+02 0.  0.
        -11    1    3    3    0    0  0.35234567338E+02 -0.26467027125E+02  0.54879749561E+02  0.70382989225E+02  0.00000000000E+00 0. -1.
         11    1    3    3    0    0 -0.43280539739E+02 -0.53734414697E+01  0.16097983464E+03  0.16678305116E+03  0.00000000000E+00 0.  1.
        -11    1    4    4    0    0  0.42488492712E+02 -0.14134574485E+02 -0.75000814682E+02  0.87350903898E+02  0.00000000000E+00 0.  1.
         11    1    4    4    0    0 -0.41244094316E+02  0.22550474297E+02 -0.62700507257E+02  0.78364231746E+02  0.00000000000E+00 0. -1.
          4    1    1    2  501    0  0.68015740047E+01  0.23424568783E+02 -0.24934557082E+02  0.34881283928E+02  0.00000000000E+00 0.  1.
<scales pt_clust_5="13000.00000" pt_clust_6="13000.00000" pt_clust_7="13000.00000" pt_clust_8="13000.00000" pt_clust_9="24.39204"></scales>
<clustering>
<clus scale="   24.392">  2  9  1 -1</clus>
<clus scale="   91.801">  7  8 -1 -1</clus>
<clus scale="   92.595">  5  6 -1 -1</clus>
<clus scale="   96.972">  2  7  1 -1</clus>
<clus scale="   24.392">  2  5  1 -1</clus>
</clustering>
</event>
<event>
 9    1  0.1464797E-005  0.9904706E+02  0.7546771E-02  0.1283449E+00
          3   -1    0    0  502    0 -0.00000000000E+00  0.00000000000E+00  0.13146877191E+03  0.13146877191E+03  0.00000000000E+00 0. -1.
         21   -1    0    0  501  502  0.00000000000E+00 -0.00000000000E+00 -0.25988089014E+03  0.25988089014E+03  0.00000000000E+00 0. -1.
         23    2    1    2    0    0  0.57548158924E+02 -0.22785205539E+02  0.40459742049E+02  0.11728898176E+03  0.91042618197E+02 0.  0.
         23    2    1    2    0    0 -0.17292152890E+02 -0.12324696241E+02  0.57720862985E+01  0.91430564205E+02  0.88742968182E+02 0.  0.
        -13    1    4    4    0    0  0.18256797857E+02 -0.29189233781E+02  0.29623922425E+02  0.45419145925E+02  0.00000000000E+00 0. -1.
         13    1    4    4    0    0 -0.35548950746E+02  0.16864537540E+02 -0.23851836126E+02  0.46011418281E+02  0.00000000000E+00 0.  1.
        -13    1    3    3    0    0 -0.79993280805E+01 -0.41187741441E+02  0.13706792525E+02  0.44139499953E+02  0.00000000000E+00 0.  1.
         13    1    3    3    0    0  0.65547487004E+02  0.18402535902E+02  0.26752949524E+02  0.73149481806E+02  0.00000000000E+00 0. -1.
          3    1    1    2  501    0 -0.40256006034E+02  0.35109901780E+02 -0.17464394657E+03  0.18263011608E+03  0.00000000000E+00 0. -1.
<scales pt_clust_5="13000.00000" pt_clust_6="13000.00000" pt_clust_7="13000.00000" pt_clust_8="13000.00000" pt_clust_9="53.41583"></scales>
<clustering>
<clus scale="   53.416">  2  9  1 -1</clus>
<clus scale="   88.743">  5  6 -1 -1</clus>
<clus scale="   91.043">  7  8 -1 -1</clus>
<clus scale="   96.937">  2  5  1 -1</clus>
<clus scale="   53.416">  2  5  1 -1</clus>
</clustering>
</event>
<event>
 9    1  0.1464797E-005  0.2572807E+03  0.7546771E-02  0.1142424E+00
         21   -1    0    0  501  502  0.00000000000E+00  0.00000000000E+00  0.44809731974E+03  0.44809731974E+03  0.00000000000E+00 0. -1.
         -1   -1    0    0    0  501 -0.00000000000E+00 -0.00000000000E+00 -0.32235819256E+03  0.32235819256E+03  0.00000000000E+00 0.  1.
         23    2    1    2    0    0 -0.49674789261E+02  0.43924594338E+02 -0.12667401659E+03  0.16899876624E+03  0.90096181029E+02 0.  0.
         23    2    1    2    0    0  0.19456801416E+03 -0.17520076957E+03  0.29139933549E+03  0.40208923629E+03  0.90609930049E+02 0.  0.
        -11    1    3    3    0    0 -0.22754017934E+02  0.67597226467E+02 -0.10555131507E+03  0.12738999360E+03  0.00000000000E+00 0.  1.
         11    1    3    3    0    0 -0.26920771328E+02 -0.23672632129E+02 -0.21122701526E+02  0.41608772639E+02  0.00000000000E+00 0. -1.
        -13    1    4    4    0    0  0.27869964476E+02  0.68105004717E+01  0.44764632720E+02  0.53169447798E+02  0.00000000000E+00 0.  1.
         13    1    4    4    0    0  0.16669804969E+03 -0.18201127004E+03  0.24663470277E+03  0.34891978849E+03  0.00000000000E+00 0. -1.
         -1    1    1    2    0  502 -0.14489322490E+03  0.13127617523E+03 -0.38986191714E+02  0.19936750976E+03  0.00000000000E+00 0.  1.
<scales pt_clust_5="13000.00000" pt_clust_6="13000.00000" pt_clust_7="13000.00000" pt_clust_8="13000.00000" pt_clust_9="240.79716"></scales>
<clustering>
<clus scale="   90.096">  5  6 -1 -1</clus>
<clus scale="   90.610">  7  8 -1 -1</clus>
<clus scale="  111.867">  2  5  1 -1</clus>
<clus scale="  240.797">  1  9  2 -1</clus>
<clus scale="  240.797">  1  5  2 -1</clus>
</clustering>
</event>
<event>
 9    1  0.1464797E-005  0.9810689E+02  0.7546771E-02  0.1284690E+00
         -1   -1    0    0    0  501 -0.00000000000E+00  0.00000000000E+00  0.13264044226E+03  0.13264044226E+03  0.00000000000E+00 0.  1.
         21   -1    0    0  501  502  0.00000000000E+00 -0.00000000000E+00 -0.18067375756E+03  0.18067375756E+03  0.00000000000E+00 0.  1.
         23    2    1    2    0    0 -0.43108312380E+02 -0.23963770371E+02  0.75193807231E+02  0.12730702190E+03  0.90113152715E+02 0.  0.
         23    2    1    2    0    0  0.24630538443E+01 -0.45402035532E+01 -0.75017465896E+02  0.11680685593E+03  0.89384234180E+02 0.  0.
        -11    1    4    4    0    0  0.45619493575E+02  0.18234234594E+01 -0.42755883764E+02  0.62550209141E+02  0.00000000000E+00 0. -1.
         11    1    4    4    0    0 -0.43156439731E+02 -0.63636270126E+01 -0.32261582131E+02  0.54256646787E+02  0.00000000000E+00 0.  1.
        -11    1    3    3    0    0 -0.69026284976E+02 -0.30094763157E+02  0.48320266238E+02  0.89471620732E+02  0.00000000000E+00 0.  1.
         11    1    3    3    0    0  0.25917972596E+02  0.61309927853E+01  0.26873540993E+02  0.37835401167E+02  0.00000000000E+00 0. -1.
         -1    1    1    2    0  502  0.40645258536E+02  0.28503973925E+02 -0.48209656640E+02  0.69200321996E+02  0.00000000000E+00 0.  1.
<scales pt_clust_5="13000.00000" pt_clust_6="13000.00000" pt_clust_7="13000.00000" pt_clust_8="13000.00000" pt_clust_9="49.64387"></scales>
<clustering>
<clus scale="   49.644">  2  9  1 -1</clus>
<clus scale="   89.384">  5  6 -1 -1</clus>
<clus scale="   90.113">  7  8 -1 -1</clus>
<clus scale="   97.438">  2  5  1 -1</clus>
<clus scale="   49.644">  2  5  1 -1</clus>
</clustering>
</event>
<event>
 9    1  0.1464797E-005  0.9966375E+02  0.7546771E-02  0.1281777E+00
          3   -1    0    0  502    0 -0.00000000000E+00  0.00000000000E+00  0.27393274005E+03  0.27393274005E+03  0.00000000000E+00 0. -1.
         21   -1    0    0  501  502  0.00000000000E+00 -0.00000000000E+00 -0.23222338116E+03  0.23222338116E+03  0.00000000000E+00 0. -1.
         23    2    1    2    0    0  0.96952384984E+01 -0.40840513283E+02  0.22870391575E+03  0.24969722256E+03  0.91001520309E+02 0.  0.
         23    2    1    2    0    0 -0.45950504474E+01  0.42257676531E+01 -0.33601068272E+02  0.98673557588E+02  0.92566017399E+02 0.  0.
        -11    1    4    4    0    0  0.20311306225E+02  0.14368174349E+02  0.24333931272E+02  0.34801347759E+02  0.00000000000E+00 0.  1.
         11    1    4    4    0    0 -0.24906356672E+02 -0.10142406696E+02 -0.57934999544E+02  0.63872209829E+02  0.00000000000E+00 0. -1.
        -13    1    3    3    0    0  0.32071216858E+02 -0.48072902545E+01  0.23230181768E+02  0.39891281445E+02  0.00000000000E+00 0.  1.
         13    1    3    3    0    0 -0.22375978360E+02 -0.36033223029E+02  0.20547373398E+03  0.20980594111E+03  0.00000000000E+00 0. -1.
          3    1    1    2  501    0 -0.51001880509E+01  0.36614745630E+02 -0.15339348859E+03  0.15778534107E+03  0.00000000000E+00 0. -1.
<scales pt_clust_5="13000.00000" pt_clust_6="13000.00000" pt_clust_7="13000.00000" pt_clust_8="13000.00000" pt_clust_9="36.96825"></scales>
<clustering>
<clus scale="   36.968">  2  9  1 -1</clus>
<clus scale="   91.002">  7  8 -1 -1</clus>
<clus scale="   92.566">  5  6 -1 -1</clus>
<clus scale="   98.212">  1  7  2 -1</clus>
<clus scale="   36.968">  2  5  1 -1</clus>
</clustering>
</event>
<event>
 9    1  0.1464797E-005  0.1545997E+03  0.7546771E-02  0.1215110E+00
         -1   -1    0    0    0  501 -0.00000000000E+00  0.00000000000E+00  0.13762930582E+03  0.13762930582E+03  0.00000000000E+00 0.  1.
         21   -1    0    0  501  502  0.00000000000E+00 -0.00000000000E+00 -0.40773173178E+03  0.40773173178E+03  0.00000000000E+00 0.  1.
         23    2    1    2    0    0 -0.15750268075E+02  0.26305925250E+02 -0.42854424115E+02  0.10889943593E+03  0.95302218402E+02 0.  0.
         23    2    1    2    0    0 -0.10524345188E+03 -0.41990083386E+02  0.29689351732E+02  0.15202834631E+03  0.96911347163E+02 0.  0.
        -11    1    4    4    0    0 -0.71185414495E+02 -0.60328152151E+02  0.52556411835E+02  0.10709353670E+03  0.00000000000E+00 0.  1.
         11    1    4    4    0    0 -0.34058037386E+02  0.18338068765E+02 -0.22867060103E+02  0.44934809607E+02  0.00000000000E+00 0. -1.
        -11    1    3    3    0    0  0.38756299050E+01 -0.34887858134E+02 -0.21581245281E+02  0.41205986218E+02  0.00000000000E+00 0. -1.
         11    1    3    3    0    0 -0.19625897980E+02  0.61193783384E+02 -0.21273178833E+02  0.67693449713E+02  0.00000000000E+00 0.  1.
         -1    1    1    2    0  502  0.12099371996E+03  0.15684158136E+02 -0.25693735358E+03  0.28443325536E+03  0.00000000000E+00 0.  1.
<scales pt_clust_5="13000.00000" pt_clust_6="13000.00000" pt_clust_7="13000.00000" pt_clust_8="13000.00000" pt_clust_9="120.45435"></scales>
<clustering>
<clus scale="   95.302">  7  8 -1 -1</clus>
<clus scale="   96.911">  5  6 -1 -1</clus>
<clus scale="  100.113">  1  7  2 -1</clus>
<clus scale="  120.454">  2  9  1 -1</clus>
<clus scale="  120.454">  2  5  1 -1</clus>
</clustering>
</event>
<event>
 9    1  0.1464797E-005  0.1719821E+03  0.7546771E-02  0.1176980E+00
          1   -1    0    0  502    0 -0.00000000000E+00  0.00000000000E+00  0.13138506527E+04  0.13138506527E+04  0.00000000000E+00 0. -1.
         21   -1    0    0  501  502  0.00000000000E+00 -0.00000000000E+00 -0.41499477612E+02  0.41499477612E+02  0.00000000000E+00 0. -1.
         23    2    1    2    0    0  0.46323630048E+02 -0.11975163680E+03  0.59658527302E+03  0.61738955483E+03  0.93645828604E+02 0.  0.
         23    2    1    2    0    0  0.15598081900E+02  0.18613549588E+03  0.48817117917E+03  0.52955497283E+03  0.85015563824E+02 0.  0.
        -11    1    3    3    0    0  0.71919093674E+02 -0.83941445362E+02  0.35445339645E+03  0.37128928417E+03  0.00000000000E+00 0.  1.
         11    1    3    3    0    0 -0.25595463626E+02 -0.35810191441E+02  0.24213187657E+03  0.24610027067E+03  0.00000000000E+00 0. -1.
        -13    1    4    4    0    0 -0.15331352631E+02  0.13934471889E+03  0.26919412666E+03  0.30350861419E+03  0.00000000000E+00 0. -1.
         13    1    4    4    0    0  0.30929434531E+02  0.46790776993E+02  0.21897705250E+03  0.22604635864E+03  0.00000000000E+00 0.  1.
          1    1    1    2  501    0 -0.61921711948E+02 -0.66383859079E+02  0.18759472294E+03  0.20840560269E+03  0.00000000000E+00 0. -1.
<scales pt_clust_5="13000.00000" pt_clust_6="13000.00000" pt_clust_7="13000.00000" pt_clust_8="13000.00000" pt_clust_9="90.78059"></scales>
<clustering>
<clus scale="   85.016">  7  8 -1 -1</clus>
<clus scale="   90.781">  2  9  1 -1</clus>
<clus scale="   93.646">  5  6 -1 -1</clus>
<clus scale="  167.439">  2  7  1 -1</clus>
<clus scale="   90.781">  2  5  1 -1</clus>
</clustering>
</event>
<event>
 9    1  0.1464797E-005  0.1160493E+03  0.7546771E-02  0.1250999E+00
         21   -1    0    0  501  502  0.00000000000E+00  0.00000000000E+00  0.71959685430E+02  0.71959685430E+02  0.00000000000E+00 0. -1.
          2   -1    0    0  502    0 -0.00000000000E+00 -0.00000000000E+00 -0.62215931561E+03  0.62215931561E+03  0.00000000000E+00 0. -1.
         23    2    1    2    0    0 -0.51154764623E+02  0.51125413008E+02 -0.50532421102E+03  0.51841176473E+03  0.90374674377E+02 0.  0.
         23    2    1    2    0    0  0.61363342324E+02  0.46133844463E+00 -0.50113229668E+02  0.12285988404E+03  0.93901771569E+02 0.  0.
        -13    1    3    3    0    0  0.16750682592E+02  0.38483423191E+02 -0.12477520494E+03  0.13164501888E+03  0.00000000000E+00 0.  1.
         13    1    3    3    0    0 -0.67905447215E+02  0.12641989816E+02 -0.38054900607E+03  0.38676674584E+03  0.00000000000E+00 0. -1.
        -13    1    4    4    0    0 -0.37386717840E+01 -0.36762121041E+02 -0.20282156270E+02  0.42152070804E+02  0.00000000000E+00 0.  1.
         13    1    4    4    0    0  0.65102014108E+02  0.37223459485E+02 -0.29831073398E+02  0.80707813234E+02  0.00000000000E+00 0. -1.
          2    1    1    2  501    0 -0.10208577700E+02 -0.51586751452E+02  0.52378105012E+01  0.52847352279E+02  0.00000000000E+00 0. -1.
<scales pt_clust_5="13000.00000" pt_clust_6="13000.00000" pt_clust_7="13000.00000" pt_clust_8="13000.00000" pt_clust_9="52.58715"></scales>
<clustering>
<clus scale="   52.587">  1  9  2 -1</clus>
<clus scale="   90.375">  5  6 -1 -1</clus>
<clus scale="   93.902">  7  8 -1 -1</clus>
<clus scale="  113.214">  2  5  1 -1</clus>
<clus scale="   52.587">  1  5  2 -1</clus>
</clustering>
</event>
<event>
 9    1  0.1464797E-005  0.1141195E+03  0.7546771E-02  0.1253456E+00
         21   -1    0    0  501  502  0.00000000000E+00  0.00000000000E+00  0.16087844232E+03  0.16087844232E+03  0.00000000000E+00 0. -1.
          1   -1    0    0  502    0 -0.00000000000E+00 -0.00000000000E+00 -0.24394929442E+03  0.24394929442E+03  0.00000000000E+00 0. -1.
         23    2    1    2    0    0  0.57445575411E+02  0.52911932396E+02 -0.14706911223E+03  0.18962795412E+03  0.90718082476E+02 0.  0.
         23    2    1    2    0    0 -0.37811059782E+02  0.21649772962E+02  0.88133915464E+02  0.13440688709E+03  0.91647342188E+02 0.  0.
        -13    1    4    4    0    0 -0.60809213694E+02 -0.10330500607E+02  0.47850718805E+02  0.78065171511E+02  0.00000000000E+00 0.  1.
         13    1    4    4    0    0  0.22998153912E+02  0.31980273569E+02  0.40283196659E+02  0.56341715576E+02  0.00000000000E+00 0. -1.
        -13    1    3    3    0    0  0.78084060048E+02  0.31537100517E+02 -0.79480093522E+02  0.11579634886E+03  0.00000000000E+00 0.  1.
         13    1    3    3    0    0 -0.20638484637E+02  0.21374831879E+02 -0.67589018707E+02  0.73831605263E+02  0.00000000000E+00 0. -1.
          1    1    1    2  501    0 -0.19634515629E+02 -0.74561705358E+02 -0.24135655334E+02  0.80792895531E+02  0.00000000000E+00 0. -1.
<scales pt_clust_5="13000.00000" pt_clust_6="13000.00000" pt_clust_7="13000.00000" pt_clust_8="13000.00000" pt_clust_9="77.10362"></scales>
<clustering>
<clus scale="   77.104">  1  9  2 -1</clus>
<clus scale="   90.718">  7  8 -1 -1</clus>
<clus scale="   91.647">  5  6 -1 -1</clus>
<clus scale="  113.375">  2  7  1 -1</clus>
<clus scale="   77.104">  1  5  2 -1</clus>
</clustering>
</event>
<event>
 9    1  0.1464797E-005  0.9516477E+02  0.7546771E-02  0.1290923E+00
         -1   -1    0    0    0  501 -0.00000000000E+00  0.00000000000E+00  0.58239682009E+03  0.58239682009E+03  0.00000000000E+00 0.  1.
         21   -1    0    0  501  502  0.00000000000E+00 -0.00000000000E+00 -0.61256340936E+02  0.61256340936E+02  0.00000000000E+00 0.  1.
         23    2    1    2    0    0 -0.10541261842E+02 -0.18064440708E+02  0.37783843053E+03  0.39016097707E+03  0.95006664086E+02 0.  0.
         23    2    1    2    0    0 -0.29937400423E+02 -0.25528173277E+02  0.16143665518E+03  0.19130133215E+03  0.94796996127E+02 0.  0.
        -13    1    3    3    0    0  0.30658927998E+02 -0.37383150839E+02  0.14292501290E+03  0.15088084419E+03  0.00000000000E+00 0.  1.
         13    1    3    3    0    0 -0.41200189840E+02  0.19318710131E+02  0.23491341763E+03  0.23928013288E+03  0.00000000000E+00 0. -1.
        -13    1    4    4    0    0 -0.27515678913E+02  0.10178180250E+02  0.37171279681E+01  0.29572368515E+02  0.00000000000E+00 0. -1.
         13    1    4    4    0    0 -0.24217215095E+01 -0.35706353526E+02  0.15771952721E+03  0.16172896364E+03  0.00000000000E+00 0.  1.
         -1    1    1    2    0  502  0.40478662265E+02  0.43592613985E+02 -0.18134606556E+02  0.62190851801E+02  0.00000000000E+00 0.  1.
<scales pt_clust_5="13000.00000" pt_clust_6="13000.00000" pt_clust_7="13000.00000" pt_clust_8="13000.00000" pt_clust_9="59.48813"></scales>
<clustering>
<clus scale="   59.488">  2  9  1 -1</clus>
<clus scale="   94.797">  7  8 -1 -1</clus>
<clus scale="   94.955">  2  7  1 -1</clus>
<clus scale="   95.007">  5  6 -1 -1</clus>
<clus scale="   59.488">  2  5  1 -1</clus>
</clustering>
</event>
<event>
 9    1  0.1464797E-005  0.9676355E+02  0.7546771E-02  0.1287800E+00
         21   -1    0    0  501  502  0.00000000000E+00  0.00000000000E+00  0.25547321949E+02  0.25547321949E+02  0.00000000000E+00 0. -1.
         -3   -1    0    0    0  501 -0.00000000000E+00 -0.00000000000E+00 -0.51436322660E+03  0.51436322660E+03  0.00000000000E+00 0.  1.
         23    2    1    2    0    0 -0.10670718254E+02  0.19717390802E+02 -0.19127528027E+03  0.21343227713E+03  0.92002523620E+02 0.  0.
         23    2    1    2    0    0 -0.15621218544E+02 -0.40249775898E+02 -0.21318957385E+03  0.23577025355E+03  0.90960162346E+02 0.  0.
        -11    1    3    3    0    0  0.11545450479E+02 -0.34278743039E+02 -0.78791658725E+02  0.86697492096E+02  0.00000000000E+00 0.  1.
         11    1    3    3    0    0 -0.22216168733E+02  0.53996133841E+02 -0.11248362154E+03  0.12673478503E+03  0.00000000000E+00 0. -1.
        -13    1    4    4    0    0 -0.35438307306E+02 -0.55043251152E+02 -0.97309230955E+02  0.11728051650E+03  0.00000000000E+00 0.  1.
         13    1    4    4    0    0  0.19817088761E+02  0.14793475255E+02 -0.11588034289E+03  0.11848973705E+03  0.00000000000E+00 0. -1.
         -3    1    1    2    0  502  0.26291936798E+02  0.20532385096E+02 -0.84351050540E+02  0.90708017868E+02  0.00000000000E+00 0.  1.
<scales pt_clust_5="13000.00000" pt_clust_6="13000.00000" pt_clust_7="13000.00000" pt_clust_8="13000.00000" pt_clust_9="33.35934"></scales>
<clustering>
<clus scale="   33.359">  1  9  2 -1</clus>
<clus scale="   90.960">  7  8 -1 -1</clus>
<clus scale="   92.003">  5  6 -1 -1</clus>
<clus scale="   95.773">  1  7  2 -1</clus>
<clus scale="   33.359">  1  5  2 -1</clus>
</clustering>
</event>
<event>
 9    1  0.1464797E-005  0.9542581E+02  0.7546771E-02  0.1290351E+00
          3   -1    0    0  502    0 -0.00000000000E+00  0.00000000000E+00  0.13325974804E+03  0.13325974804E+03  0.00000000000E+00 0. -1.
         21   -1    0    0  501  502  0.00000000000E+00 -0.00000000000E+00 -0.28538849141E+03  0.28538849141E+03  0.00000000000E+00 0. -1.
         23    2    1    2    0    0 -0.13431134596E+02  0.15395182001E+02  0.63330024555E+02  0.11224787991E+03  0.90396280498E+02 0.  0.
         23    2    1    2    0    0  0.30535066393E+02 -0.45092748649E+02 -0.19575054394E+02  0.10754131606E+03  0.90643287924E+02 0.  0.
        -11    1    3    3    0    0  0.22710796579E+02  0.21582220141E+02 -0.77437614496E+01  0.32272873266E+02  0.00000000000E+00 0.  1.
         11    1    3    3    0    0 -0.36141931175E+02 -0.61870381398E+01  0.71073786005E+02  0.79975006640E+02  0.00000000000E+00 0. -1.
        -11    1    4    4    0    0 -0.11531638372E+01  0.26085107328E+02  0.33524657444E+01  0.26324924268E+02  0.00000000000E+00 0.  1.
         11    1    4    4    0    0  0.31688230230E+02 -0.71177855977E+02 -0.22927520139E+02  0.81216391795E+02  0.00000000000E+00 0. -1.
          3    1    1    2  501    0 -0.17103931797E+02  0.29697566648E+02 -0.19588371353E+03  0.19885904348E+03  0.00000000000E+00 0. -1.
<scales pt_clust_5="13000.00000" pt_clust_6="13000.00000" pt_clust_7="13000.00000" pt_clust_8="13000.00000" pt_clust_9="34.27083"></scales>
<clustering>
<clus scale="   34.271">  2  9  1 -1</clus>
<clus scale="   90.396">  5  6 -1 -1</clus>
<clus scale="   90.643">  7  8 -1 -1</clus>
<clus scale="   95.191">  1  5  2 -1</clus>
<clus scale="   34.271">  2  5  1 -1</clus>
</clustering>
</event>
<event>
 9    1  0.1464797E-005  0.1108147E+03  0.7546771E-02  0.1259776E+00
         21   -1    0    0  501  502  0.00000000000E+00  0.00000000000E+00  0.16339205845E+03  0.16339205845E+03  0.00000000000E+00 0. -1.
          1   -1    0    0  502    0 -0.00000000000E+00 -0.00000000000E+00 -0.44221029830E+03  0.44221029830E+03  0.00000000000E+00 0. -1.
         23    2    1    2    0    0 -0.20630430306E+02 -0.57743720281E+02 -0.39254318786E+03  0.40733978362E+03  0.89864303788E+02 0.  0.
         23    2    1    2    0    0  0.24125389774E+01  0.75922206104E+02  0.49309130484E+02  0.12889581986E+03  0.91720991629E+02 0.  0.
        -11    1    4    4    0    0 -0.69995489505E+01 -0.19678035965E+02  0.18811120961E+02  0.28108309390E+02  0.00000000000E+00 0.  1.
         11    1    4    4    0    0  0.94120879278E+01  0.95600242069E+02  0.30498009523E+02  0.10078751047E+03  0.00000000000E+00 0. -1.
        -13    1    3    3    0    0 -0.22465276837E+02  0.19601204862E+02 -0.14315229838E+03  0.14622406241E+03  0.00000000000E+00 0.  1.
         13    1    3    3    0    0  0.18348465313E+01 -0.77344925143E+02 -0.24939088948E+03  0.26111572121E+03  0.00000000000E+00 0. -1.
          1    1    1    2  501    0  0.18217891328E+02 -0.18178485823E+02  0.64415817532E+02  0.69366753272E+02  0.00000000000E+00 0. -1.
<scales pt_clust_5="13000.00000" pt_clust_6="13000.00000" pt_clust_7="13000.00000" pt_clust_8="13000.00000" pt_clust_9="25.73614"></scales>
<clustering>
<clus scale="   25.736">  1  9  2 -1</clus>
<clus scale="   89.864">  7  8 -1 -1</clus>
<clus scale="   91.721">  5  6 -1 -1</clus>
<clus scale="  109.283">  2  7  1 -1</clus>
<clus scale="   25.736">  1  5  2 -1</clus>
</clustering>
</event>
<event>
 9    1  0.1464797E-005  0.1144810E+03  0.7546771E-02  0.1253305E+00
         21   -1    0    0  501  502  0.00000000000E+00  0.00000000000E+00  0.88350620600E+02  0.88350620600E+02  0.00000000000E+00 0. -1.
          1   -1    0    0  502    0 -0.00000000000E+00 -0.00000000000E+00 -0.69437434665E+03  0.69437434665E+03  0.00000000000E+00 0. -1.
         23    2    1    2    0    0  0.53251041563E+02  0.46965419460E+02 -0.50773900220E+03  0.52050035258E+03  0.89890481305E+02 0.  0.
         23    2    1    2    0    0 -0.28143592680E+02 -0.56093901025E+02 -0.15996773200E+03  0.19500477639E+03  0.92187851650E+02 0.  0.
        -13    1    4    4    0    0  0.27054362721E+02 -0.57864117569E+01 -0.84149482158E+02  0.88580790529E+02  0.00000000000E+00 0. -1.
         13    1    4    4    0    0 -0.55197955401E+02 -0.50307489268E+02 -0.75818249838E+02  0.10642398586E+03  0.00000000000E+00 0.  1.
        -13    1    3    3    0    0 -0.13687677058E+02 -0.16859859730E+02 -0.81658514667E+02  0.84496866160E+02  0.00000000000E+00 0.  1.
         13    1    3    3    0    0  0.66938718621E+02  0.63825279190E+02 -0.42608048753E+03  0.43600348642E+03  0.00000000000E+00 0. -1.
          1    1    1    2  501    0 -0.25107448883E+02  0.91284815650E+01  0.61683008146E+02  0.67219838285E+02  0.00000000000E+00 0. -1.
<scales pt_clust_5="13000.00000" pt_clust_6="13000.00000" pt_clust_7="13000.00000" pt_clust_8="13000.00000" pt_clust_9="26.71541"></scales>
<clustering>
<clus scale="   26.715">  1  9  2 -1</clus>
<clus scale="   89.890">  7  8 -1 -1</clus>
<clus scale="   92.188">  5  6 -1 -1</clus>
<clus scale="  112.639">  2  7  1 -1</clus>
<clus scale="   26.715">  1  5  2 -1</clus>
</clustering>
</event>
<event>
 9    1  0.1464797E-005  0.9371392E+02  0.7546771E-02  0.1295111E+00
         21   -1    0    0  501  502  0.00000000000E+00  0.00000000000E+00  0.30294782520E+03  0.30294782520E+03  0.00000000000E+00 0.  1.
         -1   -1    0    0    0  501 -0.00000000000E+00 -0.00000000000E+00 -0.16253416563E+03  0.16253416563E+03  0.00000000000E+00 0.  1.
         23    2    1    2    0    0 -0.26262337670E+02 -0.71978187007E+01 -0.11308250883E+03  0.14767345633E+03  0.90985036835E+02 0.  0.
         23    2    1    2    0    0 -0.20443903031E+00  0.14213136377E+02  0.33824965030E+02  0.96437482787E+02  0.89185227398E+02 0.  0.
        -11    1    4    4    0    0 -0.22192597497E+01  0.46383719839E+02 -0.41558135161E+01  0.46622369801E+02  0.00000000000E+00 0.  1.
         11    1    4    4    0    0  0.20148207194E+01 -0.32170583462E+02  0.37980778546E+02  0.49815112986E+02  0.00000000000E+00 0. -1.
        -13    1    3    3    0    0 -0.56667181021E+02 -0.46773522548E+01 -0.98784949623E+02  0.11398031980E+03  0.00000000000E+00 0.  1.
         13    1    3    3    0    0  0.30404843351E+02 -0.25204664459E+01 -0.14297559206E+02  0.33693136535E+02  0.00000000000E+00 0. -1.
         -1    1    1    2    0  502  0.26466776701E+02 -0.70153176759E+01  0.21967120337E+03  0.22137105172E+03  0.00000000000E+00 0.  1.
<scales pt_clust_5="13000.00000" pt_clust_6="13000.00000" pt_clust_7="13000.00000" pt_clust_8="13000.00000" pt_clust_9="27.38074"></scales>
<clustering>
<clus scale="   27.381">  1  9  2 -1</clus>
<clus scale="   89.185">  5  6 -1 -1</clus>
<clus scale="   90.985">  7  8 -1 -1</clus>
<clus scale="   91.968">  1  5  2 -1</clus>
<clus scale="   27.381">  1  5  2 -1</clus>
</clustering>
</event>
<event>
 9    1  0.1464797E-005  0.2092002E+03  0.7546771E-02  0.1175374E+00
         21   -1    0    0  501  502  0.00000000000E+00  0.00000000000E+00  0.29817670739E+03  0.29817670739E+03  0.00000000000E+00 0. -1.
          1   -1    0    0  502    0 -0.00000000000E+00 -0.00000000000E+00 -0.24261946905E+03  0.24261946905E+03  0.00000000000E+00 0. -1.
         23    2    1    2    0    0  0.21237136634E+02  0.19834972186E+02  0.46994625573E+00  0.96472940880E+02  0.91991115759E+02 0.  0.
         23    2    1    2    0    0  0.21543208418E+02 -0.19870242726E+03 -0.59041632223E+02  0.22787662373E+03  0.92168741331E+02 0.  0.
        -11    1    3    3    0    0 -0.12847585972E+02  0.27975967267E+02 -0.34999403368E+02  0.46611945314E+02  0.00000000000E+00 0.  1.
         11    1    3    3    0    0  0.34084722607E+02 -0.81409950812E+01  0.35469349624E+02  0.49860995566E+02  0.00000000000E+00 0. -1.
        -11    1    4    4    0    0  0.54714359507E+02 -0.13040713870E+03 -0.21054025594E+02  0.14297886191E+03  0.00000000000E+00 0. -1.
         11    1    4    4    0    0 -0.33171151089E+02 -0.68295288565E+02 -0.37987606629E+02  0.84897761821E+02  0.00000000000E+00 0.  1.
          1    1    1    2  501    0 -0.42780345052E+02  0.17886745508E+03  0.11412892431E+03  0.21644661183E+03  0.00000000000E+00 0. -1.
<scales pt_clust_5="13000.00000" pt_clust_6="13000.00000" pt_clust_7="13000.00000" pt_clust_8="13000.00000" pt_clust_9="187.80216"></scales>
<clustering>
<clus scale="   91.991">  5  6 -1 -1</clus>
<clus scale="   92.169">  7  8 -1 -1</clus>
<clus scale="   96.472">  2  5  1 -1</clus>
<clus scale="  187.802">  1  9  2 -1</clus>
<clus scale="  187.802">  1  5  2 -1</clus>
</clustering>
</event>
<event>
 9    1  0.1464797E-005  0.4209525E+03  0.7546771E-02  0.1036772E+00
          2   -1    0    0  502    0 -0.00000000000E+00  0.00000000000E+00  0.19127162188E+04  0.19127162188E+04  0.00000000000E+00 0. -1.
         21   -1    0    0  501  502  0.00000000000E+00 -0.00000000000E+00 -0.12922237470E+03  0.12922237470E+03  0.00000000000E+00 0. -1.
         23    2    1    2    0    0 -0.23723183378E+03 -0.29934724245E+03  0.80110101343E+03  0.89210382928E+03  0.90546639797E+02 0.  0.
         23    2    1    2    0    0  0.23666692143E+03  0.37585866563E+03  0.97205156667E+03  0.10726255760E+04  0.91435276347E+02 0.  0.
        -11    1    4    4    0    0  0.10691052804E+02  0.58155776301E+02  0.18645963646E+03  0.19561080992E+03  0.00000000000E+00 0.  1.
         11    1    4    4    0    0  0.22597586863E+03  0.31770288933E+03  0.78559193021E+03  0.87701476607E+03  0.00000000000E+00 0. -1.
        -13    1    3    3    0    0 -0.26834702779E+02 -0.27437686616E+01  0.36054227135E+02  0.45028178222E+02  0.00000000000E+00 0.  1.
         13    1    3    3    0    0 -0.21039713100E+03 -0.29660347379E+03  0.76504678629E+03  0.84707565106E+03  0.00000000000E+00 0. -1.
          2    1    1    2  501    0  0.56491234411E+00 -0.76511423181E+02  0.10341263972E+02  0.77209188208E+02  0.00000000000E+00 0. -1.
<scales pt_clust_5="13000.00000" pt_clust_6="13000.00000" pt_clust_7="13000.00000" pt_clust_8="13000.00000" pt_clust_9="76.51351"></scales>
<clustering>
<clus scale="   76.514">  2  9  1 -1</clus>
<clus scale="   90.547">  7  8 -1 -1</clus>
<clus scale="   91.435">  5  6 -1 -1</clus>
<clus scale="  420.760">  1  7  2 -1</clus>
<clus scale="   76.514">  2  5  1 -1</clus>
</clustering>
</event>
<event>
 9    1  0.1464797E-005  0.1143376E+03  0.7546771E-02  0.1254942E+00
          1   -1    0    0  502    0 -0.00000000000E+00  0.00000000000E+00  0.63568021915E+03  0.63568021915E+03  0.00000000000E+00 0. -1.
         21   -1    0    0  501  502  0.00000000000E+00 -0.00000000000E+00 -0.38119651713E+02  0.38119651713E+02  0.00000000000E+00 0.  1.
         23    2    1    2    0    0 -0.26355895531E+02  0.13211898355E+02  0.22533714672E+03  0.24872213000E+03  0.10107759777E+03 0.  0.
         23    2    1    2    0    0  0.35881286790E+02 -0.83449113163E+02  0.27279557384E+03  0.30297165520E+03  0.95515326087E+02 0.  0.
        -11    1    3    3    0    0 -0.54249471070E+02 -0.10679565265E+02  0.18952471300E+03  0.19742511255E+03  0.00000000000E+00 0.  1.
         11    1    3    3    0    0  0.27893575539E+02  0.23891463620E+02  0.35812433718E+02  0.51297017448E+02  0.00000000000E+00 0. -1.
        -13    1    4    4    0    0 -0.26511507450E+02 -0.43876894961E+02  0.67323863466E+02  0.84620000772E+02  0.00000000000E+00 0.  1.
         13    1    4    4    0    0  0.62392794240E+02 -0.39572218202E+02  0.20547171038E+03  0.21835165443E+03  0.00000000000E+00 0. -1.
          1    1    1    2  501    0 -0.95253912584E+01  0.70237214808E+02  0.99427846873E+02  0.12210608566E+03  0.00000000000E+00 0. -1.
<scales pt_clust_5="13000.00000" pt_clust_6="13000.00000" pt_clust_7="13000.00000" pt_clust_8="13000.00000" pt_clust_9="70.88018"></scales>
<clustering>
<clus scale="   70.880">  2  9  1 -1</clus>
<clus scale="   95.515">  7  8 -1 -1</clus>
<clus scale="  101.078">  5  6 -1 -1</clus>
<clus scale="  109.451">  2  7  1 -1</clus>
<clus scale="   70.880">  2  5  1 -1</clus>
</clustering>
</event>
<event>
 9    1  0.1464797E-005  0.1848629E+03  0.7546771E-02  0.1163993E+00
         21   -1    0    0  501  502  0.00000000000E+00  0.00000000000E+00  0.22267347098E+03  0.22267347098E+03  0.00000000000E+00 0. -1.
          2   -1    0    0  502    0 -0.00000000000E+00 -0.00000000000E+00 -0.22553407210E+03  0.22553407210E+03  0.00000000000E+00 0. -1.
         23    2    1    2    0    0 -0.92487225559E+02 -0.10330693339E+03 -0.17677104693E+02  0.16609874304E+03  0.89722366393E+02 0.  0.
         23    2    1    2    0    0  0.12385901579E+03  0.14654348775E+03  0.46838720124E+02  0.21982709159E+03  0.96509247739E+02 0.  0.
        -13    1    4    4    0    0  0.68105387790E+02  0.53576944191E+02  0.67038260684E+02  0.10955802659E+03  0.00000000000E+00 0.  1.
         13    1    4    4    0    0  0.55753627997E+02  0.92966543563E+02 -0.20199540560E+02  0.11026906500E+03  0.00000000000E+00 0. -1.
        -13    1    3    3    0    0 -0.58749347071E+02 -0.12148035403E+02 -0.31762599783E+02  0.67881685972E+02  0.00000000000E+00 0. -1.
         13    1    3    3    0    0 -0.33737878488E+02 -0.91158897989E+02  0.14085495090E+02  0.98217057069E+02  0.00000000000E+00 0.  1.
          2    1    1    2  501    0 -0.31371790228E+02 -0.43236554363E+02 -0.32022216552E+02  0.62281708456E+02  0.00000000000E+00 0. -1.
<scales pt_clust_5="13000.00000" pt_clust_6="13000.00000" pt_clust_7="13000.00000" pt_clust_8="13000.00000" pt_clust_9="53.41902"></scales>
<clustering>
<clus scale="   53.419">  1  9  2 -1</clus>
<clus scale="   89.722">  7  8 -1 -1</clus>
<clus scale="   96.509">  5  6 -1 -1</clus>
<clus scale="  181.412">  2  7  1 -1</clus>
<clus scale="   53.419">  1  5  2 -1</clus>
</clustering>
</event>
<event>
 9    1  0.1464797E-005  0.1140084E+03  0.7546771E-02  0.1253538E+00
         21   -1    0    0  501  502  0.00000000000E+00  0.00000000000E+00  0.43670911507E+03  0.43670911507E+03  0.00000000000E+00 0. -1.
          1   -1    0    0  502    0 -0.00000000000E+00 -0.00000000000E+00 -0.87677533926E+02  0.87677533926E+02  0.00000000000E+00 0. -1.
         23    2    1    2    0    0  0.62160876374E+02  0.27797794205E+02 -0.54398130004E+01  0.11440157474E+03  0.91768386836E+02 0.  0.
         23    2    1    2    0    0 -0.76583100947E+02  0.35453719647E+02  0.14926087485E+03  0.19476399770E+03  0.92370279047E+02 0.  0.
        -11    1    4    4    0    0 -0.67930378904E+02  0.63123371802E+02  0.13100595033E+03  0.16050437834E+03  0.00000000000E+00 0. -1.
         11    1    4    4    0    0 -0.86527220437E+01 -0.27669652155E+02  0.18254924519E+02  0.34259619355E+02  0.00000000000E+00 0.  1.
        -13    1    3    3    0    0  0.32517867878E+02 -0.33034075005E+02 -0.59180645405E+01  0.46729919010E+02  0.00000000000E+00 0.  1.
         13    1    3    3    0    0  0.29643008497E+02  0.60831869210E+02  0.47825154010E+00  0.67671655727E+02  0.00000000000E+00 0. -1.
          1    1    1    2  501    0  0.14422224573E+02 -0.63251513852E+02  0.20521051930E+03  0.21522107656E+03  0.00000000000E+00 0. -1.
<scales pt_clust_5="13000.00000" pt_clust_6="13000.00000" pt_clust_7="13000.00000" pt_clust_8="13000.00000" pt_clust_9="64.87491"></scales>
<clustering>
<clus scale="   64.875">  1  9  2 -1</clus>
<clus scale="   91.768">  7  8 -1 -1</clus>
<clus scale="   92.370">  5  6 -1 -1</clus>
<clus scale="  113.521">  2  7  1 -1</clus>
<clus scale="   64.875">  1  5  2 -1</clus>
</clustering>
</event>
<event>
 9    1  0.1464797E-005  0.9693906E+02  0.7546771E-02  0.1290842E+00
         -3   -1    0    0    0  501 -0.00000000000E+00  0.00000000000E+00  0.33077081076E+03  0.33077081076E+03  0.00000000000E+00 0.  1.
         21   -1    0    0  501  502  0.00000000000E+00 -0.00000000000E+00 -0.66038854958E+02  0.66038854958E+02  0.00000000000E+00 0.  1.
         23    2    1    2    0    0 -0.16055059699E+02  0.24106514008E+02  0.15350967199E+03  0.18106959612E+03  0.91553756252E+02 0.  0.
         23    2    1    2    0    0 -0.18567673277E+01 -0.37836100769E+02  0.14692689500E+03  0.17350081818E+03  0.84142755656E+02 0.  0.
        -11    1    3    3    0    0  0.21609374522E+02  0.14457901591E+02  0.36579061657E+01  0.26255975761E+02  0.00000000000E+00 0. -1.
         11    1    3    3    0    0 -0.37664434221E+02  0.96486124175E+01  0.14985176583E+03  0.15481362036E+03  0.00000000000E+00 0.  1.
        -13    1    4    4    0    0 -0.25348259347E+02 -0.41169098297E+02  0.14098083496E+03  0.14904034599E+03  0.00000000000E+00 0.  1.
         13    1    4    4    0    0  0.23491492019E+02  0.33329975279E+01  0.59460600368E+01  0.24460472190E+02  0.00000000000E+00 0. -1.
         -3    1    1    2    0  502  0.17911827026E+02  0.13729586761E+02 -0.35704611190E+02  0.42239251417E+02  0.00000000000E+00 0.  1.
<scales pt_clust_5="13000.00000" pt_clust_6="13000.00000" pt_clust_7="13000.00000" pt_clust_8="13000.00000" pt_clust_9="22.56845"></scales>
<clustering>
<clus scale="   22.568">  2  9  1 -1</clus>
<clus scale="   84.143">  7  8 -1 -1</clus>
<clus scale="   89.973">  2  7  1 -1</clus>
<clus scale="   91.554">  5  6 -1 -1</clus>
<clus scale="   22.568">  2  5  1 -1</clus>
</clustering>
</event>
<event>
 9    1  0.1464797E-005  0.9929494E+02  0.7546771E-02  0.1281942E+00
          1   -1    0    0  502    0 -0.00000000000E+00  0.00000000000E+00  0.19699659691E+03  0.19699659691E+03  0.00000000000E+00 0. -1.
         21   -1    0    0  501  502  0.00000000000E+00 -0.00000000000E+00 -0.45572067812E+03  0.45572067812E+03  0.00000000000E+00 0. -1.
         23    2    1    2    0    0 -0.32715936993E+02  0.10883355883E+02  0.13398238857E+03  0.16535868130E+03  0.90572805330E+02 0.  0.
         23    2    1    2    0    0  0.10532926582E+03  0.46338854002E+02 -0.92029351878E+02  0.17278935485E+03  0.90250849928E+02 0.  0.
        -13    1    3    3    0    0 -0.39534872013E+02 -0.13592196424E+02  0.13355722145E+03  0.13994743767E+03  0.00000000000E+00 0. -1.
         13    1    3    3    0    0  0.68189350197E+01  0.24475552307E+02  0.42516711574E+00  0.25411243626E+02  0.00000000000E+00 0.  1.
        -13    1    4    4    0    0  0.59489252782E+02  0.48035906570E+02 -0.77736970838E+01  0.76856033484E+02  0.00000000000E+00 0.  1.
         13    1    4    4    0    0  0.45840013039E+02 -0.16970525681E+01 -0.84255654795E+02  0.95933321363E+02  0.00000000000E+00 0. -1.
          1    1    1    2  501    0 -0.72613328828E+02 -0.57222209885E+02 -0.30067711790E+03  0.31456923889E+03  0.00000000000E+00 0. -1.
<scales pt_clust_5="13000.00000" pt_clust_6="13000.00000" pt_clust_7="13000.00000" pt_clust_8="13000.00000" pt_clust_9="92.45040"></scales>
<clustering>
<clus scale="   90.251">  7  8 -1 -1</clus>
<clus scale="   90.573">  5  6 -1 -1</clus>
<clus scale="   92.450">  2  9  1 -1</clus>
<clus scale="   99.001">  2  7  1 -1</clus>
<clus scale="   92.450">  2  5  1 -1</clus>
</clustering>
</event>
<event>
 9    1  0.1464797E-005  0.1165694E+03  0.7546771E-02  0.1248935E+00
         21   -1    0    0  501  502  0.00000000000E+00  0.00000000000E+00  0.14788580996E+03  0.14788580996E+03  0.00000000000E+00 0.  1.
          1   -1    0    0  502    0 -0.00000000000E+00 -0.00000000000E+00 -0.33962721801E+03  0.33962721801E+03  0.00000000000E+00 0. -1.
         23    2    1    2    0    0  0.56076343846E+02  0.30520147746E+02 -0.17164618905E+03  0.20528987844E+03  0.92765749158E+02 0.  0.
         23    2    1    2    0    0 -0.12884712179E+03 -0.20263041902E+00  0.60209376745E+02  0.16969063833E+03  0.92564149851E+02 0.  0.
        -11    1    4    4    0    0 -0.99386004818E+02  0.26775338320E+02  0.70169940807E+01  0.10316847824E+03  0.00000000000E+00 0. -1.
         11    1    4    4    0    0 -0.29461116973E+02 -0.26977968739E+02  0.53192382664E+02  0.66522160098E+02  0.00000000000E+00 0.  1.
        -11    1    3    3    0    0 -0.19551470616E+02  0.22592703667E+02 -0.84525302381E+02  0.89650527075E+02  0.00000000000E+00 0.  1.
         11    1    3    3    0    0  0.75627814463E+02  0.79274440792E+01 -0.87120886669E+02  0.11563935136E+03  0.00000000000E+00 0. -1.
          1    1    1    2  501    0  0.72770777944E+02 -0.30317517327E+02 -0.80304595741E+02  0.11253251120E+03  0.00000000000E+00 0. -1.
<scales pt_clust_5="13000.00000" pt_clust_6="13000.00000" pt_clust_7="13000.00000" pt_clust_8="13000.00000" pt_clust_9="78.83365"></scales>
<clustering>
<clus scale="   78.834">  1  9  2 -1</clus>
<clus scale="   92.564">  5  6 -1 -1</clus>
<clus scale="   92.766">  7  8 -1 -1</clus>
<clus scale="  116.409">  1  5  2 -1</clus>
<clus scale="   78.834">  1  5  2 -1</clus>
</clustering>
</event>
<event>
 9    1  0.1464797E-005  0.1266709E+03  0.7546771E-02  0.1233394E+00
         21   -1    0    0  501  502  0.00000000000E+00  0.00000000000E+00  0.81507383470E+02  0.81507383470E+02  0.00000000000E+00 0.  1.
          2   -1    0    0  502    0 -0.00000000000E+00 -0.00000000000E+00 -0.34803388042E+03  0.34803388042E+03  0.00000000000E+00 0. -1.
         23    2    1    2    0    0  0.77464603551E+02  0.24930557359E+02 -0.18778295474E+03  0.22337978465E+03  0.89519788895E+02 0.  0.
         23    2    1    2    0    0 -0.96205941757E+02 -0.88448529343E+01 -0.10494546621E+03  0.17015414019E+03  0.92763494407E+02 0.  0.
        -11    1    3    3    0    0  0.10052523239E+01  0.38061670059E+02 -0.95560996850E+02  0.10286693044E+03  0.00000000000E+00 0.  1.
         11    1    3    3    0    0  0.76459351227E+02 -0.13131112700E+02 -0.92221957893E+02  0.12051285420E+03  0.00000000000E+00 0. -1.
        -13    1    4    4    0    0 -0.51928147825E+02 -0.50597259927E+02 -0.49170841010E+02  0.87603577863E+02  0.00000000000E+00 0. -1.
         13    1    4    4    0    0 -0.44277793933E+02  0.41752406993E+02 -0.55774625196E+02  0.82550562330E+02  0.00000000000E+00 0.  1.
          2    1    1    2  501    0  0.18741338206E+02 -0.16085704425E+02  0.26201923996E+02  0.36007339053E+02  0.00000000000E+00 0. -1.
<scales pt_clust_5="13000.00000" pt_clust_6="13000.00000" pt_clust_7="13000.00000" pt_clust_8="13000.00000" pt_clust_9="24.69793"></scales>
<clustering>
<clus scale="   24.698">  1  9  2 -1</clus>
<clus scale="   89.520">  5  6 -1 -1</clus>
<clus scale="   92.763">  7  8 -1 -1</clus>
<clus scale="  124.315">  2  5  1 -1</clus>
<clus scale="   24.698">  1  5  2 -1</clus>
</clustering>
</event>
<event>
 9    1  0.1464797E-005  0.1859633E+03  0.7546771E-02  0.1162294E+00
          2   -1    0    0  502    0 -0.00000000000E+00  0.00000000000E+00  0.14935757912E+04  0.14935757912E+04  0.00000000000E+00 0. -1.
         21   -1    0    0  501  502  0.00000000000E+00 -0.00000000000E+00 -0.43415537394E+02  0.43415537394E+02  0.00000000000E+00 0.  1.
         23    2    1    2    0    0 -0.28867498874E+02 -0.14255706260E+03  0.67484770723E+03  0.69618121183E+03  0.89961120294E+02 0.  0.
         23    2    1    2    0    0  0.11041192215E+01  0.18704549695E+03  0.75773073961E+03  0.78550056988E+03  0.88701942059E+02 0.  0.
        -11    1    4    4    0    0 -0.35657406113E+02  0.48395049059E+02  0.16344237196E+03  0.17414631876E+03  0.00000000000E+00 0. -1.
         11    1    4    4    0    0  0.36761525335E+02  0.13865044789E+03  0.59428836765E+03  0.61135425112E+03  0.00000000000E+00 0.  1.
        -13    1    3    3    0    0  0.62927949535E+01 -0.32987548639E+02  0.46357547550E+02  0.57243338900E+02  0.00000000000E+00 0.  1.
         13    1    3    3    0    0 -0.35160293828E+02 -0.10956951397E+03  0.62849015968E+03  0.63893787293E+03  0.00000000000E+00 0. -1.
          2    1    1    2  501    0  0.27763379653E+02 -0.44488434343E+02  0.17581806966E+02  0.55309546881E+02  0.00000000000E+00 0. -1.
<scales pt_clust_5="13000.00000" pt_clust_6="13000.00000" pt_clust_7="13000.00000" pt_clust_8="13000.00000" pt_clust_9="52.44069"></scales>
<clustering>
<clus scale="   52.441">  2  9  1 -1</clus>
<clus scale="   88.702">  5  6 -1 -1</clus>
<clus scale="   89.961">  7  8 -1 -1</clus>
<clus scale="  185.357">  2  5  1 -1</clus>
<clus scale="   52.441">  2  5  1 -1</clus>
</clustering>
</event>
<event>
 9    1  0.1464797E-005  0.9156798E+02  0.7546771E-02  0.1301870E+00
          2   -1    0    0  502    0 -0.00000000000E+00  0.00000000000E+00  0.66973816039E+03  0.66973816039E+03  0.00000000000E+00 0. -1.
         21   -1    0    0  501  502  0.00000000000E+00 -0.00000000000E+00 -0.28246181976E+02  0.28246181976E+02  0.00000000000E+00 0. -1.
         23    2    1    2    0    0 -0.32933454033E+01  0.11071495258E+01  0.30268894101E+03  0.31465640895E+03  0.85883576882E+02 0.  0.
         23    2    1    2    0    0 -0.19563610579E+02 -0.23489395426E+02  0.33809472142E+03  0.35132938533E+03  0.90497567855E+02 0.  0.
        -11    1    3    3    0    0  0.28745453672E+02  0.24199708032E+02  0.78673685398E+02  0.87186442465E+02  0.00000000000E+00 0.  1.
         11    1    3    3    0    0 -0.32038799075E+02 -0.23092558507E+02  0.22401525561E+03  0.22746996648E+03  0.00000000000E+00 0. -1.
        -13    1    4    4    0    0  0.18171339351E+01  0.24511574601E+02  0.29987408403E+02  0.38773237263E+02  0.00000000000E+00 0.  1.
         13    1    4    4    0    0 -0.21380744514E+02 -0.48000970027E+02  0.30810731302E+03  0.31255614807E+03  0.00000000000E+00 0. -1.
          2    1    1    2  501    0  0.22856955983E+02  0.22382245901E+02  0.70831598438E+00  0.31998548090E+02  0.00000000000E+00 0. -1.
<scales pt_clust_5="13000.00000" pt_clust_6="13000.00000" pt_clust_7="13000.00000" pt_clust_8="13000.00000" pt_clust_9="31.99071"></scales>
<clustering>
<clus scale="   31.991">  2  9  1 -1</clus>
<clus scale="   85.884">  5  6 -1 -1</clus>
<clus scale="   87.011">  1  5  2 -1</clus>
<clus scale="   90.498">  7  8 -1 -1</clus>
<clus scale="   31.991">  2  5  1 -1</clus>
</clustering>
</event>
<event>
 9    1  0.1464797E-005  0.1742220E+03  0.7546771E-02  0.1173665E+00
         21   -1    0    0  501  502  0.00000000000E+00  0.00000000000E+00  0.44724648167E+03  0.44724648167E+03  0.00000000000E+00 0.  1.
          1   -1    0    0  502    0 -0.00000000000E+00 -0.00000000000E+00 -0.13603644151E+03  0.13603644151E+03  0.00000000000E+00 0. -1.
         23    2    1    2    0    0 -0.75562720932E+02 -0.13186120467E+03 -0.44499021630E+02  0.18242810305E+03  0.90569022107E+02 0.  0.
         23    2    1    2    0    0  0.74667249853E+02  0.10648555206E+03  0.31410408501E+03  0.35211367009E+03  0.91696725362E+02 0.  0.
        -13    1    3    3    0    0 -0.80361088344E+01 -0.10289318925E+03 -0.30599463685E+02  0.10764717654E+03  0.00000000000E+00 0.  1.
         13    1    3    3    0    0 -0.67526612098E+02 -0.28968015419E+02 -0.13899557945E+02  0.74780926511E+02  0.00000000000E+00 0. -1.
        -13    1    4    4    0    0  0.15183723706E+02  0.46679368026E+02  0.34330054336E+02  0.59900429844E+02  0.00000000000E+00 0. -1.
         13    1    4    4    0    0  0.59483526147E+02  0.59806184036E+02  0.27977403068E+03  0.29221324024E+03  0.00000000000E+00 0.  1.
          1    1    1    2  501    0  0.89547107950E+00  0.25375652610E+02  0.41604976784E+02  0.48741150038E+02  0.00000000000E+00 0. -1.
<scales pt_clust_5="13000.00000" pt_clust_6="13000.00000" pt_clust_7="13000.00000" pt_clust_8="13000.00000" pt_clust_9="25.39145"></scales>
<clustering>
<clus scale="   25.391">  1  9  2 -1</clus>
<clus scale="   90.569">  5  6 -1 -1</clus>
<clus scale="   91.697">  7  8 -1 -1</clus>
<clus scale="  173.631">  2  5  1 -1</clus>
<clus scale="   25.391">  1  5  2 -1</clus>
</clustering>
</event>
<event>
 9    1  0.1464797E-005  0.9089950E+02  0.7546771E-02  0.1301214E+00
         21   -1    0    0  501  502  0.00000000000E+00  0.00000000000E+00  0.77914302012E+02  0.77914302012E+02  0.00000000000E+00 0.  1.
         -4   -1    0    0    0  501 -0.00000000000E+00 -0.00000000000E+00 -0.32982305261E+03  0.32982305261E+03  0.00000000000E+00 0.  1.
         23    2    1    2    0    0  0.26916095552E+01  0.36443747353E+01 -0.23058496417E+03  0.24781074540E+03  0.90665393656E+02 0.  0.
         23    2    1    2    0    0 -0.13876197294E+02  0.25487738357E+02 -0.58783005079E+02  0.11117244962E+03  0.89786960138E+02 0.  0.
        -11    1    4    4    0    0 -0.10763937030E+02 -0.33399579939E+02 -0.26259421409E+02  0.43828660637E+02  0.00000000000E+00 0. -1.
         11    1    4    4    0    0 -0.31122602638E+01  0.58887318296E+02 -0.32523583670E+02  0.67343788985E+02  0.00000000000E+00 0.  1.
        -13    1    3    3    0    0 -0.35280656319E+02  0.26015006718E+02 -0.14591895007E+03  0.15236090468E+03  0.00000000000E+00 0.  1.
         13    1    3    3    0    0  0.37972265874E+02 -0.22370631982E+02 -0.84666014101E+02  0.95449840726E+02  0.00000000000E+00 0. -1.
         -4    1    1    2    0  502  0.11184587739E+02 -0.29132113093E+02  0.37459218651E+02  0.48754159598E+02  0.00000000000E+00 0.  1.
<scales pt_clust_5="13000.00000" pt_clust_6="13000.00000" pt_clust_7="13000.00000" pt_clust_8="13000.00000" pt_clust_9="31.20537"></scales>
<clustering>
<clus scale="   31.205">  1  9  2 -1</clus>
<clus scale="   89.787">  5  6 -1 -1</clus>
<clus scale="   90.023">  1  5  2 -1</clus>
<clus scale="   90.665">  7  8 -1 -1</clus>
<clus scale="   31.205">  1  5  2 -1</clus>
</clustering>
</event>
<event>
 9    1  0.1464797E-005  0.1144187E+03  0.7546771E-02  0.1254177E+00
         21   -1    0    0  501  502  0.00000000000E+00  0.00000000000E+00  0.17382656479E+03  0.17382656479E+03  0.00000000000E+00 0. -1.
          2   -1    0    0  502    0 -0.00000000000E+00 -0.00000000000E+00 -0.10716407301E+03  0.10716407301E+03  0.00000000000E+00 0. -1.
         23    2    1    2    0    0  0.58524375719E+02 -0.28786393926E+02 -0.25365735904E+02  0.11796682028E+03  0.94968368945E+02 0.  0.
         23    2    1    2    0    0 -0.33938649380E+02  0.23978834870E+02  0.62455350051E+02  0.12426655169E+03  0.99069110598E+02 0.  0.
        -11    1    4    4    0    0 -0.18035637409E+02 -0.31301050295E+02  0.55644697202E+02  0.66342839049E+02  0.00000000000E+00 0. -1.
         11    1    4    4    0    0 -0.15903011971E+02  0.55279885165E+02  0.68106528484E+01  0.57923712638E+02  0.00000000000E+00 0.  1.
        -13    1    3    3    0    0  0.14215471738E+02 -0.59228070496E+02 -0.77796024513E+01  0.61404936167E+02  0.00000000000E+00 0.  1.
         13    1    3    3    0    0  0.44308903982E+02  0.30441676570E+02 -0.17586133453E+02  0.56561884112E+02  0.00000000000E+00 0. -1.
          2    1    1    2  501    0 -0.24585726339E+02  0.48075590555E+01  0.29572877626E+02  0.38757265832E+02  0.00000000000E+00 0. -1.
<scales pt_clust_5="13000.00000" pt_clust_6="13000.00000" pt_clust_7="13000.00000" pt_clust_8="13000.00000" pt_clust_9="25.05136"></scales>
<clustering>
<clus scale="   25.051">  1  9  2 -1</clus>
<clus scale="   94.968">  7  8 -1 -1</clus>
<clus scale="   99.069">  5  6 -1 -1</clus>
<clus scale="  110.887">  2  7  1 -1</clus>
<clus scale="   25.051">  1  5  2 -1</clus>
</clustering>
</event>
<event>
 9    1  0.1464797E-005  0.9758230E+02  0.7546771E-02  0.1285838E+00
         -1   -1    0    0    0  501 -0.00000000000E+00  0.00000000000E+00  0.93458697216E+02  0.93458697216E+02  0.00000000000E+00 0.  1.
         21   -1    0    0  501  502  0.00000000000E+00 -0.00000000000E+00 -0.27909129425E+03  0.27909129425E+03  0.00000000000E+00 0. -1.
         23    2    1    2    0    0  0.49091694696E+01  0.40821238203E+02  0.40191027570E+02  0.10699773236E+03  0.90237035638E+02 0.  0.
         23    2    1    2    0    0 -0.12302673503E+02 -0.22086913104E+02 -0.94105254803E+02  0.13230298975E+03  0.89493545077E+02 0.  0.
        -13    1    3    3    0    0  0.13271413659E+02 -0.21334310774E+02 -0.96239569152E+01  0.26905460104E+02  0.00000000000E+00 0.  1.
         13    1    3    3    0    0 -0.83622441896E+01  0.62155548977E+02  0.49814984485E+02  0.80092272260E+02  0.00000000000E+00 0. -1.
        -13    1    4    4    0    0  0.20999160286E+02 -0.46912609404E+02 -0.49655582289E+02  0.71466317285E+02  0.00000000000E+00 0.  1.
         13    1    4    4    0    0 -0.33301833789E+02  0.24825696300E+02 -0.44449672514E+02  0.60836672469E+02  0.00000000000E+00 0. -1.
         -1    1    1    2    0  502  0.73935040331E+01 -0.18734325099E+02 -0.13171836980E+03  0.13324926935E+03  0.00000000000E+00 0.  1.
<scales pt_clust_5="13000.00000" pt_clust_6="13000.00000" pt_clust_7="13000.00000" pt_clust_8="13000.00000" pt_clust_9="20.14048"></scales>
<clustering>
<clus scale="   20.140">  2  9  1 -1</clus>
<clus scale="   89.494">  7  8 -1 -1</clus>
<clus scale="   90.237">  5  6 -1 -1</clus>
<clus scale="   96.895">  2  7  1 -1</clus>
<clus scale="   20.140">  2  5  1 -1</clus>
</clustering>
</event>
<event>
 9    1  0.1464797E-005  0.9746046E+02  0.7546771E-02  0.1288719E+00
         21   -1    0    0  501  502  0.00000000000E+00  0.00000000000E+00  0.35505231043E+03  0.35505231043E+03  0.00000000000E+00 0.  1.
          2   -1    0    0  502    0 -0.00000000000E+00 -0.00000000000E+00 -0.25879702035E+03  0.25879702035E+03  0.00000000000E+00 0. -1.
         23    2    1    2    0    0 -0.26647572982E+02 -0.48032387918E-01 -0.19911633866E+03  0.22147252040E+03  0.93234465284E+02 0.  0.
         23    2    1    2    0    0  0.78545729560E+02 -0.19452232191E+02  0.31238351734E+03  0.33438471326E+03  0.87646184094E+02 0.  0.
        -11    1    3    3    0    0 -0.52839324981E+02  0.24229316073E+02 -0.14896493279E+03  0.15990498811E+03  0.00000000000E+00 0. -1.
         11    1    3    3    0    0  0.26191751999E+02 -0.24277348461E+02 -0.50151405875E+02  0.61567532290E+02  0.00000000000E+00 0.  1.
        -13    1    4    4    0    0  0.63795560127E+02 -0.33441426775E+01  0.30455499480E+03  0.31118290705E+03  0.00000000000E+00 0.  1.
         13    1    4    4    0    0  0.14750169433E+02 -0.16108089514E+02  0.78285225353E+01  0.23201806205E+02  0.00000000000E+00 0. -1.
          2    1    1    2  501    0 -0.51898156578E+02  0.19500264579E+02 -0.17011888600E+02  0.57992097122E+02  0.00000000000E+00 0. -1.
<scales pt_clust_5="13000.00000" pt_clust_6="13000.00000" pt_clust_7="13000.00000" pt_clust_8="13000.00000" pt_clust_9="55.44080"></scales>
<clustering>
<clus scale="   55.441">  1  9  2 -1</clus>
<clus scale="   87.646">  7  8 -1 -1</clus>
<clus scale="   92.129">  1  7  2 -1</clus>
<clus scale="   93.234">  5  6 -1 -1</clus>
<clus scale="   55.441">  1  5  2 -1</clus>
</clustering>
</event>
<event>
 9    1  0.1464797E-005  0.1759132E+03  0.7546771E-02  0.1171894E+00
          4   -1    0    0  502    0 -0.00000000000E+00  0.00000000000E+00  0.94642520605E+03  0.94642520605E+03  0.00000000000E+00 0. -1.
         21   -1    0    0  501  502  0.00000000000E+00 -0.00000000000E+00 -0.58548999571E+02  0.58548999571E+02  0.00000000000E+00 0. -1.
         23    2    1    2    0    0  0.10712927164E+03 -0.38558893259E+02  0.27687495055E+03  0.31353008885E+03  0.93155296586E+02 0.  0.
         23    2    1    2    0    0 -0.15718463144E+03  0.12140278740E+03  0.48789126994E+03  0.53484041793E+03  0.92578270764E+02 0.  0.
        -13    1    4    4    0    0 -0.13396341825E+02 -0.15562599749E+02  0.44202243463E+02  0.48739048128E+02  0.00000000000E+00 0.  1.
         13    1    4    4    0    0 -0.14378828961E+03  0.13696538714E+03  0.44368902648E+03  0.48610136980E+03  0.00000000000E+00 0. -1.
        -13    1    3    3    0    0  0.46281283688E+02  0.15021886956E+02  0.39442054315E+02  0.62636171308E+02  0.00000000000E+00 0.  1.
         13    1    3    3    0    0  0.60847987953E+02 -0.53580780216E+02  0.23743289623E+03  0.25089391754E+03  0.00000000000E+00 0. -1.
          4    1    1    2  501    0  0.50055359798E+02 -0.82843894137E+02  0.12310998599E+03  0.15660369884E+03  0.00000000000E+00 0. -1.
<scales pt_clust_5="13000.00000" pt_clust_6="13000.00000" pt_clust_7="13000.00000" pt_clust_8="13000.00000" pt_clust_9="96.79179"></scales>
<clustering>
<clus scale="   92.578">  5  6 -1 -1</clus>
<clus scale="   93.155">  7  8 -1 -1</clus>
<clus scale="   96.792">  2  9  1 -1</clus>
<clus scale="  175.608">  2  5  1 -1</clus>
<clus scale="   96.792">  2  5  1 -1</clus>
</clustering>
</event>
<event>
 9    1  0.1464797E-005  0.1753678E+03  0.7546771E-02  0.1173698E+00
          1   -1    0    0  502    0 -0.00000000000E+00  0.00000000000E+00  0.57706363281E+03  0.57706363281E+03  0.00000000000E+00 0. -1.
         21   -1    0    0  501  502  0.00000000000E+00 -0.00000000000E+00 -0.97610098464E+02  0.97610098464E+02  0.00000000000E+00 0.  1.
         23    2    1    2    0    0 -0.11368404163E+03 -0.75786130120E+02  0.29112486235E+03  0.33449644634E+03  0.92014065739E+02 0.  0.
         23    2    1    2    0    0  0.13556424271E+03  0.71290889884E+02  0.22912647958E+03  0.29366479750E+03  0.10139040768E+03 0.  0.
        -11    1    4    4    0    0  0.29426355492E+02 -0.20791968112E+02  0.18589487407E+02  0.40543623143E+02  0.00000000000E+00 0. -1.
         11    1    4    4    0    0  0.10613788722E+03  0.92082857996E+02  0.21053699217E+03  0.25312117436E+03  0.00000000000E+00 0.  1.
        -13    1    3    3    0    0 -0.23886865165E+02  0.11237192238E+02  0.12729284653E+02  0.29306850813E+02  0.00000000000E+00 0.  1.
         13    1    3    3    0    0 -0.89797176469E+02 -0.87023322357E+02  0.27839557770E+03  0.30518959553E+03  0.00000000000E+00 0. -1.
          1    1    1    2  501    0 -0.21880201074E+02  0.44952402352E+01 -0.40797807579E+02  0.46512487431E+02  0.00000000000E+00 0. -1.
<scales pt_clust_5="13000.00000" pt_clust_6="13000.00000" pt_clust_7="13000.00000" pt_clust_8="13000.00000" pt_clust_9="22.33720"></scales>
<clustering>
<clus scale="   22.337">  2  9  1 -1</clus>
<clus scale="   92.014">  7  8 -1 -1</clus>
<clus scale="  101.390">  5  6 -1 -1</clus>
<clus scale="  170.119">  1  7  2 -1</clus>
<clus scale="   22.337">  2  5  1 -1</clus>
</clustering>
</event>
<event>
 9    1  0.1464797E-005  0.1305797E+03  0.7546771E-02  0.1231551E+00
          1   -1    0    0  502    0 -0.00000000000E+00  0.00000000000E+00  0.17177878221E+03  0.17177878221E+03  0.00000000000E+00 0. -1.
         21   -1    0    0  501  502  0.00000000000E+00 -0.00000000000E+00 -0.23420183306E+03  0.23420183306E+03  0.00000000000E+00 0. -1.
         23    2    1    2    0    0 -0.19006533198E+00  0.26188907245E+02 -0.18308744924E+02  0.11195434392E+03  0.10729711084E+03 0.  0.
         23    2    1    2    0    0 -0.83855902798E+02 -0.92858709749E+02  0.37275050304E+02  0.15936813149E+03  0.91401419835E+02 0.  0.
        -11    1    4    4    0    0 -0.99453996465E+02 -0.69971756651E+02  0.12563376899E+02  0.12224967313E+03  0.00000000000E+00 0. -1.
         11    1    4    4    0    0  0.15598093667E+02 -0.22886953099E+02  0.24711673405E+02  0.37118458355E+02  0.00000000000E+00 0.  1.
        -13    1    3    3    0    0 -0.40467999903E+02  0.26693455032E+02 -0.42921270738E+02  0.64749015741E+02  0.00000000000E+00 0. -1.
         13    1    3    3    0    0  0.40277934571E+02 -0.50454778716E+00  0.24612525813E+02  0.47205328181E+02  0.00000000000E+00 0.  1.
          1    1    1    2  501    0  0.84045968130E+02  0.66669802504E+02 -0.81389356231E+02  0.13465813987E+03  0.00000000000E+00 0. -1.
<scales pt_clust_5="13000.00000" pt_clust_6="13000.00000" pt_clust_7="13000.00000" pt_clust_8="13000.00000" pt_clust_9="107.27808"></scales>
<clustering>
<clus scale="   91.401">  5  6 -1 -1</clus>
<clus scale="  107.278">  2  9  1 -1</clus>
<clus scale="  107.297">  7  8 -1 -1</clus>
<clus scale="  117.867">  2  5  1 -1</clus>
<clus scale="  107.278">  2  5  1 -1</clus>
</clustering>
</event>
<event>
 9    1  0.1464797E-005  0.9441021E+02  0.7546771E-02  0.1293046E+00
         21   -1    0    0  501  502  0.00000000000E+00  0.00000000000E+00  0.10732869967E+03  0.10732869967E+03  0.00000000000E+00 0.  1.
          1   -1    0    0  502    0 -0.00000000000E+00 -0.00000000000E+00 -0.15507164459E+03  0.15507164459E+03  0.00000000000E+00 0. -1.
         23    2    1    2    0    0 -0.11901290930E+02  0.19629370180E+02 -0.75507030864E+02  0.12083887661E+03  0.91508302856E+02 0.  0.
         23    2    1    2    0    0 -0.65133189961E+01 -0.28008065286E+02 -0.13166188208E+02  0.95904182004E+02  0.90539431015E+02 0.  0.
        -11    1    4    4    0    0 -0.12188790558E+02  0.32082324055E+02 -0.85584781887E+01  0.35370746118E+02  0.00000000000E+00 0.  1.
         11    1    4    4    0    0  0.56754715623E+01 -0.60090389341E+02 -0.46077100191E+01  0.60533435886E+02  0.00000000000E+00 0. -1.
        -11    1    3    3    0    0 -0.10098124314E+02 -0.33316632823E+02 -0.92781342417E+01  0.36028515267E+02  0.00000000000E+00 0.  1.
         11    1    3    3    0    0 -0.18031666156E+01  0.52946003003E+02 -0.66228896622E+02  0.84810361346E+02  0.00000000000E+00 0. -1.
          1    1    1    2  501    0  0.18414609926E+02  0.83786951063E+01  0.40930274156E+02  0.45657285649E+02  0.00000000000E+00 0. -1.
<scales pt_clust_5="13000.00000" pt_clust_6="13000.00000" pt_clust_7="13000.00000" pt_clust_8="13000.00000" pt_clust_9="20.23117"></scales>
<clustering>
<clus scale="   20.231">  1  9  2 -1</clus>
<clus scale="   90.539">  5  6 -1 -1</clus>
<clus scale="   91.508">  7  8 -1 -1</clus>
<clus scale="   93.471">  1  5  2 -1</clus>
<clus scale="   20.231">  1  5  2 -1</clus>
</clustering>
</event>
<event>
 9    1  0.1464797E-005  0.1090412E+03  0.7546771E-02  0.1262499E+00
          3   -1    0    0  502    0 -0.00000000000E+00  0.00000000000E+00  0.20037901456E+03  0.20037901456E+03  0.00000000000E+00 0. -1.
         21   -1    0    0  501  502  0.00000000000E+00 -0.00000000000E+00 -0.11258470256E+03  0.11258470256E+03  0.00000000000E+00 0.  1.
         23    2    1    2    0    0  0.28112606909E+02 -0.55808248181E+02  0.11187129746E+03  0.15741526504E+03  0.91430297171E+02 0.  0.
         23    2    1    2    0    0 -0.40258496936E+01  0.54338291650E+02  0.16818590980E+02  0.10806391968E+03  0.91793727066E+02 0.  0.
        -13    1    3    3    0    0  0.54138344949E+02 -0.55932627724E+02  0.56352772351E+02  0.96099189328E+02  0.00000000000E+00 0.  1.
         13    1    3    3    0    0 -0.26025738039E+02  0.12437954372E+00  0.55518525106E+02  0.61316075712E+02  0.00000000000E+00 0. -1.
        -13    1    4    4    0    0 -0.12275844621E+02 -0.20521136412E+02  0.22106990226E+02  0.32565816705E+02  0.00000000000E+00 0.  1.
         13    1    4    4    0    0  0.82499949279E+01  0.74859428062E+02 -0.52883992458E+01  0.75498102974E+02  0.00000000000E+00 0. -1.
          3    1    1    2  501    0 -0.24086757216E+02  0.14699565310E+01 -0.40895576434E+02  0.47484532400E+02  0.00000000000E+00 0. -1.
<scales pt_clust_5="13000.00000" pt_clust_6="13000.00000" pt_clust_7="13000.00000" pt_clust_8="13000.00000" pt_clust_9="24.13157"></scales>
<clustering>
<clus scale="   24.132">  2  9  1 -1</clus>
<clus scale="   91.430">  5  6 -1 -1</clus>
<clus scale="   91.794">  7  8 -1 -1</clus>
<clus scale="  108.735">  1  5  2 -1</clus>
<clus scale="   24.132">  2  5  1 -1</clus>
</clustering>
</event>
<event>
 9    1  0.1464797E-005  0.3551359E+03  0.7546771E-02  0.1060593E+00
         21   -1    0    0  501  502  0.00000000000E+00  0.00000000000E+00  0.12205562927E+03  0.12205562927E+03  0.00000000000E+00 0.  1.
          1   -1    0    0  502    0 -0.00000000000E+00 -0.00000000000E+00 -0.16662250828E+04  0.16662250828E+04  0.00000000000E+00 0. -1.
         23    2    1    2    0    0  0.24046409669E+03  0.26015295950E+03 -0.87017753823E+03  0.94476745370E+03  0.99368251477E+02 0.  0.
         23    2    1    2    0    0 -0.19942346289E+03 -0.26012949048E+03 -0.71058497294E+03  0.78852793262E+03  0.96996017360E+02 0.  0.
        -13    1    3    3    0    0  0.23136053694E+03  0.21479957156E+03 -0.80628001655E+03  0.86588337499E+03  0.00000000000E+00 0.  1.
         13    1    3    3    0    0  0.91035597488E+01  0.45353387935E+02 -0.63897521681E+02  0.78884078712E+02  0.00000000000E+00 0. -1.
        -13    1    4    4    0    0 -0.68718653771E+02 -0.14599457664E+03 -0.42191908378E+03  0.45172157691E+03  0.00000000000E+00 0.  1.
         13    1    4    4    0    0 -0.13070480912E+03 -0.11413491384E+03 -0.28866588916E+03  0.33680635571E+03  0.00000000000E+00 0. -1.
          1    1    1    2  501    0 -0.41040633800E+02 -0.23469018066E-01  0.36593057673E+02  0.54985325709E+02  0.00000000000E+00 0. -1.
<scales pt_clust_5="13000.00000" pt_clust_6="13000.00000" pt_clust_7="13000.00000" pt_clust_8="13000.00000" pt_clust_9="41.04064"></scales>
<clustering>
<clus scale="   41.041">  1  9  2 -1</clus>
<clus scale="   96.996">  7  8 -1 -1</clus>
<clus scale="   99.368">  5  6 -1 -1</clus>
<clus scale="  354.479">  1  7  2 -1</clus>
<clus scale="   41.041">  1  5  2 -1</clus>
</clustering>
</event>
<event>
 9    1  0.1464797E-005  0.3508547E+03  0.7546771E-02  0.1062471E+00
         21   -1    0    0  501  502  0.00000000000E+00  0.00000000000E+00  0.82576397163E+03  0.82576397163E+03  0.00000000000E+00 0. -1.
          1   -1    0    0  502    0 -0.00000000000E+00 -0.00000000000E+00 -0.27164461930E+03  0.27164461930E+03  0.00000000000E+00 0. -1.
         23    2    1    2    0    0  0.11670075012E+03 -0.33788151676E+03  0.13127864548E+02  0.36769698309E+03  0.85121948405E+02 0.  0.
         23    2    1    2    0    0 -0.19062126514E+03  0.25214552399E+03  0.23855270474E+03  0.40678108825E+03  0.93003380750E+02 0.  0.
        -13    1    4    4    0    0 -0.45412091688E+01  0.48189860315E+02  0.63620017464E+02  0.79939926445E+02  0.00000000000E+00 0.  1.
         13    1    4    4    0    0 -0.18608005597E+03  0.20395566367E+03  0.17493268727E+03  0.32684116180E+03  0.00000000000E+00 0. -1.
        -13    1    3    3    0    0  0.11285891407E+03 -0.20569787554E+03 -0.16826606267E+01  0.23463073506E+03  0.00000000000E+00 0.  1.
         13    1    3    3    0    0  0.38418360543E+01 -0.13218364122E+03  0.14810525175E+02  0.13306624804E+03  0.00000000000E+00 0. -1.
          1    1    1    2  501    0  0.73920515017E+02  0.85735992772E+02  0.30243878304E+03  0.32293051959E+03  0.00000000000E+00 0. -1.
<scales pt_clust_5="13000.00000" pt_clust_6="13000.00000" pt_clust_7="13000.00000" pt_clust_8="13000.00000" pt_clust_9="113.20293"></scales>
<clustering>
<clus scale="   85.122">  7  8 -1 -1</clus>
<clus scale="   93.003">  5  6 -1 -1</clus>
<clus scale="  113.203">  1  9  2 -1</clus>
<clus scale="  348.848">  2  7  1 -1</clus>
<clus scale="  113.203">  1  5  2 -1</clus>
</clustering>
</event>
<event>
 9    1  0.1464797E-005  0.1531887E+03  0.7546771E-02  0.1197057E+00
         -1   -1    0    0    0  501 -0.00000000000E+00  0.00000000000E+00  0.63995285588E+03  0.63995285588E+03  0.00000000000E+00 0.  1.
         21   -1    0    0  501  502  0.00000000000E+00 -0.00000000000E+00 -0.78142565035E+02  0.78142565035E+02  0.00000000000E+00 0. -1.
         23    2    1    2    0    0  0.12457057960E+03  0.48870933074E+02  0.38922087061E+03  0.42047001933E+03  0.85999730449E+02 0.  0.
         23    2    1    2    0    0 -0.98204933437E+02 -0.55948563479E+02  0.20809263892E+03  0.25284015082E+03  0.88606685916E+02 0.  0.
        -11    1    3    3    0    0  0.30148031856E+02  0.55161900108E+02  0.18501395997E+03  0.19540190489E+03  0.00000000000E+00 0.  1.
         11    1    3    3    0    0  0.94422547739E+02 -0.62909670336E+01  0.20420691064E+03  0.22506811445E+03  0.00000000000E+00 0. -1.
        -11    1    4    4    0    0 -0.17246439778E+02 -0.40971209676E+02  0.13710112295E+03  0.14412771289E+03  0.00000000000E+00 0.  1.
         11    1    4    4    0    0 -0.80958493659E+02 -0.14977353804E+02  0.70991515962E+02  0.10871243793E+03  0.00000000000E+00 0. -1.
         -1    1    1    2    0  502 -0.26365646158E+02  0.70776304051E+01 -0.35503218680E+02  0.44785250765E+02  0.00000000000E+00 0.  1.
<scales pt_clust_5="13000.00000" pt_clust_6="13000.00000" pt_clust_7="13000.00000" pt_clust_8="13000.00000" pt_clust_9="27.29909"></scales>
<clustering>
<clus scale="   27.299">  2  9  1 -1</clus>
<clus scale="   86.000">  5  6 -1 -1</clus>
<clus scale="   88.607">  7  8 -1 -1</clus>
<clus scale="  151.696">  1  5  2 -1</clus>
<clus scale="   27.299">  2  5  1 -1</clus>
</clustering>
</event>
<event>
 9    1  0.1464797E-005  0.1092588E+03  0.7546771E-02  0.1269005E+00
          4   -1    0    0  502    0 -0.00000000000E+00  0.00000000000E+00  0.63873644267E+02  0.63873644267E+02  0.00000000000E+00 0. -1.
         21   -1    0    0  501  502  0.00000000000E+00 -0.00000000000E+00 -0.25366434769E+03  0.25366434769E+03  0.00000000000E+00 0. -1.
         23    2    1    2    0    0  0.11008915919E+02  0.26308406810E+02 -0.29435468970E+02  0.11409458636E+03  0.10647910267E+03 0.  0.
         23    2    1    2    0    0  0.14959084897E+02 -0.21250256837E+02 -0.10454785636E+03  0.14168269481E+03  0.92023823557E+02 0.  0.
        -13    1    3    3    0    0 -0.84922226259E+01  0.61510701033E+02 -0.38206432622E+02  0.72906897344E+02  0.00000000000E+00 0.  1.
         13    1    3    3    0    0  0.19501138545E+02 -0.35202294222E+02  0.87709636523E+01  0.41187689016E+02  0.00000000000E+00 0. -1.
        -13    1    4    4    0    0  0.37939612099E+02  0.23614944014E+02 -0.56570801839E+02  0.72092547241E+02  0.00000000000E+00 0. -1.
         13    1    4    4    0    0 -0.22980527202E+02 -0.44865200851E+02 -0.47977054519E+02  0.69590147566E+02  0.00000000000E+00 0.  1.
          4    1    1    2  501    0 -0.25968000816E+02 -0.50581499733E+01 -0.55807378092E+02  0.61760710788E+02  0.00000000000E+00 0. -1.
<scales pt_clust_5="13000.00000" pt_clust_6="13000.00000" pt_clust_7="13000.00000" pt_clust_8="13000.00000" pt_clust_9="26.45604"></scales>
<clustering>
<clus scale="   26.456">  2  9  1 -1</clus>
<clus scale="   92.024">  7  8 -1 -1</clus>
<clus scale="   95.226">  2  7  1 -1</clus>
<clus scale="  106.479">  5  6 -1 -1</clus>
<clus scale="   26.456">  2  5  1 -1</clus>
</clustering>
</event>
<event>
 9    1  0.1464797E-005  0.1069633E+03  0.7546771E-02  0.1266445E+00
         21   -1    0    0  501  502  0.00000000000E+00  0.00000000000E+00  0.14563758018E+03  0.14563758018E+03  0.00000000000E+00 0. -1.
          2   -1    0    0  502    0 -0.00000000000E+00 -0.00000000000E+00 -0.25359776322E+03  0.25359776322E+03  0.00000000000E+00 0. -1.
         23    2    1    2    0    0  0.18585727675E+02 -0.53097073387E+02 -0.18989557865E+03  0.21764490402E+03  0.90245470700E+02 0.  0.
         23    2    1    2    0    0 -0.49427613800E+02  0.48314210136E+02  0.24174523564E+02  0.11593668046E+03  0.89886341447E+02 0.  0.
        -11    1    3    3    0    0 -0.69992460044E+01 -0.72582195627E+02 -0.14636226987E+03  0.16352088126E+03  0.00000000000E+00 0. -1.
         11    1    3    3    0    0  0.25584973680E+02  0.19485122240E+02 -0.43533308777E+02  0.54124022762E+02  0.00000000000E+00 0.  1.
        -13    1    4    4    0    0 -0.47704296567E+02 -0.13693848914E+02  0.20799252536E+02  0.53812919593E+02  0.00000000000E+00 0. -1.
         13    1    4    4    0    0 -0.17233172327E+01  0.62008059050E+02  0.33752710282E+01  0.62123760864E+02  0.00000000000E+00 0.  1.
          2    1    1    2  501    0  0.30841886125E+02  0.47828632512E+01  0.57760872043E+02  0.65653758916E+02  0.00000000000E+00 0. -1.
<scales pt_clust_5="13000.00000" pt_clust_6="13000.00000" pt_clust_7="13000.00000" pt_clust_8="13000.00000" pt_clust_9="31.21054"></scales>
<clustering>
<clus scale="   31.211">  1  9  2 -1</clus>
<clus scale="   89.886">  7  8 -1 -1</clus>
<clus scale="   90.245">  5  6 -1 -1</clus>
<clus scale="  106.660">  1  7  2 -1</clus>
<clus scale="   31.211">  1  5  2 -1</clus>
</clustering>
</event>
<event>
 9    1  0.1464797E-005  0.9913877E+02  0.7546771E-02  0.1282183E+00
          1   -1    0    0  502    0 -0.00000000000E+00  0.00000000000E+00  0.70834609556E+02  0.70834609556E+02  0.00000000000E+00 0. -1.
         21   -1    0    0  501  502  0.00000000000E+00 -0.00000000000E+00 -0.20013459614E+03  0.20013459614E+03  0.00000000000E+00 0. -1.
         23    2    1    2    0    0 -0.13873761449E+02  0.51521625369E+02 -0.20049706056E+02  0.10599135261E+03  0.89360041276E+02 0.  0.
         23    2    1    2    0    0  0.13472726376E+02 -0.23943234341E+02 -0.69498884577E+02  0.11659498462E+03  0.89495824793E+02 0.  0.
        -11    1    4    4    0    0 -0.32404123629E+02 -0.88693985356E+01 -0.20724565962E+01  0.33659895051E+02  0.00000000000E+00 0.  1.
         11    1    4    4    0    0  0.45876850005E+02 -0.15073835806E+02 -0.67426427980E+02  0.82935089573E+02  0.00000000000E+00 0. -1.
        -13    1    3    3    0    0 -0.27556324856E+02  0.35237768231E+02  0.28463206326E+02  0.53020802180E+02  0.00000000000E+00 0. -1.
         13    1    3    3    0    0  0.13682563407E+02  0.16283857139E+02 -0.48512912382E+02  0.52970550426E+02  0.00000000000E+00 0.  1.
          1    1    1    2  501    0  0.40103507269E+00 -0.27578391028E+02 -0.39751395948E+02  0.48382868463E+02  0.00000000000E+00 0. -1.
<scales pt_clust_5="13000.00000" pt_clust_6="13000.00000" pt_clust_7="13000.00000" pt_clust_8="13000.00000" pt_clust_9="27.58131"></scales>
<clustering>
<clus scale="   27.581">  2  9  1 -1</clus>
<clus scale="   89.360">  7  8 -1 -1</clus>
<clus scale="   89.496">  5  6 -1 -1</clus>
<clus scale="   99.016">  1  7  2 -1</clus>
<clus scale="   27.581">  2  5  1 -1</clus>
</clustering>
</event>
<event>
 9    1  0.1464797E-005  0.1191311E+03  0.7546771E-02  0.1253436E+00
         21   -1    0    0  501  502  0.00000000000E+00  0.00000000000E+00  0.51311815734E+03  0.51311815734E+03  0.00000000000E+00 0.  1.
         -3   -1    0    0    0  501 -0.00000000000E+00 -0.00000000000E+00 -0.14399197115E+03  0.14399197115E+03  0.00000000000E+00 0.  1.
         23    2    1    2    0    0 -0.40724086445E+02  0.40361555613E+02 -0.64040589862E+02  0.13526087314E+03  0.10443562737E+03 0.  0.
         23    2    1    2    0    0 -0.35281463676E+02 -0.90681484422E+02  0.65150109007E+02  0.14271180521E+03  0.81573337231E+02 0.  0.
        -13    1    3    3    0    0 -0.10334170058E+01 -0.30054138750E+02  0.30333948015E+01  0.30224504806E+02  0.00000000000E+00 0.  1.
         13    1    3    3    0    0 -0.39690669439E+02  0.70415694364E+02 -0.67073984663E+02  0.10503636833E+03  0.00000000000E+00 0. -1.
        -13    1    4    4    0    0  0.20808621437E+02 -0.61898805941E+00  0.91572680993E+01  0.22742854512E+02  0.00000000000E+00 0. -1.
         13    1    4    4    0    0 -0.56090085113E+02 -0.90062496362E+02  0.55992840908E+02  0.11996895070E+03  0.00000000000E+00 0.  1.
         -3    1    1    2    0  502  0.76005550121E+02  0.50319928808E+02  0.36801666704E+03  0.37913745015E+03  0.00000000000E+00 0.  1.
<scales pt_clust_5="13000.00000" pt_clust_6="13000.00000" pt_clust_7="13000.00000" pt_clust_8="13000.00000" pt_clust_9="91.15338"></scales>
<clustering>
<clus scale="   81.573">  7  8 -1 -1</clus>
<clus scale="   91.153">  1  9  2 -1</clus>
<clus scale="   99.698">  1  7  2 -1</clus>
<clus scale="  104.436">  5  6 -1 -1</clus>
<clus scale="   91.153">  1  5  2 -1</clus>
</clustering>
</event>
<event>
 9    1  0.1464797E-005  0.2605195E+03  0.7546771E-02  0.1106907E+00
          2   -1    0    0  502    0 -0.00000000000E+00  0.00000000000E+00  0.28752670282E+03  0.28752670282E+03  0.00000000000E+00 0. -1.
         21   -1    0    0  501  502  0.00000000000E+00 -0.00000000000E+00 -0.58417859640E+03  0.58417859640E+03  0.00000000000E+00 0.  1.
         23    2    1    2    0    0 -0.15776859001E+03  0.17179437229E+03  0.80655129114E+02  0.26376670218E+03  0.93077327970E+02 0.  0.
         23    2    1    2    0    0  0.70004883546E+02 -0.29954147913E+03 -0.23863794541E+03  0.39997007906E+03  0.91663589927E+02 0.  0.
        -11    1    3    3    0    0 -0.16462169759E+03  0.14093533197E+03  0.83019715623E+02  0.23206754253E+03  0.00000000000E+00 0. -1.
         11    1    3    3    0    0  0.68531075793E+01  0.30859040322E+02 -0.23645865082E+01  0.31699159649E+02  0.00000000000E+00 0.  1.
        -11    1    4    4    0    0  0.11199375348E+02 -0.20634516903E+03 -0.18522103747E+03  0.27750781522E+03  0.00000000000E+00 0.  1.
         11    1    4    4    0    0  0.58805508198E+02 -0.93196310101E+02 -0.53416907939E+02  0.12246226384E+03  0.00000000000E+00 0. -1.
          2    1    1    2  501    0  0.87763706465E+02  0.12774710684E+03 -0.13866907729E+03  0.20796851799E+03  0.00000000000E+00 0. -1.
<scales pt_clust_5="13000.00000" pt_clust_6="13000.00000" pt_clust_7="13000.00000" pt_clust_8="13000.00000" pt_clust_9="154.98965"></scales>
<clustering>
<clus scale="   91.664">  7  8 -1 -1</clus>
<clus scale="   93.077">  5  6 -1 -1</clus>
<clus scale="  154.990">  2  9  1 -1</clus>
<clus scale="  260.018">  2  7  1 -1</clus>
<clus scale="  154.990">  2  5  1 -1</clus>
</clustering>
</event>
<event>
 9    1  0.1464797E-005  0.1096616E+03  0.7546771E-02  0.1261879E+00
          2   -1    0    0  502    0 -0.00000000000E+00  0.00000000000E+00  0.18647580421E+03  0.18647580421E+03  0.00000000000E+00 0. -1.
         21   -1    0    0  501  502  0.00000000000E+00 -0.00000000000E+00 -0.21165805577E+03  0.21165805577E+03  0.00000000000E+00 0. -1.
         23    2    1    2    0    0  0.15618652143E+02 -0.50337779379E+02  0.10464220776E+03  0.14839258885E+03  0.91063354066E+02 0.  0.
         23    2    1    2    0    0 -0.74109994085E+02  0.79539382839E+02 -0.56790829968E+02  0.15172146831E+03  0.89305100263E+02 0.  0.
        -11    1    3    3    0    0 -0.27313850967E+02 -0.43712747737E+02  0.24139832880E+02  0.56917328652E+02  0.00000000000E+00 0.  1.
         11    1    3    3    0    0  0.42932503110E+02 -0.66250316426E+01  0.80502374878E+02  0.91475260199E+02  0.00000000000E+00 0. -1.
        -13    1    4    4    0    0 -0.50296517492E+02  0.33167935618E+02 -0.75271445655E+02  0.96413910594E+02  0.00000000000E+00 0.  1.
         13    1    4    4    0    0 -0.23813476593E+02  0.46371447221E+02  0.18480615686E+02  0.55307557720E+02  0.00000000000E+00 0. -1.
          2    1    1    2  501    0  0.58491341943E+02 -0.29201603460E+02 -0.73033629352E+02  0.98019802812E+02  0.00000000000E+00 0. -1.
<scales pt_clust_5="13000.00000" pt_clust_6="13000.00000" pt_clust_7="13000.00000" pt_clust_8="13000.00000" pt_clust_9="65.37561"></scales>
<clustering>
<clus scale="   65.376">  2  9  1 -1</clus>
<clus scale="   89.305">  7  8 -1 -1</clus>
<clus scale="   91.063">  5  6 -1 -1</clus>
<clus scale="  108.206">  2  7  1 -1</clus>
<clus scale="   65.376">  2  5  1 -1</clus>
</clustering>
</event>
<event>
 9    1  0.1464797E-005  0.9582835E+02  0.7546771E-02  0.1290191E+00
          1   -1    0    0  502    0 -0.00000000000E+00  0.00000000000E+00  0.79770789556E+02  0.79770789556E+02  0.00000000000E+00 0. -1.
         21   -1    0    0  501  502  0.00000000000E+00 -0.00000000000E+00 -0.20529835410E+03  0.20529835410E+03  0.00000000000E+00 0.  1.
         23    2    1    2    0    0 -0.29032861894E+02 -0.14044606717E+02  0.31565825515E+01  0.95435970426E+02  0.89765819721E+02 0.  0.
         23    2    1    2    0    0  0.69967708945E+01  0.29533088552E+02 -0.54369554383E+02  0.11058798953E+03  0.91391995614E+02 0.  0.
        -11    1    4    4    0    0 -0.29475860602E+02  0.91911971583E+01 -0.60937281703E+02  0.68312932632E+02  0.00000000000E+00 0.  1.
         11    1    4    4    0    0  0.36472631496E+02  0.20341891393E+02  0.65677273194E+01  0.42275056900E+02  0.00000000000E+00 0. -1.
        -11    1    3    3    0    0  0.11812164521E+02  0.31817261583E+02 -0.41789695204E-01  0.33939167811E+02  0.00000000000E+00 0. -1.
         11    1    3    3    0    0 -0.40845026415E+02 -0.45861868300E+02  0.31983722467E+01  0.61496802615E+02  0.00000000000E+00 0.  1.
          1    1    1    2  501    0  0.22036090999E+02 -0.15488481834E+02 -0.74314592713E+02  0.79045183700E+02  0.00000000000E+00 0. -1.
<scales pt_clust_5="13000.00000" pt_clust_6="13000.00000" pt_clust_7="13000.00000" pt_clust_8="13000.00000" pt_clust_9="26.93478"></scales>
<clustering>
<clus scale="   26.935">  2  9  1 -1</clus>
<clus scale="   89.766">  7  8 -1 -1</clus>
<clus scale="   91.392">  5  6 -1 -1</clus>
<clus scale="   94.279">  1  7  2 -1</clus>
<clus scale="   26.935">  2  5  1 -1</clus>
</clustering>
</event>
<event>
 9    1  0.1464797E-005  0.1016503E+03  0.7546771E-02  0.1278837E+00
         21   -1    0    0  501  502  0.00000000000E+00  0.00000000000E+00  0.16048566859E+03  0.16048566859E+03  0.00000000000E+00 0.  1.
         -1   -1    0    0    0  501 -0.00000000000E+00 -0.00000000000E+00 -0.18879190624E+03  0.18879190624E+03  0.00000000000E+00 0.  1.
         23    2    1    2    0    0  0.59148495990E+02  0.38422011018E+02 -0.91588377171E+02  0.14631371194E+03  0.89691002676E+02 0.  0.
         23    2    1    2    0    0  0.16919565037E+02  0.12145442931E+02  0.84672868808E+01  0.96436470273E+02  0.93779072220E+02 0.  0.
        -11    1    3    3    0    0  0.34019952981E+02  0.65657430646E+02 -0.76219035156E+02  0.10619602968E+03  0.00000000000E+00 0.  1.
         11    1    3    3    0    0  0.25128543009E+02 -0.27235419628E+02 -0.15369342015E+02  0.40117682261E+02  0.00000000000E+00 0. -1.
        -11    1    4    4    0    0  0.14019299132E+02  0.48231408179E+02 -0.16031268172E+02  0.52723913382E+02  0.00000000000E+00 0.  1.
         11    1    4    4    0    0  0.29002659060E+01 -0.36085965248E+02  0.24498555053E+02  0.43712556891E+02  0.00000000000E+00 0. -1.
         -1    1    1    2    0  502 -0.76068061027E+02 -0.50567453949E+02  0.54814852644E+02  0.10652739262E+03  0.00000000000E+00 0.  1.
<scales pt_clust_5="13000.00000" pt_clust_6="13000.00000" pt_clust_7="13000.00000" pt_clust_8="13000.00000" pt_clust_9="91.34231"></scales>
<clustering>
<clus scale="   89.691">  5  6 -1 -1</clus>
<clus scale="   91.342">  1  9  2 -1</clus>
<clus scale="   93.779">  7  8 -1 -1</clus>
<clus scale="   97.891">  2  5  1 -1</clus>
<clus scale="   91.342">  1  5  2 -1</clus>
</clustering>
</event>
<event>
 9    1  0.1464797E-005  0.1045613E+03  0.7546771E-02  0.1275820E+00
         21   -1    0    0  501  502  0.00000000000E+00  0.00000000000E+00  0.68193732669E+02  0.68193732669E+02  0.00000000000E+00 0. -1.
          1   -1    0    0  502    0 -0.00000000000E+00 -0.00000000000E+00 -0.65271001916E+03  0.65271001916E+03  0.00000000000E+00 0. -1.
         23    2    1    2    0    0  0.10703080701E+02  0.46701671850E+02 -0.38261360734E+03  0.39405884545E+03  0.81200979472E+02 0.  0.
         23    2    1    2    0    0  0.76821992296E+02 -0.76652567991E+02 -0.53453189875E+02  0.15193079760E+03  0.91915662820E+02 0.  0.
        -11    1    4    4    0    0 -0.19135190857E+02 -0.13645367491E+02  0.35398519927E+01  0.23767249214E+02  0.00000000000E+00 0.  1.
         11    1    4    4    0    0  0.95957183153E+02 -0.63007200500E+02 -0.56993041868E+02  0.12816354839E+03  0.00000000000E+00 0. -1.
        -13    1    3    3    0    0  0.33943288916E+02 -0.52045783009E+01 -0.98644799926E+02  0.10445109406E+03  0.00000000000E+00 0.  1.
         13    1    3    3    0    0 -0.23240208215E+02  0.51906250151E+02 -0.28396880742E+03  0.28960775140E+03  0.00000000000E+00 0. -1.
          1    1    1    2  501    0 -0.87525072997E+02  0.29950896141E+02 -0.14844948927E+03  0.17491410877E+03  0.00000000000E+00 0. -1.
<scales pt_clust_5="13000.00000" pt_clust_6="13000.00000" pt_clust_7="13000.00000" pt_clust_8="13000.00000" pt_clust_9="92.50785"></scales>
<clustering>
<clus scale="   81.201">  7  8 -1 -1</clus>
<clus scale="   91.916">  5  6 -1 -1</clus>
<clus scale="   92.508">  1  9  2 -1</clus>
<clus scale="   95.279">  2  7  1 -1</clus>
<clus scale="   92.508">  1  5  2 -1</clus>
</clustering>
</event>
<event>
 9    1  0.1464797E-005  0.1344784E+03  0.7546771E-02  0.1235728E+00
         21   -1    0    0  501  502  0.00000000000E+00  0.00000000000E+00  0.70548013573E+02  0.70548013573E+02  0.00000000000E+00 0. -1.
         -3   -1    0    0    0  501 -0.00000000000E+00 -0.00000000000E+00 -0.55236437672E+03  0.55236437672E+03  0.00000000000E+00 0.  1.
         23    2    1    2    0    0  0.16292817885E+02 -0.15380236370E+02 -0.67180170545E+02  0.11967846708E+03  0.96476694510E+02 0.  0.
         23    2    1    2    0    0  0.68219969353E+02 -0.36552316697E+02 -0.37845543385E+03  0.39764770925E+03  0.94367098012E+02 0.  0.
        -11    1    3    3    0    0 -0.33010237708E+02  0.61839928319E+01 -0.55096870463E+02  0.64525829678E+02  0.00000000000E+00 0.  1.
         11    1    3    3    0    0  0.49303055593E+02 -0.21564229202E+02 -0.12083300082E+02  0.55152637405E+02  0.00000000000E+00 0. -1.
        -13    1    4    4    0    0  0.71341409198E+02  0.10457536491E+02 -0.26873278726E+03  0.27823778982E+03  0.00000000000E+00 0. -1.
         13    1    4    4    0    0 -0.31214398450E+01 -0.47009853188E+02 -0.10972264659E+03  0.11940991943E+03  0.00000000000E+00 0.  1.
         -3    1    1    2    0  502 -0.84512787238E+02  0.51932553067E+02 -0.36180758753E+02  0.10558621396E+03  0.00000000000E+00 0.  1.
<scales pt_clust_5="13000.00000" pt_clust_6="13000.00000" pt_clust_7="13000.00000" pt_clust_8="13000.00000" pt_clust_9="95.80865"></scales>
<clustering>
<clus scale="   94.367">  7  8 -1 -1</clus>
<clus scale="   96.477">  5  6 -1 -1</clus>
<clus scale="   99.044">  2  5  1 -1</clus>
<clus scale="   95.809">  1  9  2 -1</clus>
<clus scale="   95.809">  1  5  2 -1</clus>
</clustering>
</event>
<event>
 9    1  0.1464797E-005  0.9509639E+02  0.7546771E-02  0.1295496E+00
         21   -1    0    0  501  502  0.00000000000E+00  0.00000000000E+00  0.15024606236E+03  0.15024606236E+03  0.00000000000E+00 0. -1.
          1   -1    0    0  502    0 -0.00000000000E+00 -0.00000000000E+00 -0.19714610004E+03  0.19714610004E+03  0.00000000000E+00 0. -1.
         23    2    1    2    0    0  0.18892551850E+02  0.33412822672E+02 -0.83780375889E+02  0.12909125249E+03  0.90399418416E+02 0.  0.
         23    2    1    2    0    0 -0.42737034222E+02  0.32348581938E+02 -0.47196308259E+02  0.10892996241E+03  0.82251810616E+02 0.  0.
        -11    1    3    3    0    0  0.39585732249E+02  0.54616360753E+02 -0.66847792571E+02  0.94966333146E+02  0.00000000000E+00 0. -1.
         11    1    3    3    0    0 -0.20693180398E+02 -0.21203538081E+02 -0.16932583318E+02  0.34124919340E+02  0.00000000000E+00 0.  1.
        -13    1    4    4    0    0 -0.61309002588E+02  0.21148786639E+02 -0.96473583662E+01  0.65567800772E+02  0.00000000000E+00 0. -1.
         13    1    4    4    0    0  0.18571968366E+02  0.11199795299E+02 -0.37548949893E+02  0.43362161636E+02  0.00000000000E+00 0.  1.
          1    1    1    2  501    0  0.23844482372E+02 -0.65761404610E+02  0.84076646476E+02  0.10937094751E+03  0.00000000000E+00 0. -1.
<scales pt_clust_5="13000.00000" pt_clust_6="13000.00000" pt_clust_7="13000.00000" pt_clust_8="13000.00000" pt_clust_9="69.95085"></scales>
<clustering>
<clus scale="   69.951">  1  9  2 -1</clus>
<clus scale="   82.252">  7  8 -1 -1</clus>
<clus scale="   87.388">  1  7  2 -1</clus>
<clus scale="   90.399">  5  6 -1 -1</clus>
<clus scale="   69.951">  1  5  2 -1</clus>
</clustering>
</event>
<event>
 9    1  0.1464797E-005  0.1646349E+03  0.7546771E-02  0.1185390E+00
         21   -1    0    0  501  502  0.00000000000E+00  0.00000000000E+00  0.37951296516E+02  0.37951296516E+02  0.00000000000E+00 0. -1.
          2   -1    0    0  502    0 -0.00000000000E+00 -0.00000000000E+00 -0.85608771456E+03  0.85608771456E+03  0.00000000000E+00 0. -1.
         23    2    1    2    0    0  0.50136244202E+02 -0.13154939692E+03 -0.49103253371E+03  0.51859169083E+03  0.89473492276E+02 0.  0.
         23    2    1    2    0    0 -0.22273841079E+02  0.13421907607E+03 -0.28211243057E+03  0.32245985375E+03  0.76694520140E+02 0.  0.
        -11    1    3    3    0    0 -0.25671173178E+02 -0.43078159255E+02 -0.15808971138E+03  0.16585262670E+03  0.00000000000E+00 0.  1.
         11    1    3    3    0    0  0.75807417381E+02 -0.88471237667E+02 -0.33294282233E+03  0.35273906413E+03  0.00000000000E+00 0. -1.
        -13    1    4    4    0    0 -0.41886516714E+02  0.33686141588E+02 -0.96211448054E+02  0.11020834430E+03  0.00000000000E+00 0.  1.
         13    1    4    4    0    0  0.19612675634E+02  0.10053293448E+03 -0.18590098252E+03  0.21225150944E+03  0.00000000000E+00 0. -1.
          2    1    1    2  501    0 -0.27862403123E+02 -0.26696791441E+01 -0.44991453764E+02  0.52987466502E+02  0.00000000000E+00 0. -1.
<scales pt_clust_5="13000.00000" pt_clust_6="13000.00000" pt_clust_7="13000.00000" pt_clust_8="13000.00000" pt_clust_9="27.99001"></scales>
<clustering>
<clus scale="   27.990">  1  9  2 -1</clus>
<clus scale="   76.695">  7  8 -1 -1</clus>
<clus scale="   89.473">  5  6 -1 -1</clus>
<clus scale="  158.054">  1  7  2 -1</clus>
<clus scale="   27.990">  1  5  2 -1</clus>
</clustering>
</event>
<event>
 9    1  0.1464797E-005  0.1092956E+03  0.7546771E-02  0.1263104E+00
         -1   -1    0    0    0  501 -0.00000000000E+00  0.00000000000E+00  0.36151573079E+03  0.36151573079E+03  0.00000000000E+00 0.  1.
         21   -1    0    0  501  502  0.00000000000E+00 -0.00000000000E+00 -0.11147574151E+03  0.11147574151E+03  0.00000000000E+00 0.  1.
         23    2    1    2    0    0  0.19268796988E+02 -0.47794840709E+02  0.15149043181E+03  0.18549761759E+03  0.93831667707E+02 0.  0.
         23    2    1    2    0    0  0.75439662481E+02  0.63426919456E+02  0.12977758031E+03  0.18655207154E+03  0.90803844943E+02 0.  0.
        -11    1    3    3    0    0  0.38758648076E+02  0.11578648339E+02  0.85656776562E+02  0.94727932887E+02  0.00000000000E+00 0. -1.
         11    1    3    3    0    0 -0.19489851088E+02 -0.59373489048E+02  0.65833655247E+02  0.90769684699E+02  0.00000000000E+00 0.  1.
        -13    1    4    4    0    0  0.93681270472E+02  0.45763971890E+02  0.12091336163E+03  0.15965764178E+03  0.00000000000E+00 0.  1.
         13    1    4    4    0    0 -0.18241607992E+02  0.17662947565E+02  0.88642186856E+01  0.26894429753E+02  0.00000000000E+00 0. -1.
         -1    1    1    2    0  502 -0.94708459469E+02 -0.15632078747E+02 -0.31228022832E+02  0.10094178318E+03  0.00000000000E+00 0.  1.
<scales pt_clust_5="13000.00000" pt_clust_6="13000.00000" pt_clust_7="13000.00000" pt_clust_8="13000.00000" pt_clust_9="95.98986"></scales>
<clustering>
<clus scale="   90.804">  7  8 -1 -1</clus>
<clus scale="   93.832">  5  6 -1 -1</clus>
<clus scale="   95.990">  2  9  1 -1</clus>
<clus scale="  106.707">  2  7  1 -1</clus>
<clus scale="   95.990">  2  5  1 -1</clus>
</clustering>
</event>
<event>
 9    1  0.1464797E-005  0.1228143E+03  0.7546771E-02  0.1238836E+00
         -4   -1    0    0    0  501 -0.00000000000E+00  0.00000000000E+00  0.70442291938E+03  0.70442291938E+03  0.00000000000E+00 0.  1.
         21   -1    0    0  501  502  0.00000000000E+00 -0.00000000000E+00 -0.62130726662E+02  0.62130726662E+02  0.00000000000E+00 0. -1.
         23    2    1    2    0    0 -0.58191773675E+02 -0.54800399354E+02  0.58808991773E+03  0.60050213049E+03  0.91453218075E+02 0.  0.
         23    2    1    2    0    0  0.60224332915E+02  0.77906445025E+02  0.48054902831E+02  0.14205545695E+03  0.90410700211E+02 0.  0.
        -11    1    4    4    0    0  0.21440409870E+02 -0.12273439846E+02  0.35267991365E+02  0.43059954900E+02  0.00000000000E+00 0.  1.
         11    1    4    4    0    0  0.38783923045E+02  0.90179884871E+02  0.12786911466E+02  0.98995502054E+02  0.00000000000E+00 0. -1.
        -11    1    3    3    0    0 -0.19886443757E+02  0.25542682625E+02  0.14718088374E+03  0.15069874525E+03  0.00000000000E+00 0. -1.
         11    1    3    3    0    0 -0.38305329918E+02 -0.80343081979E+02  0.44090903399E+03  0.44980338524E+03  0.00000000000E+00 0.  1.
         -4    1    1    2    0  502 -0.20325592402E+01 -0.23106045671E+02  0.61473721537E+01  0.23996058593E+02  0.00000000000E+00 0.  1.
<scales pt_clust_5="13000.00000" pt_clust_6="13000.00000" pt_clust_7="13000.00000" pt_clust_8="13000.00000" pt_clust_9="23.19527"></scales>
<clustering>
<clus scale="   23.195">  2  9  1 -1</clus>
<clus scale="   90.411">  5  6 -1 -1</clus>
<clus scale="   91.453">  7  8 -1 -1</clus>
<clus scale="  122.040">  2  5  1 -1</clus>
<clus scale="   23.195">  2  5  1 -1</clus>
</clustering>
</event>
<event>
 9    1  0.1464797E-005  0.2500674E+03  0.7546771E-02  0.1113384E+00
         21   -1    0    0  501  502  0.00000000000E+00  0.00000000000E+00  0.10375697896E+04  0.10375697896E+04  0.00000000000E+00 0. -1.
         -1   -1    0    0    0  501 -0.00000000000E+00 -0.00000000000E+00 -0.10031881385E+03  0.10031881385E+03  0.00000000000E+00 0.  1.
         23    2    1    2    0    0  0.96710038738E+02  0.22179742839E+03  0.17717569262E+03  0.31286750158E+03  0.89151088937E+02 0.  0.
         23    2    1    2    0    0 -0.13659123492E+03 -0.16376279593E+03  0.67954515170E+03  0.71804619622E+03  0.91286953754E+02 0.  0.
        -11    1    3    3    0    0  0.66791880530E+02  0.16700926766E+03  0.78837262738E+02  0.19638881023E+03  0.00000000000E+00 0.  1.
         11    1    3    3    0    0  0.29918158208E+02  0.54788160730E+02  0.98338429886E+02  0.11647869135E+03  0.00000000000E+00 0. -1.
        -11    1    4    4    0    0 -0.32276228145E+02  0.50244736424E+01  0.76030856924E+02  0.82750779110E+02  0.00000000000E+00 0.  1.
         11    1    4    4    0    0 -0.10431500677E+03 -0.16878726957E+03  0.60351429478E+03  0.63529541711E+03  0.00000000000E+00 0. -1.
         -1    1    1    2    0  502  0.39881196181E+02 -0.58034632460E+02  0.80530131468E+02  0.10697490569E+03  0.00000000000E+00 0.  1.
<scales pt_clust_5="13000.00000" pt_clust_6="13000.00000" pt_clust_7="13000.00000" pt_clust_8="13000.00000" pt_clust_9="70.41685"></scales>
<clustering>
<clus scale="   70.417">  1  9  2 -1</clus>
<clus scale="   89.151">  5  6 -1 -1</clus>
<clus scale="   91.287">  7  8 -1 -1</clus>
<clus scale="  249.296">  2  5  1 -1</clus>
<clus scale="   70.417">  1  5  2 -1</clus>
</clustering>
</event>
<event>
 9    1  0.1464797E-005  0.1849191E+03  0.7546771E-02  0.1189744E+00
          1   -1    0    0  502    0 -0.00000000000E+00  0.00000000000E+00  0.74662374556E+03  0.74662374556E+03  0.00000000000E+00 0. -1.
         21   -1    0    0  501  502  0.00000000000E+00 -0.00000000000E+00 -0.14060556524E+03  0.14060556524E+03  0.00000000000E+00 0.  1.
         23    2    1    2    0    0  0.13213577139E+02  0.41890816559E+02  0.32900094495E+03  0.34423363183E+03  0.91245451225E+02 0.  0.
         23    2    1    2    0    0 -0.10857150053E+03  0.11040450659E+03 -0.33161526480E+02  0.18452969270E+03  0.94734338276E+02 0.  0.
        -13    1    4    4    0    0 -0.53619140673E+02 -0.95296023978E+00 -0.27389941625E+02  0.60217350340E+02  0.00000000000E+00 0. -1.
         13    1    4    4    0    0 -0.54952359857E+02  0.11135746683E+03 -0.57715848553E+01  0.12431234236E+03  0.00000000000E+00 0.  1.
        -13    1    3    3    0    0 -0.20180554427E+02  0.59725801909E+02  0.19109385947E+03  0.20122447495E+03  0.00000000000E+00 0.  1.
         13    1    3    3    0    0  0.33394131566E+02 -0.17834985350E+02  0.13790708548E+03  0.14300915688E+03  0.00000000000E+00 0. -1.
          1    1    1    2  501    0  0.95357923391E+02 -0.15229532315E+03  0.31017876186E+03  0.35846598627E+03  0.00000000000E+00 0. -1.
<scales pt_clust_5="13000.00000" pt_clust_6="13000.00000" pt_clust_7="13000.00000" pt_clust_8="13000.00000" pt_clust_9="158.80967"></scales>
<clustering>
<clus scale="   91.245">  7  8 -1 -1</clus>
<clus scale="   94.734">  5  6 -1 -1</clus>
<clus scale="  101.268">  1  7  2 -1</clus>
<clus scale="  158.810">  2  9  1 -1</clus>
<clus scale="  158.810">  2  5  1 -1</clus>
</clustering>
</event>
<event>
 9    1  0.1464797E-005  0.9608681E+02  0.7546771E-02  0.1288785E+00
         21   -1    0    0  501  502  0.00000000000E+00  0.00000000000E+00  0.10890070720E+03  0.10890070720E+03  0.00000000000E+00 0. -1.
         -1   -1    0    0    0  501 -0.00000000000E+00 -0.00000000000E+00 -0.19629596610E+03  0.19629596610E+03  0.00000000000E+00 0.  1.
         23    2    1    2    0    0  0.16537528257E+02  0.23759942787E+02 -0.14054140294E+03  0.16996131822E+03  0.91087534982E+02 0.  0.
         23    2    1    2    0    0 -0.83373236647E+01 -0.42176345641E+02  0.55490333971E+02  0.11493997442E+03  0.91014644195E+02 0.  0.
        -11    1    4    4    0    0  0.17985595431E+02 -0.12289969602E+02 -0.20010305126E+02  0.29579339192E+02  0.00000000000E+00 0.  1.
         11    1    4    4    0    0 -0.26322919096E+02 -0.29886376039E+02  0.75500639097E+02  0.85360635228E+02  0.00000000000E+00 0. -1.
        -11    1    3    3    0    0  0.50469420876E+02  0.14713681385E+02 -0.11528396931E+03  0.12670457151E+03  0.00000000000E+00 0.  1.
         11    1    3    3    0    0 -0.33931892619E+02  0.90462614020E+01 -0.25257433637E+02  0.43256746711E+02  0.00000000000E+00 0. -1.
         -1    1    1    2    0  502 -0.82002045928E+01  0.18416402854E+02 -0.23441899219E+01  0.20295380653E+02  0.00000000000E+00 0.  1.
<scales pt_clust_5="13000.00000" pt_clust_6="13000.00000" pt_clust_7="13000.00000" pt_clust_8="13000.00000" pt_clust_9="20.15954"></scales>
<clustering>
<clus scale="   20.160">  1  9  2 -1</clus>
<clus scale="   91.015">  5  6 -1 -1</clus>
<clus scale="   91.088">  7  8 -1 -1</clus>
<clus scale="   96.018">  1  5  2 -1</clus>
<clus scale="   20.160">  1  5  2 -1</clus>
</clustering>
</event>
<event>
 9    1  0.1464797E-005  0.1408114E+03  0.7546771E-02  0.1212446E+00
         21   -1    0    0  501  502  0.00000000000E+00  0.00000000000E+00  0.31813594039E+02  0.31813594039E+02  0.00000000000E+00 0. -1.
          2   -1    0    0  502    0 -0.00000000000E+00 -0.00000000000E+00 -0.99746184441E+03  0.99746184441E+03  0.00000000000E+00 0. -1.
         23    2    1    2    0    0  0.96837606583E+02 -0.33886588625E+02 -0.60551200314E+03  0.62077259454E+03  0.90487597243E+02 0.  0.
         23    2    1    2    0    0 -0.10591086074E+03  0.54110635610E+02 -0.35611088055E+03  0.38597420448E+03  0.89532429713E+02 0.  0.
        -13    1    3    3    0    0  0.45384169543E+02 -0.62480739940E+02 -0.31189318341E+03  0.32131125652E+03  0.00000000000E+00 0. -1.
         13    1    3    3    0    0  0.51453437040E+02  0.28594151315E+02 -0.29361881973E+03  0.29946133802E+03  0.00000000000E+00 0.  1.
        -13    1    4    4    0    0 -0.96407467924E+02  0.71867705416E+02 -0.24345448707E+03  0.27153168181E+03  0.00000000000E+00 0. -1.
         13    1    4    4    0    0 -0.95033928186E+01 -0.17757069806E+02 -0.11265639348E+03  0.11444252267E+03  0.00000000000E+00 0.  1.
          2    1    1    2  501    0  0.90732541606E+01 -0.20224046985E+02 -0.40253666884E+01  0.22528639428E+02  0.00000000000E+00 0. -1.
<scales pt_clust_5="13000.00000" pt_clust_6="13000.00000" pt_clust_7="13000.00000" pt_clust_8="13000.00000" pt_clust_9="22.16610"></scales>
<clustering>
<clus scale="   22.166">  1  9  2 -1</clus>
<clus scale="   89.532">  7  8 -1 -1</clus>
<clus scale="   90.488">  5  6 -1 -1</clus>
<clus scale="  140.200">  1  7  2 -1</clus>
<clus scale="   22.166">  1  5  2 -1</clus>
</clustering>
</event>
<event>
 9    1  0.1464797E-005  0.1006134E+03  0.7546771E-02  0.1279602E+00
         21   -1    0    0  501  502  0.00000000000E+00  0.00000000000E+00  0.73825994926E+03  0.73825994926E+03  0.00000000000E+00 0. -1.
          1   -1    0    0  502    0 -0.00000000000E+00 -0.00000000000E+00 -0.34981803054E+02  0.34981803054E+02  0.00000000000E+00 0. -1.
         23    2    1    2    0    0 -0.25799967318E+02  0.15659120700E+02  0.12150145194E+03  0.15433389311E+03  0.90252431356E+02 0.  0.
         23    2    1    2    0    0  0.89618569862E+01 -0.68354958125E+02  0.18014724266E+03  0.21348636293E+03  0.91491436415E+02 0.  0.
        -11    1    4    4    0    0  0.49295781550E+02 -0.35346078231E+02  0.11537495144E+03  0.13034875812E+03  0.00000000000E+00 0.  1.
         11    1    4    4    0    0 -0.40333924564E+02 -0.33008879894E+02  0.64772291225E+02  0.83137604807E+02  0.00000000000E+00 0. -1.
        -13    1    3    3    0    0 -0.94196817382E+01  0.27777565593E+02  0.12924865716E+03  0.13253504794E+03  0.00000000000E+00 0.  1.
         13    1    3    3    0    0 -0.16380285580E+02 -0.12118444893E+02 -0.77472052197E+01  0.21798845177E+02  0.00000000000E+00 0. -1.
          1    1    1    2  501    0  0.16838110332E+02  0.52695837425E+02  0.40162945160E+03  0.40542149627E+03  0.00000000000E+00 0. -1.
<scales pt_clust_5="13000.00000" pt_clust_6="13000.00000" pt_clust_7="13000.00000" pt_clust_8="13000.00000" pt_clust_9="55.32064"></scales>
<clustering>
<clus scale="   55.321">  1  9  2 -1</clus>
<clus scale="   90.252">  7  8 -1 -1</clus>
<clus scale="   91.491">  5  6 -1 -1</clus>
<clus scale="   99.488">  2  7  1 -1</clus>
<clus scale="   55.321">  1  5  2 -1</clus>
</clustering>
</event>
<event>
 9    1  0.1464797E-005  0.9905014E+02  0.7546771E-02  0.1283090E+00
         21   -1    0    0  501  502  0.00000000000E+00  0.00000000000E+00  0.23236973356E+03  0.23236973356E+03  0.00000000000E+00 0. -1.
          1   -1    0    0  502    0 -0.00000000000E+00 -0.00000000000E+00 -0.11771243093E+03  0.11771243093E+03  0.00000000000E+00 0. -1.
         23    2    1    2    0    0  0.28792902200E+01 -0.25212359544E+02 -0.44155994311E+02  0.10409987198E+03  0.90791398970E+02 0.  0.
         23    2    1    2    0    0  0.11799339124E+02  0.85038738803E+02  0.11117457188E+03  0.16810992296E+03  0.92359889905E+02 0.  0.
        -11    1    4    4    0    0  0.59428853207E+01  0.26563519528E+02  0.10563036764E+03  0.10908122214E+03  0.00000000000E+00 0.  1.
         11    1    4    4    0    0  0.58564538029E+01  0.58475219274E+02  0.55442042477E+01  0.59028700825E+02  0.00000000000E+00 0. -1.
        -13    1    3    3    0    0 -0.37287755277E+02 -0.35144094557E+02 -0.34003901086E+02  0.61495929661E+02  0.00000000000E+00 0.  1.
         13    1    3    3    0    0  0.40167045497E+02  0.99317350132E+01 -0.10152093225E+02  0.42603942320E+02  0.00000000000E+00 0. -1.
          1    1    1    2  501    0 -0.14678629344E+02 -0.59826379259E+02  0.47638725051E+02  0.77872369549E+02  0.00000000000E+00 0. -1.
<scales pt_clust_5="13000.00000" pt_clust_6="13000.00000" pt_clust_7="13000.00000" pt_clust_8="13000.00000" pt_clust_9="61.60079"></scales>
<clustering>
<clus scale="   61.601">  1  9  2 -1</clus>
<clus scale="   90.791">  7  8 -1 -1</clus>
<clus scale="   92.360">  5  6 -1 -1</clus>
<clus scale="   97.589">  2  7  1 -1</clus>
<clus scale="   61.601">  1  5  2 -1</clus>
</clustering>
</event>
<event>
 9    1  0.1464797E-005  0.1032554E+03  0.7546771E-02  0.1277435E+00
         21   -1    0    0  501  502  0.00000000000E+00  0.00000000000E+00  0.16535619187E+03  0.16535619187E+03  0.00000000000E+00 0.  1.
          3   -1    0    0  502    0 -0.00000000000E+00 -0.00000000000E+00 -0.93429791043E+02  0.93429791043E+02  0.00000000000E+00 0. -1.
         23    2    1    2    0    0  0.17384058200E+02 -0.35413855075E+02  0.13759761381E+01  0.10046326810E+03  0.92383052102E+02 0.  0.
         23    2    1    2    0    0 -0.44668743498E+02  0.35616669901E+02  0.24176486039E+02  0.10451716332E+03  0.84115938626E+02 0.  0.
        -11    1    4    4    0    0 -0.10920717813E+02  0.20860711630E+02 -0.30537005480E+02  0.38560861906E+02  0.00000000000E+00 0. -1.
         11    1    4    4    0    0 -0.33748025685E+02  0.14755958272E+02  0.54713491519E+02  0.65956301415E+02  0.00000000000E+00 0.  1.
        -11    1    3    3    0    0  0.33749183963E+02 -0.61067234030E+02  0.42312891128E+01  0.69900774658E+02  0.00000000000E+00 0. -1.
         11    1    3    3    0    0 -0.16365125764E+02  0.25653378955E+02 -0.28553129747E+01  0.30562493440E+02  0.00000000000E+00 0.  1.
          3    1    1    2  501    0  0.27284685299E+02 -0.20281482665E+00  0.46373938654E+02  0.53805551498E+02  0.00000000000E+00 0. -1.
<scales pt_clust_5="13000.00000" pt_clust_6="13000.00000" pt_clust_7="13000.00000" pt_clust_8="13000.00000" pt_clust_9="27.28544"></scales>
<clustering>
<clus scale="   27.285">  1  9  2 -1</clus>
<clus scale="   84.116">  5  6 -1 -1</clus>
<clus scale="   92.383">  7  8 -1 -1</clus>
<clus scale="   95.930">  1  5  2 -1</clus>
<clus scale="   27.285">  1  5  2 -1</clus>
</clustering>
</event>
<event>
 9    1  0.1464797E-005  0.1050503E+03  0.7546771E-02  0.1270067E+00
         21   -1    0    0  501  502  0.00000000000E+00  0.00000000000E+00  0.17796864421E+03  0.17796864421E+03  0.00000000000E+00 0. -1.
          1   -1    0    0  502    0 -0.00000000000E+00 -0.00000000000E+00 -0.17998253945E+03  0.17998253945E+03  0.00000000000E+00 0. -1.
         23    2    1    2    0    0 -0.75111565308E+01  0.48401811356E+02 -0.11998588237E+03  0.15899772723E+03  0.92111413405E+02 0.  0.
         23    2    1    2    0    0  0.46499485866E+02 -0.47521818013E+02  0.58553208443E+02  0.12787986448E+03  0.92218523887E+02 0.  0.
        -11    1    3    3    0    0 -0.24641296493E+02 -0.21272295427E+02 -0.35921562228E+02  0.48477445050E+02  0.00000000000E+00 0.  1.
         11    1    3    3    0    0  0.17130139962E+02  0.69674106783E+02 -0.84064320143E+02  0.11052028218E+03  0.00000000000E+00 0. -1.
        -11    1    4    4    0    0  0.69176880555E+02 -0.55198808612E+02  0.37951929433E+02  0.96294850450E+02  0.00000000000E+00 0.  1.
         11    1    4    4    0    0 -0.22677394690E+02  0.76769905982E+01  0.20601279010E+02  0.31585014032E+02  0.00000000000E+00 0. -1.
          1    1    1    2  501    0 -0.38988329335E+02 -0.87999334234E+00  0.59418778689E+02  0.71073591956E+02  0.00000000000E+00 0. -1.
<scales pt_clust_5="13000.00000" pt_clust_6="13000.00000" pt_clust_7="13000.00000" pt_clust_8="13000.00000" pt_clust_9="38.99826"></scales>
<clustering>
<clus scale="   38.998">  1  9  2 -1</clus>
<clus scale="   92.111">  5  6 -1 -1</clus>
<clus scale="   92.219">  7  8 -1 -1</clus>
<clus scale="  104.956">  2  5  1 -1</clus>
<clus scale="   38.998">  1  5  2 -1</clus>
</clustering>
</event>
<event>
 9    1  0.1464797E-005  0.9486917E+02  0.7546771E-02  0.1291476E+00
         21   -1    0    0  501  502  0.00000000000E+00  0.00000000000E+00  0.38500410746E+03  0.38500410746E+03  0.00000000000E+00 0. -1.
          1   -1    0    0  502    0 -0.00000000000E+00 -0.00000000000E+00 -0.81036278498E+02  0.81036278498E+02  0.00000000000E+00 0. -1.
         23    2    1    2    0    0 -0.19834830636E+00  0.13899882560E+02  0.21494558866E+02  0.93606342338E+02  0.90038242918E+02 0.  0.
         23    2    1    2    0    0 -0.58635002129E+02 -0.14833705025E+02  0.29088015641E+02  0.11230653196E+03  0.90047444092E+02 0.  0.
        -11    1    4    4    0    0 -0.43095686724E+02 -0.39632396735E+00 -0.28007338565E+02  0.51398504846E+02  0.00000000000E+00 0. -1.
         11    1    4    4    0    0 -0.15539315405E+02 -0.14437381057E+02  0.57095354206E+02  0.60908027114E+02  0.00000000000E+00 0.  1.
        -13    1    3    3    0    0  0.37656304245E+02  0.29290164158E+02  0.22464837363E+02  0.52731204078E+02  0.00000000000E+00 0.  1.
         13    1    3    3    0    0 -0.37854652551E+02 -0.15390281597E+02 -0.97027849685E+00  0.40875138260E+02  0.00000000000E+00 0. -1.
          1    1    1    2  501    0  0.58833350435E+02  0.93382246464E+00  0.25338525445E+03  0.26012751166E+03  0.00000000000E+00 0. -1.
<scales pt_clust_5="13000.00000" pt_clust_6="13000.00000" pt_clust_7="13000.00000" pt_clust_8="13000.00000" pt_clust_9="58.84076"></scales>
<clustering>
<clus scale="   58.841">  1  9  2 -1</clus>
<clus scale="   90.038">  7  8 -1 -1</clus>
<clus scale="   90.047">  5  6 -1 -1</clus>
<clus scale="   94.860">  2  7  1 -1</clus>
<clus scale="   58.841">  1  5  2 -1</clus>
</clustering>
</event>
<event>
 9    1  0.1464797E-005  0.1184734E+03  0.7546771E-02  0.1247813E+00
         -3   -1    0    0    0  501 -0.00000000000E+00  0.00000000000E+00  0.28970598437E+03  0.28970598437E+03  0.00000000000E+00 0.  1.
         21   -1    0    0  501  502  0.00000000000E+00 -0.00000000000E+00 -0.88227292024E+02  0.88227292024E+02  0.00000000000E+00 0. -1.
         23    2    1    2    0    0 -0.60469039927E+02  0.15015355156E+02  0.12894605855E+03  0.16603701719E+03  0.84019279829E+02 0.  0.
         23    2    1    2    0    0  0.10604159007E+03 -0.42331301242E+02  0.56380027675E+02  0.15636316167E+03  0.90741241549E+02 0.  0.
        -11    1    3    3    0    0 -0.39138964945E+02 -0.12928106522E+02  0.12383323236E+03  0.13051307962E+03  0.00000000000E+00 0.  1.
         11    1    3    3    0    0 -0.21330074982E+02  0.27943461678E+02  0.51128261924E+01  0.35523937577E+02  0.00000000000E+00 0. -1.
        -11    1    4    4    0    0  0.88331698435E+02 -0.22392456086E+02 -0.30997330585E+01  0.91178502856E+02  0.00000000000E+00 0. -1.
         11    1    4    4    0    0  0.17709891632E+02 -0.19938845156E+02  0.59479760734E+02  0.65184658814E+02  0.00000000000E+00 0.  1.
         -3    1    1    2    0  502 -0.45572550141E+02  0.27315946086E+02  0.16152606125E+02  0.55533097532E+02  0.00000000000E+00 0.  1.
<scales pt_clust_5="13000.00000" pt_clust_6="13000.00000" pt_clust_7="13000.00000" pt_clust_8="13000.00000" pt_clust_9="53.13208"></scales>
<clustering>
<clus scale="   53.132">  2  9  1 -1</clus>
<clus scale="   84.019">  5  6 -1 -1</clus>
<clus scale="   90.741">  7  8 -1 -1</clus>
<clus scale="  113.407">  1  5  2 -1</clus>
<clus scale="   53.132">  2  5  1 -1</clus>
</clustering>
</event>
<event>
 9    1  0.1464797E-005  0.1093504E+03  0.7546771E-02  0.1268526E+00
         -2   -1    0    0    0  501 -0.00000000000E+00  0.00000000000E+00  0.34696094041E+03  0.34696094041E+03  0.00000000000E+00 0.  1.
         21   -1    0    0  501  502  0.00000000000E+00 -0.00000000000E+00 -0.62362979295E+02  0.62362979295E+02  0.00000000000E+00 0.  1.
         23    2    1    2    0    0  0.43474821138E+02 -0.40926574285E+02  0.16075276807E+03  0.18643871861E+03  0.73163507295E+02 0.  0.
         23    2    1    2    0    0 -0.74437403962E+02  0.79975311995E+01  0.13250299684E+03  0.17686389102E+03  0.90104961911E+02 0.  0.
        -11    1    3    3    0    0  0.63966830781E+02 -0.28861942164E+02  0.12782840778E+03  0.14582478864E+03  0.00000000000E+00 0.  1.
         11    1    3    3    0    0 -0.20492009643E+02 -0.12064632121E+02  0.32924360290E+02  0.40613929974E+02  0.00000000000E+00 0. -1.
        -13    1    4    4    0    0 -0.37592219457E+02  0.22620565772E+02  0.59832351584E+01  0.44279386429E+02  0.00000000000E+00 0. -1.
         13    1    4    4    0    0 -0.36845184505E+02 -0.14623034573E+02  0.12651976168E+03  0.13258450459E+03  0.00000000000E+00 0.  1.
         -2    1    1    2    0  502  0.30962582824E+02  0.32929043085E+02 -0.86578038024E+01  0.46021310067E+02  0.00000000000E+00 0.  1.
<scales pt_clust_5="13000.00000" pt_clust_6="13000.00000" pt_clust_7="13000.00000" pt_clust_8="13000.00000" pt_clust_9="45.19960"></scales>
<clustering>
<clus scale="   45.200">  2  9  1 -1</clus>
<clus scale="   73.164">  5  6 -1 -1</clus>
<clus scale="   90.105">  7  8 -1 -1</clus>
<clus scale="   95.872">  1  5  2 -1</clus>
<clus scale="   45.200">  2  5  1 -1</clus>
</clustering>
</event>
<event>
 9    1  0.1464797E-005  0.1341821E+03  0.7546771E-02  0.1222938E+00
         21   -1    0    0  501  502  0.00000000000E+00  0.00000000000E+00  0.53750654496E+02  0.53750654496E+02  0.00000000000E+00 0.  1.
          1   -1    0    0  502    0 -0.00000000000E+00 -0.00000000000E+00 -0.48128563832E+03  0.48128563832E+03  0.00000000000E+00 0. -1.
         23    2    1    2    0    0  0.72687736905E+02 -0.49719823150E+02 -0.20683745089E+03  0.24267767941E+03  0.91406548341E+02 0.  0.
         23    2    1    2    0    0 -0.80380511155E+02  0.75045762387E+02 -0.22605629297E+03  0.26535309022E+03  0.84958353738E+02 0.  0.
        -13    1    4    4    0    0 -0.92194159697E+02  0.37557233609E+02 -0.15730168678E+03  0.18615619663E+03  0.00000000000E+00 0.  1.
         13    1    4    4    0    0  0.11813648543E+02  0.37488528778E+02 -0.68754606189E+02  0.79196893588E+02  0.00000000000E+00 0. -1.
        -13    1    3    3    0    0  0.71647447688E+01 -0.52120655388E+02 -0.49549202654E+02  0.72270462634E+02  0.00000000000E+00 0.  1.
         13    1    3    3    0    0  0.65522992136E+02  0.24008322379E+01 -0.15728824824E+03  0.17040721677E+03  0.00000000000E+00 0. -1.
          1    1    1    2  501    0  0.76927742498E+01 -0.25325939237E+02  0.53587600379E+01  0.27005523195E+02  0.00000000000E+00 0. -1.
<scales pt_clust_5="13000.00000" pt_clust_6="13000.00000" pt_clust_7="13000.00000" pt_clust_8="13000.00000" pt_clust_9="26.46851"></scales>
<clustering>
<clus scale="   26.469">  1  9  2 -1</clus>
<clus scale="   84.958">  5  6 -1 -1</clus>
<clus scale="   91.407">  7  8 -1 -1</clus>
<clus scale="  129.875">  1  5  2 -1</clus>
<clus scale="   26.469">  1  5  2 -1</clus>
</clustering>
</event>
<event>
 9    1  0.1464797E-005  0.2028367E+03  0.7546771E-02  0.1160368E+00
         21   -1    0    0  501  502  0.00000000000E+00  0.00000000000E+00  0.27538391093E+03  0.27538391093E+03  0.00000000000E+00 0. -1.
          2   -1    0    0  502    0 -0.00000000000E+00 -0.00000000000E+00 -0.50268301947E+03  0.50268301947E+03  0.00000000000E+00 0. -1.
         23    2    1    2    0    0  0.39475017330E+02  0.11239681038E+03 -0.11390026473E+03  0.18784664221E+03  0.90120867226E+02 0.  0.
         23    2    1    2    0    0 -0.20535416557E+03 -0.36513663095E+02 -0.26780607121E+03  0.35123130156E+03  0.90220588045E+02 0.  0.
        -11    1    4    4    0    0 -0.15989988928E+03 -0.29438941513E+02 -0.25678241238E+03  0.30392734852E+03  0.00000000000E+00 0. -1.
         11    1    4    4    0    0 -0.45454276295E+02 -0.70747215819E+01 -0.11023658820E+02  0.47303953035E+02  0.00000000000E+00 0.  1.
        -11    1    3    3    0    0  0.23270468279E+02 -0.91484906875E+01 -0.93168975723E+01  0.26683593389E+02  0.00000000000E+00 0.  1.
         11    1    3    3    0    0  0.16204549051E+02  0.12154530106E+03 -0.10458336716E+03  0.16116304882E+03  0.00000000000E+00 0. -1.
          2    1    1    2  501    0  0.16587914824E+03 -0.75883147281E+02  0.15440722738E+03  0.23898898663E+03  0.00000000000E+00 0. -1.
<scales pt_clust_5="13000.00000" pt_clust_6="13000.00000" pt_clust_7="13000.00000" pt_clust_8="13000.00000" pt_clust_9="181.66716"></scales>
<clustering>
<clus scale="   90.121">  7  8 -1 -1</clus>
<clus scale="   90.221">  5  6 -1 -1</clus>
<clus scale="  149.376">  2  7  1 -1</clus>
<clus scale="  181.667">  1  9  2 -1</clus>
<clus scale="  181.667">  1  5  2 -1</clus>
</clustering>
</event>
<event>
 9    1  0.1464797E-005  0.1213259E+03  0.7546771E-02  0.1242140E+00
         -1   -1    0    0    0  501 -0.00000000000E+00  0.00000000000E+00  0.11256216598E+03  0.11256216598E+03  0.00000000000E+00 0.  1.
         21   -1    0    0  501  502  0.00000000000E+00 -0.00000000000E+00 -0.27594289468E+03  0.27594289468E+03  0.00000000000E+00 0.  1.
         23    2    1    2    0    0 -0.71387578971E+02  0.16557521475E+02 -0.35740451432E+01  0.11540075742E+03  0.89074255905E+02 0.  0.
         23    2    1    2    0    0  0.89998730658E+02  0.57008522408E+02 -0.77819447900E+02  0.16138928819E+03  0.92956402267E+02 0.  0.
        -11    1    3    3    0    0 -0.45979198812E+02 -0.34899754375E+02  0.18715130460E+01  0.57754498872E+02  0.00000000000E+00 0.  1.
         11    1    3    3    0    0 -0.25408380159E+02  0.51457275850E+02 -0.54455581892E+01  0.57646258545E+02  0.00000000000E+00 0. -1.
        -13    1    4    4    0    0  0.44071807736E+02  0.78976725641E+02 -0.48030441613E+02  0.10240395867E+03  0.00000000000E+00 0.  1.
         13    1    4    4    0    0  0.45926922923E+02 -0.21968203232E+02 -0.29789006287E+02  0.58985329515E+02  0.00000000000E+00 0. -1.
         -1    1    1    2    0  502 -0.18611151688E+02 -0.73566043883E+02 -0.81987235654E+02  0.11171501506E+03  0.00000000000E+00 0.  1.
<scales pt_clust_5="13000.00000" pt_clust_6="13000.00000" pt_clust_7="13000.00000" pt_clust_8="13000.00000" pt_clust_9="75.88371"></scales>
<clustering>
<clus scale="   75.884">  2  9  1 -1</clus>
<clus scale="   89.074">  5  6 -1 -1</clus>
<clus scale="   92.956">  7  8 -1 -1</clus>
<clus scale="  118.378">  1  5  2 -1</clus>
<clus scale="   75.884">  2  5  1 -1</clus>
</clustering>
</event>
<event>
 9    1  0.1464797E-005  0.1407786E+03  0.7546771E-02  0.1213006E+00
         -2   -1    0    0    0  501 -0.00000000000E+00  0.00000000000E+00  0.25838906742E+03  0.25838906742E+03  0.00000000000E+00 0.  1.
         21   -1    0    0  501  502  0.00000000000E+00 -0.00000000000E+00 -0.15433216813E+03  0.15433216813E+03  0.00000000000E+00 0. -1.
         23    2    1    2    0    0  0.87971877239E+02  0.47340073334E+02  0.16139405402E+03  0.21135833671E+03  0.92974039889E+02 0.  0.
         23    2    1    2    0    0 -0.12085601240E+03 -0.52292320220E+02 -0.52498310520E+02  0.16775775775E+03  0.89699109191E+02 0.  0.
        -13    1    4    4    0    0 -0.20307336121E+02 -0.54037275616E+02 -0.28457470427E+02  0.64360256987E+02  0.00000000000E+00 0. -1.
         13    1    4    4    0    0 -0.10054867628E+03  0.17449553963E+01 -0.24040840093E+02  0.10339750076E+03  0.00000000000E+00 0.  1.
        -13    1    3    3    0    0  0.64484480039E+02  0.52681442330E+02  0.16701728538E+03  0.18662356804E+03  0.00000000000E+00 0.  1.
         13    1    3    3    0    0  0.23487397200E+02 -0.53413689960E+01 -0.56232313604E+01  0.24734768665E+02  0.00000000000E+00 0. -1.
         -2    1    1    2    0  502  0.32884135164E+02  0.49522468859E+01 -0.48388442063E+01  0.33605141094E+02  0.00000000000E+00 0.  1.
<scales pt_clust_5="13000.00000" pt_clust_6="13000.00000" pt_clust_7="13000.00000" pt_clust_8="13000.00000" pt_clust_9="33.25494"></scales>
<clustering>
<clus scale="   33.255">  2  9  1 -1</clus>
<clus scale="   89.699">  5  6 -1 -1</clus>
<clus scale="   92.974">  7  8 -1 -1</clus>
<clus scale="  138.638">  2  5  1 -1</clus>
<clus scale="   33.255">  2  5  1 -1</clus>
</clustering>
</event>
<event>
 9    1  0.1464797E-005  0.1629000E+03  0.7546771E-02  0.1185848E+00
         21   -1    0    0  501  502  0.00000000000E+00  0.00000000000E+00  0.46833572171E+02  0.46833572171E+02  0.00000000000E+00 0. -1.
          2   -1    0    0  502    0 -0.00000000000E+00 -0.00000000000E+00 -0.91056654406E+03  0.91056654406E+03  0.00000000000E+00 0. -1.
         23    2    1    2    0    0 -0.92987697041E+02  0.10800525654E+03 -0.50383903093E+03  0.53189450905E+03  0.93520866299E+02 0.  0.
         23    2    1    2    0    0  0.86104602460E+02 -0.74370537905E+02 -0.13711111196E+03  0.20009296294E+03  0.91064577740E+02 0.  0.
        -11    1    3    3    0    0 -0.47075078185E+02  0.12406258534E+02 -0.69886888739E+02  0.85171330003E+02  0.00000000000E+00 0.  1.
         11    1    3    3    0    0 -0.45912618856E+02  0.95598998004E+02 -0.43395214219E+03  0.44672317905E+03  0.00000000000E+00 0. -1.
        -11    1    4    4    0    0  0.31716986996E+02 -0.75635822669E+02 -0.46162939778E+02  0.94115683836E+02  0.00000000000E+00 0.  1.
         11    1    4    4    0    0  0.54387615464E+02  0.12652847635E+01 -0.90948172186E+02  0.10597727910E+03  0.00000000000E+00 0. -1.
          2    1    1    2  501    0  0.68830945806E+01 -0.33634718632E+02 -0.22278282900E+03  0.22541264424E+03  0.00000000000E+00 0. -1.
<scales pt_clust_5="13000.00000" pt_clust_6="13000.00000" pt_clust_7="13000.00000" pt_clust_8="13000.00000" pt_clust_9="34.33180"></scales>
<clustering>
<clus scale="   34.332">  1  9  2 -1</clus>
<clus scale="   91.065">  7  8 -1 -1</clus>
<clus scale="   93.521">  5  6 -1 -1</clus>
<clus scale="  161.502">  1  7  2 -1</clus>
<clus scale="   34.332">  1  5  2 -1</clus>
</clustering>
</event>
<event>
 9    1  0.1464797E-005  0.9627746E+02  0.7546771E-02  0.1289035E+00
         21   -1    0    0  501  502  0.00000000000E+00  0.00000000000E+00  0.26942745169E+02  0.26942745169E+02  0.00000000000E+00 0. -1.
         -1   -1    0    0    0  501 -0.00000000000E+00 -0.00000000000E+00 -0.48507186622E+03  0.48507186622E+03  0.00000000000E+00 0.  1.
         23    2    1    2    0    0  0.92213477294E+01  0.41098472584E+02 -0.23928452996E+03  0.25914611467E+03  0.90141581769E+02 0.  0.
         23    2    1    2    0    0 -0.40620295058E+01 -0.17153552283E+02 -0.20389508296E+03  0.22417240699E+03  0.91483980900E+02 0.  0.
        -11    1    4    4    0    0 -0.39828351342E+02  0.56194338193E+01 -0.48054819405E+02  0.62666907337E+02  0.00000000000E+00 0. -1.
         11    1    4    4    0    0  0.35766321836E+02 -0.22772986102E+02 -0.15584026356E+03  0.16150549965E+03  0.00000000000E+00 0.  1.
        -13    1    3    3    0    0  0.43638679795E+02  0.35631819540E+00 -0.13713854512E+03  0.14391470354E+03  0.00000000000E+00 0.  1.
         13    1    3    3    0    0 -0.34417332066E+02  0.40742154389E+02 -0.10214598484E+03  0.11523141113E+03  0.00000000000E+00 0. -1.
         -1    1    1    2    0  502 -0.51593182237E+01 -0.23944920302E+02 -0.14949508130E+02  0.28696089735E+02  0.00000000000E+00 0.  1.
<scales pt_clust_5="13000.00000" pt_clust_6="13000.00000" pt_clust_7="13000.00000" pt_clust_8="13000.00000" pt_clust_9="24.49444"></scales>
<clustering>
<clus scale="   24.494">  1  9  2 -1</clus>
<clus scale="   90.142">  7  8 -1 -1</clus>
<clus scale="   91.484">  5  6 -1 -1</clus>
<clus scale="   95.003">  2  7  1 -1</clus>
<clus scale="   24.494">  1  5  2 -1</clus>
</clustering>
</event>
<event>
 9    1  0.1464797E-005  0.1189107E+03  0.7546771E-02  0.1250382E+00
          2   -1    0    0  502    0 -0.00000000000E+00  0.00000000000E+00  0.69147871328E+03  0.69147871328E+03  0.00000000000E+00 0. -1.
         21   -1    0    0  501  502  0.00000000000E+00 -0.00000000000E+00 -0.41101968194E+02  0.41101968194E+02  0.00000000000E+00 0. -1.
         23    2    1    2    0    0  0.74019920853E+01 -0.58439232313E+02  0.54380621595E+03  0.55681394821E+03  0.10414719896E+03 0.  0.
         23    2    1    2    0    0 -0.32334489134E+02  0.45455323878E+02  0.60444782733E+02  0.12175010834E+03  0.89765313260E+02 0.  0.
        -11    1    3    3    0    0 -0.29315588623E+02  0.17180072537E+02  0.11827382939E+03  0.12305794305E+03  0.00000000000E+00 0.  1.
         11    1    3    3    0    0  0.36717580709E+02 -0.75619304850E+02  0.42553238656E+03  0.43375600516E+03  0.00000000000E+00 0. -1.
        -13    1    4    4    0    0  0.29114293811E+02  0.17891876016E+02  0.50419403504E+01  0.34542473768E+02  0.00000000000E+00 0.  1.
         13    1    4    4    0    0 -0.61448782945E+02  0.27563447863E+02  0.55402842383E+02  0.87207634572E+02  0.00000000000E+00 0. -1.
          2    1    1    2  501    0  0.24932497048E+02  0.12983908435E+02  0.46125746400E+02  0.54016624925E+02  0.00000000000E+00 0. -1.
<scales pt_clust_5="13000.00000" pt_clust_6="13000.00000" pt_clust_7="13000.00000" pt_clust_8="13000.00000" pt_clust_9="28.11070"></scales>
<clustering>
<clus scale="   28.111">  2  9  1 -1</clus>
<clus scale="   89.765">  7  8 -1 -1</clus>
<clus scale="  104.147">  5  6 -1 -1</clus>
<clus scale="  106.541">  2  7  1 -1</clus>
<clus scale="   28.111">  2  5  1 -1</clus>
</clustering>
</event>
<event>
 9    1  0.1464797E-005  0.1669819E+03  0.7546771E-02  0.1181971E+00
         -3   -1    0    0    0  501 -0.00000000000E+00  0.00000000000E+00  0.15727141671E+03  0.15727141671E+03  0.00000000000E+00 0.  1.
         21   -1    0    0  501  502  0.00000000000E+00 -0.00000000000E+00 -0.34075776885E+03  0.34075776885E+03  0.00000000000E+00 0. -1.
         23    2    1    2    0    0  0.14414455084E+03 -0.26086591422E+02  0.68786351714E+02  0.18245053287E+03  0.84252436006E+02 0.  0.
         23    2    1    2    0    0 -0.10932609035E+03  0.45387130422E+02 -0.18848090718E+03  0.24038404304E+03  0.90814371877E+02 0.  0.
        -11    1    4    4    0    0 -0.11294320087E+03  0.17702805006E+02 -0.11670665670E+03  0.16337074293E+03  0.00000000000E+00 0.  1.
         11    1    4    4    0    0  0.36171105186E+01  0.27684325416E+02 -0.71774250481E+02  0.77013300113E+02  0.00000000000E+00 0. -1.
        -11    1    3    3    0    0  0.24445839043E+02 -0.31415608148E+02  0.45386872116E+02  0.60369757680E+02  0.00000000000E+00 0.  1.
         11    1    3    3    0    0  0.11969871180E+03  0.53290167261E+01  0.23399479597E+02  0.12208077519E+03  0.00000000000E+00 0. -1.
         -3    1    1    2    0  502 -0.34818460488E+02 -0.19300539000E+02 -0.63791796679E+02  0.75194609647E+02  0.00000000000E+00 0.  1.
<scales pt_clust_5="13000.00000" pt_clust_6="13000.00000" pt_clust_7="13000.00000" pt_clust_8="13000.00000" pt_clust_9="39.81000"></scales>
<clustering>
<clus scale="   39.810">  2  9  1 -1</clus>
<clus scale="   84.252">  7  8 -1 -1</clus>
<clus scale="   90.814">  5  6 -1 -1</clus>
<clus scale="  163.506">  1  7  2 -1</clus>
<clus scale="   39.810">  2  5  1 -1</clus>
</clustering>
</event>
<event>
 9    1  0.1464797E-005  0.1016939E+03  0.7546771E-02  0.1277109E+00
         21   -1    0    0  501  502  0.00000000000E+00  0.00000000000E+00  0.20431649874E+03  0.20431649874E+03  0.00000000000E+00 0. -1.
         -2   -1    0    0    0  501 -0.00000000000E+00 -0.00000000000E+00 -0.74314733970E+02  0.74314733970E+02  0.00000000000E+00 0.  1.
         23    2    1    2    0    0  0.44434436296E+02  0.66601717714E+01  0.29100307861E+02  0.10625368115E+03  0.91783657713E+02 0.  0.
         23    2    1    2    0    0 -0.31778056031E+02 -0.37515217319E+02  0.60073013011E+02  0.11965962645E+03  0.91062741744E+02 0.  0.
        -13    1    4    4    0    0 -0.48812828468E+02  0.75536623926E+01  0.10435838931E+02  0.50484223008E+02  0.00000000000E+00 0.  1.
         13    1    4    4    0    0  0.17034772437E+02 -0.45068879711E+02  0.49637174081E+02  0.69175403440E+02  0.00000000000E+00 0. -1.
        -13    1    3    3    0    0  0.68177821751E+02  0.14996307094E+02  0.28144809989E+01  0.69864339319E+02  0.00000000000E+00 0.  1.
         13    1    3    3    0    0 -0.23743385455E+02 -0.83361353227E+01  0.26285826862E+02  0.36389341830E+02  0.00000000000E+00 0. -1.
         -2    1    1    2    0  502 -0.12656380265E+02  0.30855045547E+02  0.40828443897E+02  0.52717925112E+02  0.00000000000E+00 0.  1.
<scales pt_clust_5="13000.00000" pt_clust_6="13000.00000" pt_clust_7="13000.00000" pt_clust_8="13000.00000" pt_clust_9="33.34993"></scales>
<clustering>
<clus scale="   33.350">  1  9  2 -1</clus>
<clus scale="   91.063">  5  6 -1 -1</clus>
<clus scale="   91.784">  7  8 -1 -1</clus>
<clus scale="  101.044">  1  5  2 -1</clus>
<clus scale="   33.350">  1  5  2 -1</clus>
</clustering>
</event>
<event>
 9    1  0.1464797E-005  0.1072953E+03  0.7546771E-02  0.1273895E+00
         -1   -1    0    0    0  501 -0.00000000000E+00  0.00000000000E+00  0.47105445537E+03  0.47105445537E+03  0.00000000000E+00 0.  1.
         21   -1    0    0  501  502  0.00000000000E+00 -0.00000000000E+00 -0.52941376466E+02  0.52941376466E+02  0.00000000000E+00 0. -1.
         23    2    1    2    0    0 -0.13085406020E+00 -0.61679888960E+01  0.35262641662E+03  0.36862027073E+03  0.10722617726E+03 0.  0.
         23    2    1    2    0    0  0.13723912780E+02 -0.21881519216E+02  0.76861044654E+02  0.12219540552E+03  0.91416356736E+02 0.  0.
        -11    1    4    4    0    0 -0.30400938801E+02 -0.30518498701E+01  0.66401729939E+02  0.73093916344E+02  0.00000000000E+00 0.  1.
         11    1    4    4    0    0  0.44124851581E+02 -0.18829669345E+02  0.10459314716E+02  0.49101489173E+02  0.00000000000E+00 0. -1.
        -13    1    3    3    0    0  0.43456806266E+02 -0.30428258646E+02  0.12870716311E+03  0.13921173360E+03  0.00000000000E+00 0. -1.
         13    1    3    3    0    0 -0.43587660326E+02  0.24260269750E+02  0.22391925350E+03  0.22940853714E+03  0.00000000000E+00 0.  1.
         -1    1    1    2    0  502 -0.13593058720E+02  0.28049508112E+02 -0.11374382364E+02  0.33180155588E+02  0.00000000000E+00 0.  1.
<scales pt_clust_5="13000.00000" pt_clust_6="13000.00000" pt_clust_7="13000.00000" pt_clust_8="13000.00000" pt_clust_9="31.16964"></scales>
<clustering>
<clus scale="   31.170">  2  9  1 -1</clus>
<clus scale="   91.416">  5  6 -1 -1</clus>
<clus scale="   91.497">  2  5  1 -1</clus>
<clus scale="  107.226">  7  8 -1 -1</clus>
<clus scale="   31.170">  2  5  1 -1</clus>
</clustering>
</event>
<event>
 9    1  0.1464797E-005  0.9441970E+02  0.7546771E-02  0.1292970E+00
         21   -1    0    0  501  502  0.00000000000E+00  0.00000000000E+00  0.70342650342E+02  0.70342650342E+02  0.00000000000E+00 0. -1.
          2   -1    0    0  502    0 -0.00000000000E+00 -0.00000000000E+00 -0.55481488756E+03  0.55481488756E+03  0.00000000000E+00 0. -1.
         23    2    1    2    0    0  0.20833645220E+02  0.11074340933E+02 -0.40951991055E+03  0.42020987950E+03  0.91176224369E+02 0.  0.
         23    2    1    2    0    0 -0.35991594700E+02  0.20985931504E+02 -0.11461283235E+03  0.15174446102E+03  0.90302136737E+02 0.  0.
        -11    1    4    4    0    0  0.23146478008E+02  0.24740858220E+02 -0.17891446530E+02  0.38314140582E+02  0.00000000000E+00 0.  1.
         11    1    4    4    0    0 -0.59138072708E+02 -0.37549267152E+01 -0.96721385825E+02  0.11343032044E+03  0.00000000000E+00 0. -1.
        -13    1    3    3    0    0  0.13245129793E+02 -0.39486416431E+02 -0.22041766630E+03  0.22431798449E+03  0.00000000000E+00 0. -1.
         13    1    3    3    0    0  0.75885154276E+01  0.50560757364E+02 -0.18910224425E+03  0.19589189501E+03  0.00000000000E+00 0.  1.
          2    1    1    2  501    0  0.15157949479E+02 -0.32060272437E+02  0.39660505684E+02  0.53203197388E+02  0.00000000000E+00 0. -1.
<scales pt_clust_5="13000.00000" pt_clust_6="13000.00000" pt_clust_7="13000.00000" pt_clust_8="13000.00000" pt_clust_9="35.46300"></scales>
<clustering>
<clus scale="   35.463">  1  9  2 -1</clus>
<clus scale="   90.302">  5  6 -1 -1</clus>
<clus scale="   91.176">  7  8 -1 -1</clus>
<clus scale="   93.576">  1  5  2 -1</clus>
<clus scale="   35.463">  1  5  2 -1</clus>
</clustering>
</event>
<event>
 9    1  0.1464797E-005  0.1301592E+03  0.7546771E-02  0.1235741E+00
         21   -1    0    0  501  502  0.00000000000E+00  0.00000000000E+00  0.36518977662E+03  0.36518977662E+03  0.00000000000E+00 0.  1.
          1   -1    0    0  502    0 -0.00000000000E+00 -0.00000000000E+00 -0.16418315460E+03  0.16418315460E+03  0.00000000000E+00 0. -1.
         23    2    1    2    0    0  0.19285694845E+02  0.55192756773E+02  0.26616958501E+03  0.28770175603E+03  0.92238137525E+02 0.  0.
         23    2    1    2    0    0 -0.33639806049E+02  0.53066460956E+02 -0.71352835445E+02  0.13228921482E+03  0.91986539248E+02 0.  0.
        -11    1    3    3    0    0 -0.11219004506E+02  0.64761285338E+02  0.23101994832E+03  0.24018764886E+03  0.00000000000E+00 0.  1.
         11    1    3    3    0    0  0.30504699351E+02 -0.95685285653E+01  0.35149636688E+02  0.47514107175E+02  0.00000000000E+00 0. -1.
        -13    1    4    4    0    0 -0.23008970495E+02 -0.22172756432E+02 -0.37029153954E+02  0.48910143054E+02  0.00000000000E+00 0.  1.
         13    1    4    4    0    0 -0.10630835554E+02  0.75239217388E+02 -0.34323681491E+02  0.83379071768E+02  0.00000000000E+00 0. -1.
          1    1    1    2  501    0  0.14354111204E+02 -0.10825921773E+03  0.61898724476E+01  0.10938196036E+03  0.00000000000E+00 0. -1.
<scales pt_clust_5="13000.00000" pt_clust_6="13000.00000" pt_clust_7="13000.00000" pt_clust_8="13000.00000" pt_clust_9="92.08638"></scales>
<clustering>
<clus scale="   91.987">  7  8 -1 -1</clus>
<clus scale="   92.238">  5  6 -1 -1</clus>
<clus scale="  109.207">  2  5  1 -1</clus>
<clus scale="   92.086">  1  9  2 -1</clus>
<clus scale="   92.086">  1  5  2 -1</clus>
</clustering>
</event>
<event>
 9    1  0.1464797E-005  0.9287889E+02  0.7546771E-02  0.1297694E+00
         -1   -1    0    0    0  501 -0.00000000000E+00  0.00000000000E+00  0.34387363937E+02  0.34387363937E+02  0.00000000000E+00 0.  1.
         21   -1    0    0  501  502  0.00000000000E+00 -0.00000000000E+00 -0.53619633129E+03  0.53619633129E+03  0.00000000000E+00 0.  1.
         23    2    1    2    0    0  0.10443933306E+02  0.26161663627E+02 -0.88875035551E+02  0.12862548886E+03  0.88612843621E+02 0.  0.
         23    2    1    2    0    0 -0.20242845179E+02  0.27051926157E+02 -0.20370994522E+03  0.22585086875E+03  0.91483843606E+02 0.  0.
        -11    1    4    4    0    0 -0.51110467672E+02  0.18843325741E+02 -0.17363590598E+03  0.18198016012E+03  0.00000000000E+00 0.  1.
         11    1    4    4    0    0  0.30867622493E+02  0.82086004161E+01 -0.30074039239E+02  0.43870708626E+02  0.00000000000E+00 0. -1.
        -13    1    3    3    0    0  0.30231333719E+02 -0.24000687579E+02 -0.30859362046E+02  0.49419295509E+02  0.00000000000E+00 0. -1.
         13    1    3    3    0    0 -0.19787400413E+02  0.50162351206E+02 -0.58015673505E+02  0.79206193355E+02  0.00000000000E+00 0.  1.
         -1    1    1    2    0  502  0.97989118726E+01 -0.53213589784E+02 -0.20922398658E+03  0.21610733762E+03  0.00000000000E+00 0.  1.
<scales pt_clust_5="13000.00000" pt_clust_6="13000.00000" pt_clust_7="13000.00000" pt_clust_8="13000.00000" pt_clust_9="54.10827"></scales>
<clustering>
<clus scale="   54.108">  2  9  1 -1</clus>
<clus scale="   88.613">  7  8 -1 -1</clus>
<clus scale="   90.052">  1  7  2 -1</clus>
<clus scale="   91.484">  5  6 -1 -1</clus>
<clus scale="   54.108">  2  5  1 -1</clus>
</clustering>
</event>
<event>
 9    1  0.1464797E-005  0.1523263E+03  0.7546771E-02  0.1197708E+00
         -2   -1    0    0    0  501 -0.00000000000E+00  0.00000000000E+00  0.92495674708E+03  0.92495674708E+03  0.00000000000E+00 0.  1.
         21   -1    0    0  501  502  0.00000000000E+00 -0.00000000000E+00 -0.48014100541E+02  0.48014100541E+02  0.00000000000E+00 0.  1.
         23    2    1    2    0    0 -0.23544181611E+02  0.12428878011E+03  0.71773210216E+03  0.73475216927E+03  0.93377462092E+02 0.  0.
         23    2    1    2    0    0  0.42656229399E+02 -0.88918632756E+02  0.11210838425E+03  0.17629185716E+03  0.93725407028E+02 0.  0.
        -13    1    4    4    0    0  0.23352719683E+02  0.14506651190E+02  0.88651792232E+01  0.28885703176E+02  0.00000000000E+00 0.  1.
         13    1    4    4    0    0  0.19303509716E+02 -0.10342528395E+03  0.10324320503E+03  0.14740615398E+03  0.00000000000E+00 0. -1.
        -13    1    3    3    0    0 -0.57780696379E+02  0.98517404944E+02  0.53663381964E+03  0.54865302727E+03  0.00000000000E+00 0.  1.
         13    1    3    3    0    0  0.34236514768E+02  0.25771375167E+02  0.18109828251E+03  0.18609914199E+03  0.00000000000E+00 0. -1.
         -2    1    1    2    0  502 -0.19112047788E+02 -0.35370147355E+02  0.47102160129E+02  0.61926821196E+02  0.00000000000E+00 0.  1.
<scales pt_clust_5="13000.00000" pt_clust_6="13000.00000" pt_clust_7="13000.00000" pt_clust_8="13000.00000" pt_clust_9="40.20345"></scales>
<clustering>
<clus scale="   40.203">  2  9  1 -1</clus>
<clus scale="   93.377">  7  8 -1 -1</clus>
<clus scale="   93.725">  5  6 -1 -1</clus>
<clus scale="  152.112">  1  7  2 -1</clus>
<clus scale="   40.203">  2  5  1 -1</clus>
</clustering>
</event>
<event>
 9    1  0.1464797E-005  0.1084475E+03  0.7546771E-02  0.1269296E+00
         -1   -1    0    0    0  501 -0.00000000000E+00  0.00000000000E+00  0.32290364318E+02  0.32290364318E+02  0.00000000000E+00 0.  1.
         21   -1    0    0  501  502  0.00000000000E+00 -0.00000000000E+00 -0.47522306848E+03  0.47522306848E+03  0.00000000000E+00 0. -1.
         23    2    1    2    0    0 -0.35405758759E+02  0.32286043207E+02 -0.12956206081E+03  0.17146995105E+03  0.10158572818E+03 0.  0.
         23    2    1    2    0    0  0.83110568706E+01 -0.22956478196E+02 -0.22831766270E+03  0.24629286520E+03  0.89079440896E+02 0.  0.
        -13    1    3    3    0    0 -0.39366024799E+02  0.59812228616E+02 -0.50395057284E+02  0.87560541337E+02  0.00000000000E+00 0.  1.
         13    1    3    3    0    0  0.39602660401E+01 -0.27526185408E+02 -0.79167003528E+02  0.83909409710E+02  0.00000000000E+00 0. -1.
        -13    1    4    4    0    0  0.25448449112E+01  0.22632959250E+02 -0.13205109828E+02  0.26326830527E+02  0.00000000000E+00 0.  1.
         13    1    4    4    0    0  0.57662119594E+01 -0.45589437446E+02 -0.21511255287E+03  0.21996603467E+03  0.00000000000E+00 0. -1.
         -1    1    1    2    0  502  0.27094701889E+02 -0.93295650109E+01 -0.85052980652E+02  0.89750616552E+02  0.00000000000E+00 0.  1.
<scales pt_clust_5="13000.00000" pt_clust_6="13000.00000" pt_clust_7="13000.00000" pt_clust_8="13000.00000" pt_clust_9="28.65595"></scales>
<clustering>
<clus scale="   28.656">  2  9  1 -1</clus>
<clus scale="   89.079">  7  8 -1 -1</clus>
<clus scale="   96.832">  2  7  1 -1</clus>
<clus scale="  101.586">  5  6 -1 -1</clus>
<clus scale="   28.656">  2  5  1 -1</clus>
</clustering>
</event>
<event>
 9    1  0.1464797E-005  0.1120343E+03  0.7546771E-02  0.1261150E+00
          2   -1    0    0  502    0 -0.00000000000E+00  0.00000000000E+00  0.58299518351E+02  0.58299518351E+02  0.00000000000E+00 0. -1.
         21   -1    0    0  501  502  0.00000000000E+00 -0.00000000000E+00 -0.31839500524E+03  0.31839500524E+03  0.00000000000E+00 0. -1.
         23    2    1    2    0    0 -0.62030076413E+02 -0.17063652907E+02 -0.44538700973E+02  0.11810482601E+03  0.88465560606E+02 0.  0.
         23    2    1    2    0    0  0.32073547101E+02 -0.28916007401E+01 -0.13554832976E+03  0.17085738396E+03  0.98903094863E+02 0.  0.
        -11    1    4    4    0    0  0.37281054121E+02 -0.24464638846E+02 -0.13187940880E+02  0.46500724025E+02  0.00000000000E+00 0. -1.
         11    1    4    4    0    0 -0.52075070197E+01  0.21573038106E+02 -0.12236038888E+03  0.12435665993E+03  0.00000000000E+00 0.  1.
        -11    1    3    3    0    0 -0.52138354926E+02  0.21151095167E+02 -0.53484449338E+02  0.77629654142E+02  0.00000000000E+00 0.  1.
         11    1    3    3    0    0 -0.98917214870E+01 -0.38214748074E+02  0.89457483654E+01  0.40475171873E+02  0.00000000000E+00 0. -1.
          2    1    1    2  501    0  0.29956529311E+02  0.19955253647E+02 -0.80008456156E+02  0.87732313620E+02  0.00000000000E+00 0. -1.
<scales pt_clust_5="13000.00000" pt_clust_6="13000.00000" pt_clust_7="13000.00000" pt_clust_8="13000.00000" pt_clust_9="35.99452"></scales>
<clustering>
<clus scale="   35.995">  2  9  1 -1</clus>
<clus scale="   88.466">  7  8 -1 -1</clus>
<clus scale="   98.903">  5  6 -1 -1</clus>
<clus scale="  102.937">  1  7  2 -1</clus>
<clus scale="   35.995">  2  5  1 -1</clus>
</clustering>
</event>
<event>
 9    1  0.1464797E-005  0.3045873E+03  0.7546771E-02  0.1083086E+00
         21   -1    0    0  501  502  0.00000000000E+00  0.00000000000E+00  0.57673995827E+03  0.57673995827E+03  0.00000000000E+00 0.  1.
         -1   -1    0    0    0  501 -0.00000000000E+00 -0.00000000000E+00 -0.71405723396E+03  0.71405723396E+03  0.00000000000E+00 0.  1.
         23    2    1    2    0    0 -0.26838747154E+03  0.13007092956E+03 -0.61631549515E+03  0.69044584835E+03  0.88996619874E+02 0.  0.
         23    2    1    2    0    0  0.21362278417E+03 -0.89224367458E+02  0.21970602189E+03  0.33220948526E+03  0.92177678302E+02 0.  0.
        -11    1    4    4    0    0  0.16642419837E+03 -0.25548669187E+02  0.13162702513E+03  0.21371809012E+03  0.00000000000E+00 0.  1.
         11    1    4    4    0    0  0.47198585799E+02 -0.63675698271E+02  0.88078996762E+02  0.11849139514E+03  0.00000000000E+00 0. -1.
        -13    1    3    3    0    0 -0.19322822392E+03  0.11000894681E+03 -0.52710221582E+03  0.57208029228E+03  0.00000000000E+00 0.  1.
         13    1    3    3    0    0 -0.75159247620E+02  0.20061982751E+02 -0.89213279331E+02  0.11836555607E+03  0.00000000000E+00 0. -1.
         -1    1    1    2    0  502  0.54764687378E+02 -0.40846562100E+02  0.25929219757E+03  0.26814185861E+03  0.00000000000E+00 0.  1.
<scales pt_clust_5="13000.00000" pt_clust_6="13000.00000" pt_clust_7="13000.00000" pt_clust_8="13000.00000" pt_clust_9="68.31993"></scales>
<clustering>
<clus scale="   68.320">  1  9  2 -1</clus>
<clus scale="   88.997">  7  8 -1 -1</clus>
<clus scale="   92.178">  5  6 -1 -1</clus>
<clus scale="  303.640">  2  7  1 -1</clus>
<clus scale="   68.320">  1  5  2 -1</clus>
</clustering>
</event>
<event>
 9    1  0.1464797E-005  0.2118198E+03  0.7546771E-02  0.1140152E+00
         21   -1    0    0  501  502  0.00000000000E+00  0.00000000000E+00  0.44720932760E+03  0.44720932760E+03  0.00000000000E+00 0.  1.
         -3   -1    0    0    0  501 -0.00000000000E+00 -0.00000000000E+00 -0.19325540179E+03  0.19325540179E+03  0.00000000000E+00 0.  1.
         23    2    1    2    0    0  0.36772979408E+02  0.18202943155E+03 -0.57387542071E+02  0.21508587020E+03  0.92095795823E+02 0.  0.
         23    2    1    2    0    0 -0.29508119788E+02 -0.20327113423E+03  0.16934412728E+03  0.28161783230E+03  0.91876476210E+02 0.  0.
        -13    1    3    3    0    0  0.63203252457E+02  0.12750623716E+03 -0.59989548659E+02  0.15443845889E+03  0.00000000000E+00 0.  1.
         13    1    3    3    0    0 -0.26430273050E+02  0.54523194391E+02  0.26020065875E+01  0.60647411308E+02  0.00000000000E+00 0. -1.
        -13    1    4    4    0    0 -0.52474212579E+02 -0.14020922313E+03  0.79597308718E+02  0.16955205924E+03  0.00000000000E+00 0.  1.
         13    1    4    4    0    0  0.22966092791E+02 -0.63061911093E+02  0.89746818565E+02  0.11206577306E+03  0.00000000000E+00 0. -1.
         -3    1    1    2    0  502 -0.72648596194E+01  0.21241702676E+02  0.14199734060E+03  0.14376102690E+03  0.00000000000E+00 0.  1.
<scales pt_clust_5="13000.00000" pt_clust_6="13000.00000" pt_clust_7="13000.00000" pt_clust_8="13000.00000" pt_clust_9="22.44968"></scales>
<clustering>
<clus scale="   22.450">  1  9  2 -1</clus>
<clus scale="   91.876">  7  8 -1 -1</clus>
<clus scale="   92.096">  5  6 -1 -1</clus>
<clus scale="  211.724">  1  7  2 -1</clus>
<clus scale="   22.450">  1  5  2 -1</clus>
</clustering>
</event>
<event>
 9    1  0.1464797E-005  0.1276080E+03  0.7546771E-02  0.1234706E+00
         -1   -1    0    0    0  501 -0.00000000000E+00  0.00000000000E+00  0.15439798655E+03  0.15439798655E+03  0.00000000000E+00 0.  1.
         21   -1    0    0  501  502  0.00000000000E+00 -0.00000000000E+00 -0.75845194028E+03  0.75845194028E+03  0.00000000000E+00 0.  1.
         23    2    1    2    0    0 -0.20830202281E+02  0.69578973483E+02  0.99530502379E+02  0.15276642186E+03  0.90311283168E+02 0.  0.
         23    2    1    2    0    0 -0.24071810505E+02 -0.12422072144E+03 -0.23248512150E+03  0.28370498482E+03  0.10212221600E+03 0.  0.
        -11    1    3    3    0    0  0.31234175895E+02  0.54993191478E+01  0.39649978486E+02  0.50773389180E+02  0.00000000000E+00 0. -1.
         11    1    3    3    0    0 -0.52064378175E+02  0.64079654335E+02  0.59880523893E+02  0.10199303268E+03  0.00000000000E+00 0.  1.
        -13    1    4    4    0    0 -0.33414172368E+02 -0.51680341601E+02 -0.30097548522E+02  0.68507131381E+02  0.00000000000E+00 0.  1.
         13    1    4    4    0    0  0.93423618628E+01 -0.72540379837E+02 -0.20238757297E+03  0.21519785344E+03  0.00000000000E+00 0. -1.
         -1    1    1    2    0  502  0.44902012785E+02  0.54641747956E+02 -0.47109933462E+03  0.47637852014E+03  0.00000000000E+00 0.  1.
<scales pt_clust_5="13000.00000" pt_clust_6="13000.00000" pt_clust_7="13000.00000" pt_clust_8="13000.00000" pt_clust_9="70.72419"></scales>
<clustering>
<clus scale="   70.724">  2  9  1 -1</clus>
<clus scale="   90.311">  5  6 -1 -1</clus>
<clus scale="  102.122">  7  8 -1 -1</clus>
<clus scale="  118.368">  1  5  2 -1</clus>
<clus scale="   70.724">  2  5  1 -1</clus>
</clustering>
</event>
<event>
 9    1  0.1464797E-005  0.9394527E+02  0.7546771E-02  0.1295182E+00
          1   -1    0    0  502    0 -0.00000000000E+00  0.00000000000E+00  0.10432593619E+03  0.10432593619E+03  0.00000000000E+00 0. -1.
         21   -1    0    0  501  502  0.00000000000E+00 -0.00000000000E+00 -0.20646324451E+03  0.20646324451E+03  0.00000000000E+00 0. -1.
         23    2    1    2    0    0 -0.15127236661E+02  0.44119293879E+01  0.46289106775E+02  0.10495468810E+03  0.92868222431E+02 0.  0.
         23    2    1    2    0    0  0.80709292512E-01 -0.20972330511E+02 -0.50450173884E+02  0.10533579254E+03  0.90058669680E+02 0.  0.
        -11    1    3    3    0    0 -0.45745898468E+02 -0.57311614061E+00  0.56126971535E+02  0.72410307432E+02  0.00000000000E+00 0. -1.
         11    1    3    3    0    0  0.30618661807E+02  0.49850455285E+01 -0.98378647596E+01  0.32544380664E+02  0.00000000000E+00 0.  1.
        -13    1    4    4    0    0 -0.25301143791E+02 -0.45542913097E+02 -0.12679965787E+02  0.53619831619E+02  0.00000000000E+00 0. -1.
         13    1    4    4    0    0  0.25381853083E+02  0.24570582586E+02 -0.37770208097E+02  0.51715960923E+02  0.00000000000E+00 0.  1.
          1    1    1    2  501    0  0.15046527368E+02  0.16560401123E+02 -0.97976241217E+02  0.10049870006E+03  0.00000000000E+00 0. -1.
<scales pt_clust_5="13000.00000" pt_clust_6="13000.00000" pt_clust_7="13000.00000" pt_clust_8="13000.00000" pt_clust_9="22.37509"></scales>
<clustering>
<clus scale="   22.375">  2  9  1 -1</clus>
<clus scale="   90.059">  7  8 -1 -1</clus>
<clus scale="   91.169">  2  7  1 -1</clus>
<clus scale="   92.868">  5  6 -1 -1</clus>
<clus scale="   22.375">  2  5  1 -1</clus>
</clustering>
</event>
<event>
 9    1  0.1464797E-005  0.9230568E+02  0.7546771E-02  0.1298264E+00
         21   -1    0    0  501  502  0.00000000000E+00  0.00000000000E+00  0.35291912854E+03  0.35291912854E+03  0.00000000000E+00 0.  1.
          3   -1    0    0  502    0 -0.00000000000E+00 -0.00000000000E+00 -0.57351196941E+02  0.57351196941E+02  0.00000000000E+00 0. -1.
         23    2    1    2    0    0  0.13966621331E+02  0.92125908262E+01  0.80738788004E+01  0.91935790957E+02  0.90039234775E+02 0.  0.
         23    2    1    2    0    0  0.35002069489E+00  0.28583591299E+02  0.21219378253E+03  0.23287314954E+03  0.91578153634E+02 0.  0.
        -13    1    3    3    0    0  0.32088055885E+02  0.29162695469E+02 -0.24384504565E+02  0.49746459174E+02  0.00000000000E+00 0. -1.
         13    1    3    3    0    0 -0.18121434553E+02 -0.19950104643E+02  0.32458383366E+02  0.42189331782E+02  0.00000000000E+00 0.  1.
        -13    1    4    4    0    0 -0.93316108653E+01  0.59745099085E+02  0.10908327950E+03  0.12472256288E+03  0.00000000000E+00 0. -1.
         13    1    4    4    0    0  0.96816315602E+01 -0.31161507787E+02  0.10311050303E+03  0.10815058665E+03  0.00000000000E+00 0.  1.
          3    1    1    2  501    0 -0.14316642026E+02 -0.37796182125E+02  0.75300270263E+02  0.85461384987E+02  0.00000000000E+00 0. -1.
<scales pt_clust_5="13000.00000" pt_clust_6="13000.00000" pt_clust_7="13000.00000" pt_clust_8="13000.00000" pt_clust_9="40.41680"></scales>
<clustering>
<clus scale="   40.417">  1  9  2 -1</clus>
<clus scale="   90.039">  5  6 -1 -1</clus>
<clus scale="   90.779">  2  5  1 -1</clus>
<clus scale="   91.578">  7  8 -1 -1</clus>
<clus scale="   40.417">  1  5  2 -1</clus>
</clustering>
</event>
<event>
 9    1  0.1464797E-005  0.1110654E+03  0.7546771E-02  0.1259360E+00
         21   -1    0    0  501  502  0.00000000000E+00  0.00000000000E+00  0.40877110467E+03  0.40877110467E+03  0.00000000000E+00 0.  1.
          3   -1    0    0  502    0 -0.00000000000E+00 -0.00000000000E+00 -0.51310074653E+02  0.51310074653E+02  0.00000000000E+00 0. -1.
         23    2    1    2    0    0  0.73399725800E+02 -0.84381156842E+01  0.81830409591E+02  0.14353638423E+03  0.91911675646E+02 0.  0.
         23    2    1    2    0    0 -0.47789958350E+02  0.92821625871E+01  0.11504776773E+03  0.15393045014E+03  0.89936399524E+02 0.  0.
        -11    1    3    3    0    0  0.23024889449E+02 -0.27054345441E+02  0.82503943611E+02  0.89827522803E+02  0.00000000000E+00 0.  1.
         11    1    3    3    0    0  0.50374836351E+02  0.18616229757E+02 -0.67353402038E+00  0.53708861427E+02  0.00000000000E+00 0. -1.
        -13    1    4    4    0    0 -0.43771431807E+02  0.46440986996E+02  0.61494121270E+02  0.88624096421E+02  0.00000000000E+00 0.  1.
         13    1    4    4    0    0 -0.40185265428E+01 -0.37158824409E+02  0.53553646458E+02  0.65306353719E+02  0.00000000000E+00 0. -1.
          3    1    1    2  501    0 -0.25609767450E+02 -0.84404690289E+00  0.16058285270E+03  0.16261434495E+03  0.00000000000E+00 0. -1.
<scales pt_clust_5="13000.00000" pt_clust_6="13000.00000" pt_clust_7="13000.00000" pt_clust_8="13000.00000" pt_clust_9="25.62367"></scales>
<clustering>
<clus scale="   25.624">  1  9  2 -1</clus>
<clus scale="   89.936">  7  8 -1 -1</clus>
<clus scale="   91.912">  5  6 -1 -1</clus>
<clus scale="  109.436">  1  7  2 -1</clus>
<clus scale="   25.624">  1  5  2 -1</clus>
</clustering>
</event>
<event>
 9    1  0.1464797E-005  0.2080617E+03  0.7546771E-02  0.1144666E+00
         21   -1    0    0  501  502  0.00000000000E+00  0.00000000000E+00  0.56081934488E+02  0.56081934488E+02  0.00000000000E+00 0. -1.
          2   -1    0    0  502    0 -0.00000000000E+00 -0.00000000000E+00 -0.10392178944E+04  0.10392178944E+04  0.00000000000E+00 0. -1.
         23    2    1    2    0    0  0.40237160725E+02  0.16670999787E+03 -0.48112651800E+03  0.51595159578E+03  0.72883951433E+02 0.  0.
         23    2    1    2    0    0 -0.69319751246E+02 -0.19835018608E+03 -0.47794234076E+03  0.53009253352E+03  0.91767035344E+02 0.  0.
        -11    1    4    4    0    0 -0.20976033412E+02 -0.43636834338E+01 -0.15984409192E+02  0.26730825802E+02  0.00000000000E+00 0.  1.
         11    1    4    4    0    0 -0.48343717834E+02 -0.19398650265E+03 -0.46195793156E+03  0.50336170772E+03  0.00000000000E+00 0. -1.
        -11    1    3    3    0    0 -0.14535213834E+02  0.14327700483E+02 -0.27184852898E+02  0.33993700437E+02  0.00000000000E+00 0. -1.
         11    1    3    3    0    0  0.54772374559E+02  0.15238229739E+03 -0.45394166510E+03  0.48195789535E+03  0.00000000000E+00 0.  1.
          2    1    1    2  501    0  0.29082590521E+02  0.31640188211E+02 -0.24067101121E+02  0.49255699547E+02  0.00000000000E+00 0. -1.
<scales pt_clust_5="13000.00000" pt_clust_6="13000.00000" pt_clust_7="13000.00000" pt_clust_8="13000.00000" pt_clust_9="42.97556"></scales>
<clustering>
<clus scale="   42.976">  1  9  2 -1</clus>
<clus scale="   72.884">  7  8 -1 -1</clus>
<clus scale="   91.767">  5  6 -1 -1</clus>
<clus scale="  200.451">  2  7  1 -1</clus>
<clus scale="   42.976">  1  5  2 -1</clus>
</clustering>
</event>
<event>
 9    1  0.1464797E-005  0.1481463E+03  0.7546771E-02  0.1204187E+00
          2   -1    0    0  502    0 -0.00000000000E+00  0.00000000000E+00  0.76290930528E+03  0.76290930528E+03  0.00000000000E+00 0. -1.
         21   -1    0    0  501  502  0.00000000000E+00 -0.00000000000E+00 -0.44849384123E+02  0.44849384123E+02  0.00000000000E+00 0.  1.
         23    2    1    2    0    0  0.10371285382E+03 -0.59891730505E+02  0.52341488040E+03  0.54570717430E+03  0.97415643636E+02 0.  0.
         23    2    1    2    0    0 -0.74830980592E+02  0.62294466104E+02  0.19120574717E+03  0.23286651074E+03  0.90481478266E+02 0.  0.
        -11    1    4    4    0    0 -0.50993568000E+02 -0.48014518618E-01  0.13922118766E+03  0.14826626513E+03  0.00000000000E+00 0. -1.
         11    1    4    4    0    0 -0.23837412592E+02  0.62342480622E+02  0.51984559510E+02  0.84600245606E+02  0.00000000000E+00 0.  1.
        -13    1    3    3    0    0  0.28341440682E+00  0.22272768483E+02  0.73157319182E+02  0.76473197197E+02  0.00000000000E+00 0.  1.
         13    1    3    3    0    0  0.10342943942E+03 -0.82164498988E+02  0.45025756122E+03  0.46923397710E+03  0.00000000000E+00 0. -1.
          2    1    1    2  501    0 -0.28881873230E+02 -0.24027355989E+01  0.34392935902E+01  0.29185004370E+02  0.00000000000E+00 0. -1.
<scales pt_clust_5="13000.00000" pt_clust_6="13000.00000" pt_clust_7="13000.00000" pt_clust_8="13000.00000" pt_clust_9="28.98164"></scales>
<clustering>
<clus scale="   28.982">  2  9  1 -1</clus>
<clus scale="   90.481">  5  6 -1 -1</clus>
<clus scale="   97.416">  7  8 -1 -1</clus>
<clus scale="  143.682">  2  5  1 -1</clus>
<clus scale="   28.982">  2  5  1 -1</clus>
</clustering>
</event>
<event>
 9    1  0.1464797E-005  0.3690717E+03  0.7546771E-02  0.1055084E+00
         21   -1    0    0  501  502  0.00000000000E+00  0.00000000000E+00  0.19310101729E+03  0.19310101729E+03  0.00000000000E+00 0. -1.
          1   -1    0    0  502    0 -0.00000000000E+00 -0.00000000000E+00 -0.37480938905E+04  0.37480938905E+04  0.00000000000E+00 0. -1.
         23    2    1    2    0    0 -0.27495775652E+03 -0.19647416183E+03 -0.18625854610E+04  0.18951156858E+04  0.89638154180E+02 0.  0.
         23    2    1    2    0    0  0.30331655813E+03  0.23370092950E+03 -0.18449757862E+04  0.18864948788E+04  0.91160393172E+02 0.  0.
        -11    1    3    3    0    0 -0.29171190872E+02 -0.63702369968E+02 -0.40028842429E+03  0.40637393240E+03  0.00000000000E+00 0.  1.
         11    1    3    3    0    0 -0.24578656565E+03 -0.13277179187E+03 -0.14622970367E+04  0.14887417534E+04  0.00000000000E+00 0. -1.
        -11    1    4    4    0    0  0.10271838625E+03  0.12575933471E+03 -0.64790218980E+03  0.66793991099E+03  0.00000000000E+00 0.  1.
         11    1    4    4    0    0  0.20059817189E+03  0.10794159479E+03 -0.11970735964E+04  0.12185549679E+04  0.00000000000E+00 0. -1.
          1    1    1    2  501    0 -0.28358801615E+02 -0.37226767668E+02  0.15256837398E+03  0.15958434322E+03  0.00000000000E+00 0. -1.
<scales pt_clust_5="13000.00000" pt_clust_6="13000.00000" pt_clust_7="13000.00000" pt_clust_8="13000.00000" pt_clust_9="46.79801"></scales>
<clustering>
<clus scale="   46.798">  1  9  2 -1</clus>
<clus scale="   89.638">  5  6 -1 -1</clus>
<clus scale="   91.160">  7  8 -1 -1</clus>
<clus scale="  368.699">  2  5  1 -1</clus>
<clus scale="   46.798">  1  5  2 -1</clus>
</clustering>
</event>
<event>
 9    1  0.1464797E-005  0.9236839E+02  0.7546771E-02  0.1299619E+00
         21   -1    0    0  501  502  0.00000000000E+00  0.00000000000E+00  0.11592635623E+03  0.11592635623E+03  0.00000000000E+00 0.  1.
          4   -1    0    0  502    0 -0.00000000000E+00 -0.00000000000E+00 -0.12695325896E+03  0.12695325896E+03  0.00000000000E+00 0. -1.
         23    2    1    2    0    0 -0.18667004506E+02  0.62319554830E+01 -0.59937423571E+02  0.10713824310E+03  0.86595693100E+02 0.  0.
         23    2    1    2    0    0  0.38283761184E+01 -0.19932485848E+02  0.12046657810E+02  0.93707649653E+02  0.90686499454E+02 0.  0.
        -11    1    4    4    0    0  0.27680542121E+02  0.72903648096E+01  0.39144382052E+02  0.48493757097E+02  0.00000000000E+00 0.  1.
         11    1    4    4    0    0 -0.23852166003E+02 -0.27222850657E+02 -0.27097724242E+02  0.45213892555E+02  0.00000000000E+00 0. -1.
        -11    1    3    3    0    0  0.13285373640E+01  0.43249703707E+02 -0.45164485984E+02  0.62547043706E+02  0.00000000000E+00 0.  1.
         11    1    3    3    0    0 -0.19995541870E+02 -0.37017748224E+02 -0.14772937587E+02  0.44591199392E+02  0.00000000000E+00 0. -1.
          4    1    1    2  501    0  0.14838628388E+02  0.13700530365E+02  0.36863863027E+02  0.42033722438E+02  0.00000000000E+00 0. -1.
<scales pt_clust_5="13000.00000" pt_clust_6="13000.00000" pt_clust_7="13000.00000" pt_clust_8="13000.00000" pt_clust_9="20.19627"></scales>
<clustering>
<clus scale="   20.196">  1  9  2 -1</clus>
<clus scale="   86.596">  7  8 -1 -1</clus>
<clus scale="   88.355">  2  7  1 -1</clus>
<clus scale="   90.686">  5  6 -1 -1</clus>
<clus scale="   20.196">  1  5  2 -1</clus>
</clustering>
</event>
<event>
 9    1  0.1464797E-005  0.9123669E+02  0.7546771E-02  0.1307079E+00
          1   -1    0    0  502    0 -0.00000000000E+00  0.00000000000E+00  0.23401255534E+03  0.23401255534E+03  0.00000000000E+00 0. -1.
         21   -1    0    0  501  502  0.00000000000E+00 -0.00000000000E+00 -0.14284176577E+03  0.14284176577E+03  0.00000000000E+00 0. -1.
         23    2    1    2    0    0 -0.57569767544E+01  0.16868661066E+02  0.19762050818E+03  0.21787199204E+03  0.89981360054E+02 0.  0.
         23    2    1    2    0    0  0.54920067951E+01  0.41472281861E+01 -0.38248210180E+02  0.87615785360E+02  0.78525401127E+02 0.  0.
        -11    1    4    4    0    0  0.89554650705E+01  0.39234078377E+02 -0.32848235266E+02  0.51947279244E+02  0.00000000000E+00 0. -1.
         11    1    4    4    0    0 -0.34634582754E+01 -0.35086850191E+02 -0.53999749143E+01  0.35668506117E+02  0.00000000000E+00 0.  1.
        -11    1    3    3    0    0 -0.35859652611E+02  0.45785686320E+01  0.29567541543E+02  0.46702435579E+02  0.00000000000E+00 0.  1.
         11    1    3    3    0    0  0.30102675856E+02  0.12290092434E+02  0.16805296663E+03  0.17116955646E+03  0.00000000000E+00 0. -1.
          1    1    1    2  501    0  0.26496995932E+00 -0.21015889252E+02 -0.68201508422E+02  0.71366543710E+02  0.00000000000E+00 0. -1.
<scales pt_clust_5="13000.00000" pt_clust_6="13000.00000" pt_clust_7="13000.00000" pt_clust_8="13000.00000" pt_clust_9="21.01756"></scales>
<clustering>
<clus scale="   21.018">  2  9  1 -1</clus>
<clus scale="   78.525">  5  6 -1 -1</clus>
<clus scale="   79.961">  2  5  1 -1</clus>
<clus scale="   89.981">  7  8 -1 -1</clus>
<clus scale="   21.018">  2  5  1 -1</clus>
</clustering>
</event>
<event>
 9    1  0.1464797E-005  0.9469404E+02  0.7546771E-02  0.1307366E+00
         21   -1    0    0  501  502  0.00000000000E+00  0.00000000000E+00  0.52535577398E+02  0.52535577398E+02  0.00000000000E+00 0.  1.
         -1   -1    0    0    0  501 -0.00000000000E+00 -0.00000000000E+00 -0.48608993833E+03  0.48608993833E+03  0.00000000000E+00 0.  1.
         23    2    1    2    0    0 -0.14646223869E+02  0.21416784449E+02 -0.34275542201E+03  0.34984991106E+03  0.65119048063E+02 0.  0.
         23    2    1    2    0    0 -0.10430432711E+02 -0.60856013375E+02 -0.90647681248E+02  0.14203895564E+03  0.90254166180E+02 0.  0.
        -11    1    4    4    0    0 -0.21145462263E+02 -0.81013842640E+02 -0.56665412064E+02  0.10110065380E+03  0.00000000000E+00 0.  1.
         11    1    4    4    0    0  0.10715029552E+02  0.20157829264E+02 -0.33982269184E+02  0.40938301843E+02  0.00000000000E+00 0. -1.
        -13    1    3    3    0    0 -0.16558454414E+02  0.43876861172E+02 -0.25280269502E+03  0.25711585709E+03  0.00000000000E+00 0.  1.
         13    1    3    3    0    0  0.19122305443E+01 -0.22460076723E+02 -0.89952726994E+02  0.92734053970E+02  0.00000000000E+00 0. -1.
         -1    1    1    2    0  502  0.25076656580E+02  0.39439228927E+02 -0.15125767188E+00  0.46736649029E+02  0.00000000000E+00 0.  1.
<scales pt_clust_5="13000.00000" pt_clust_6="13000.00000" pt_clust_7="13000.00000" pt_clust_8="13000.00000" pt_clust_9="46.73640"></scales>
<clustering>
<clus scale="   46.736">  1  9  2 -1</clus>
<clus scale="   65.119">  7  8 -1 -1</clus>
<clus scale="   71.145">  2  7  1 -1</clus>
<clus scale="   90.254">  5  6 -1 -1</clus>
<clus scale="   46.736">  1  5  2 -1</clus>
</clustering>
</event>
<event>
 9    1  0.1464797E-005  0.9925605E+02  0.7546771E-02  0.1281949E+00
          1   -1    0    0  502    0 -0.00000000000E+00  0.00000000000E+00  0.19845541765E+03  0.19845541765E+03  0.00000000000E+00 0. -1.
         21   -1    0    0  501  502  0.00000000000E+00 -0.00000000000E+00 -0.23665786968E+03  0.23665786968E+03  0.00000000000E+00 0.  1.
         23    2    1    2    0    0  0.28875937447E+02 -0.20924863920E+02  0.11815351993E+03  0.15322053744E+03  0.90799830000E+02 0.  0.
         23    2    1    2    0    0 -0.27512563032E+02  0.46959681787E+02  0.16571508885E+02  0.10701112088E+03  0.90634498112E+02 0.  0.
        -11    1    4    4    0    0  0.27582925570E+02 -0.60504229102E+01  0.11158163666E+02  0.30363300493E+02  0.00000000000E+00 0.  1.
         11    1    4    4    0    0 -0.55095488602E+02  0.53010104697E+02  0.54133452194E+01  0.76647820392E+02  0.00000000000E+00 0. -1.
        -13    1    3    3    0    0  0.25117964599E+02 -0.41987865046E+02  0.20159252058E+02  0.52917751277E+02  0.00000000000E+00 0.  1.
         13    1    3    3    0    0  0.37579728486E+01  0.21063001126E+02  0.97994267869E+02  0.10030278616E+03  0.00000000000E+00 0. -1.
          1    1    1    2  501    0 -0.13633744157E+01 -0.26034817867E+02 -0.17292748085E+03  0.17488162900E+03  0.00000000000E+00 0. -1.
<scales pt_clust_5="13000.00000" pt_clust_6="13000.00000" pt_clust_7="13000.00000" pt_clust_8="13000.00000" pt_clust_9="26.07049"></scales>
<clustering>
<clus scale="   26.070">  2  9  1 -1</clus>
<clus scale="   90.634">  5  6 -1 -1</clus>
<clus scale="   90.800">  7  8 -1 -1</clus>
<clus scale="   99.105">  2  5  1 -1</clus>
<clus scale="   26.070">  2  5  1 -1</clus>
</clustering>
</event>
<event>
 9    1  0.1464797E-005  0.1025616E+03  0.7546771E-02  0.1280151E+00
         -2   -1    0    0    0  501 -0.00000000000E+00  0.00000000000E+00  0.22460589725E+03  0.22460589725E+03  0.00000000000E+00 0.  1.
         21   -1    0    0  501  502  0.00000000000E+00 -0.00000000000E+00 -0.68278229532E+02  0.68278229532E+02  0.00000000000E+00 0.  1.
         23    2    1    2    0    0  0.47883245484E+02 -0.28955212442E+02  0.12445623499E+03  0.16434712266E+03  0.91593737634E+02 0.  0.
         23    2    1    2    0    0 -0.34261397056E+02  0.53462654060E+01  0.44552577970E+02  0.98474592716E+02  0.80683872768E+02 0.  0.
        -13    1    4    4    0    0  0.95831326367E+00 -0.34185725176E+02  0.23511606391E+02  0.41501539793E+02  0.00000000000E+00 0.  1.
         13    1    4    4    0    0 -0.35219710319E+02  0.39531990582E+02  0.21040971579E+02  0.56973052923E+02  0.00000000000E+00 0. -1.
        -13    1    3    3    0    0  0.71876543994E+02 -0.29520199676E+01  0.82101000408E+02  0.10915826247E+03  0.00000000000E+00 0.  1.
         13    1    3    3    0    0 -0.23993298511E+02 -0.26003192474E+02  0.42355234583E+02  0.55188860189E+02  0.00000000000E+00 0. -1.
         -2    1    1    2    0  502 -0.13621848428E+02  0.23608947036E+02 -0.12681145243E+02  0.30062411404E+02  0.00000000000E+00 0.  1.
<scales pt_clust_5="13000.00000" pt_clust_6="13000.00000" pt_clust_7="13000.00000" pt_clust_8="13000.00000" pt_clust_9="27.25687"></scales>
<clustering>
<clus scale="   27.257">  2  9  1 -1</clus>
<clus scale="   80.684">  5  6 -1 -1</clus>
<clus scale="   91.594">  7  8 -1 -1</clus>
<clus scale="   92.948">  2  5  1 -1</clus>
<clus scale="   27.257">  2  5  1 -1</clus>
</clustering>
</event>
<event>
 9    1  0.1464797E-005  0.9762087E+02  0.7546771E-02  0.1286866E+00
          1   -1    0    0  502    0 -0.00000000000E+00  0.00000000000E+00  0.74161249329E+03  0.74161249329E+03  0.00000000000E+00 0. -1.
         21   -1    0    0  501  502  0.00000000000E+00 -0.00000000000E+00 -0.82791347693E+02  0.82791347693E+02  0.00000000000E+00 0. -1.
         23    2    1    2    0    0 -0.30428543848E+02  0.55136869578E+01  0.38400736564E+03  0.39587426108E+03  0.91095975185E+02 0.  0.
         23    2    1    2    0    0  0.27540458758E+02  0.55420530010E+02  0.32945928597E+03  0.34663054963E+03  0.88200934271E+02 0.  0.
        -11    1    4    4    0    0 -0.24029352576E+02 -0.59601133070E+01  0.48444994746E+02  0.54404505804E+02  0.00000000000E+00 0.  1.
         11    1    4    4    0    0  0.51569811334E+02  0.61380643317E+02  0.28101429123E+03  0.29222604382E+03  0.00000000000E+00 0. -1.
        -13    1    3    3    0    0  0.20415407929E+02 -0.26435050106E+02  0.95169746267E+02  0.10086070275E+03  0.00000000000E+00 0.  1.
         13    1    3    3    0    0 -0.50843951776E+02  0.31948737064E+02  0.28883761937E+03  0.29501355833E+03  0.00000000000E+00 0. -1.
          1    1    1    2  501    0  0.28880850899E+01 -0.60934216968E+02 -0.54645506014E+02  0.81899030278E+02  0.00000000000E+00 0. -1.
<scales pt_clust_5="13000.00000" pt_clust_6="13000.00000" pt_clust_7="13000.00000" pt_clust_8="13000.00000" pt_clust_9="61.00262"></scales>
<clustering>
<clus scale="   61.003">  2  9  1 -1</clus>
<clus scale="   88.201">  5  6 -1 -1</clus>
<clus scale="   91.096">  7  8 -1 -1</clus>
<clus scale="   94.925">  2  5  1 -1</clus>
<clus scale="   61.003">  2  5  1 -1</clus>
</clustering>
</event>
<event>
 9    1  0.1464797E-005  0.1027948E+03  0.7546771E-02  0.1275645E+00
         21   -1    0    0  501  502  0.00000000000E+00  0.00000000000E+00  0.17727861549E+03  0.17727861549E+03  0.00000000000E+00 0.  1.
          1   -1    0    0  502    0 -0.00000000000E+00 -0.00000000000E+00 -0.23207106769E+03  0.23207106769E+03  0.00000000000E+00 0. -1.
         23    2    1    2    0    0 -0.24208222132E+02  0.39106190992E+02 -0.19066072308E+03  0.21679942223E+03  0.92385853696E+02 0.  0.
         23    2    1    2    0    0  0.17260947473E+01 -0.43417688636E+02  0.67790061863E+02  0.12072632618E+03  0.89951532815E+02 0.  0.
        -11    1    4    4    0    0  0.45682451952E+02 -0.20547246837E+02  0.29760358474E+02  0.58264523558E+02  0.00000000000E+00 0. -1.
         11    1    4    4    0    0 -0.43956357205E+02 -0.22870441798E+02  0.38029703388E+02  0.62461802620E+02  0.00000000000E+00 0.  1.
        -13    1    3    3    0    0 -0.22905859218E+02 -0.95554920104E+01 -0.55994514241E+01  0.25442870717E+02  0.00000000000E+00 0.  1.
         13    1    3    3    0    0 -0.13023629137E+01  0.48661683003E+02 -0.18506127165E+03  0.19135655152E+03  0.00000000000E+00 0. -1.
          1    1    1    2  501    0  0.22482127384E+02  0.43114976432E+01  0.68078209015E+02  0.71823934773E+02  0.00000000000E+00 0. -1.
<scales pt_clust_5="13000.00000" pt_clust_6="13000.00000" pt_clust_7="13000.00000" pt_clust_8="13000.00000" pt_clust_9="22.89181"></scales>
<clustering>
<clus scale="   22.892">  1  9  2 -1</clus>
<clus scale="   89.952">  5  6 -1 -1</clus>
<clus scale="   92.386">  7  8 -1 -1</clus>
<clus scale="  100.613">  1  5  2 -1</clus>
<clus scale="   22.892">  1  5  2 -1</clus>
</clustering>
</event>
<event>
 9    1  0.1464797E-005  0.9783571E+02  0.7546771E-02  0.1287065E+00
          1   -1    0    0  502    0 -0.00000000000E+00  0.00000000000E+00  0.38908342633E+03  0.38908342633E+03  0.00000000000E+00 0. -1.
         21   -1    0    0  501  502  0.00000000000E+00 -0.00000000000E+00 -0.47150849089E+02  0.47150849089E+02  0.00000000000E+00 0. -1.
         23    2    1    2    0    0 -0.15804496210E+02 -0.26293849308E+02  0.15784049705E+03  0.18293743887E+03  0.87242967736E+02 0.  0.
         23    2    1    2    0    0  0.63502476871E+02 -0.77596158399E+01  0.94395353163E+02  0.14615096081E+03  0.91415777856E+02 0.  0.
        -11    1    4    4    0    0 -0.15946034543E+02 -0.24824072864E+02  0.33265081202E+02  0.44464325460E+02  0.00000000000E+00 0.  1.
         11    1    4    4    0    0  0.79448511414E+02  0.17064457024E+02  0.61130271961E+02  0.10168663535E+03  0.00000000000E+00 0. -1.
        -13    1    3    3    0    0  0.27182317454E+02 -0.65459437583E+01  0.13510353040E+02  0.31052494282E+02  0.00000000000E+00 0.  1.
         13    1    3    3    0    0 -0.42986813665E+02 -0.19747905550E+02  0.14433014401E+03  0.15188494459E+03  0.00000000000E+00 0. -1.
          1    1    1    2  501    0 -0.47697980660E+02  0.34053465148E+02  0.89696727023E+02  0.10714587573E+03  0.00000000000E+00 0. -1.
<scales pt_clust_5="13000.00000" pt_clust_6="13000.00000" pt_clust_7="13000.00000" pt_clust_8="13000.00000" pt_clust_9="58.60665"></scales>
<clustering>
<clus scale="   58.607">  2  9  1 -1</clus>
<clus scale="   87.243">  7  8 -1 -1</clus>
<clus scale="   91.416">  5  6 -1 -1</clus>
<clus scale="   93.948">  1  7  2 -1</clus>
<clus scale="   58.607">  2  5  1 -1</clus>
</clustering>
</event>
<event>
 9    1  0.1464797E-005  0.9704847E+02  0.7546771E-02  0.1288457E+00
         21   -1    0    0  501  502  0.00000000000E+00  0.00000000000E+00  0.65502179883E+02  0.65502179883E+02  0.00000000000E+00 0. -1.
          2   -1    0    0  502    0 -0.00000000000E+00 -0.00000000000E+00 -0.48265071438E+03  0.48265071438E+03  0.00000000000E+00 0. -1.
         23    2    1    2    0    0  0.19938376137E+02  0.23043453293E+01 -0.29919427576E+03  0.31418103367E+03  0.93753178178E+02 0.  0.
         23    2    1    2    0    0 -0.24473014346E+02 -0.33527131300E+02 -0.15572219369E+03  0.18475964445E+03  0.90353348836E+02 0.  0.
        -13    1    4    4    0    0  0.82804145053E+01 -0.50542918921E+02 -0.13012784087E+03  0.13984422365E+03  0.00000000000E+00 0. -1.
         13    1    4    4    0    0 -0.32753428851E+02  0.17015787621E+02 -0.25594352818E+02  0.44915420804E+02  0.00000000000E+00 0.  1.
        -13    1    3    3    0    0  0.30343895377E+02  0.38607177387E+02 -0.23163980421E+03  0.23678738359E+03  0.00000000000E+00 0. -1.
         13    1    3    3    0    0 -0.10405519240E+02 -0.36302832058E+02 -0.67554471550E+02  0.77393650078E+02  0.00000000000E+00 0.  1.
          2    1    1    2  501    0  0.45346382091E+01  0.31222785971E+02  0.37767934951E+02  0.49212216145E+02  0.00000000000E+00 0. -1.
<scales pt_clust_5="13000.00000" pt_clust_6="13000.00000" pt_clust_7="13000.00000" pt_clust_8="13000.00000" pt_clust_9="31.55036"></scales>
<clustering>
<clus scale="   31.550">  1  9  2 -1</clus>
<clus scale="   90.353">  5  6 -1 -1</clus>
<clus scale="   93.753">  7  8 -1 -1</clus>
<clus scale="   93.768">  1  5  2 -1</clus>
<clus scale="   31.550">  1  5  2 -1</clus>
</clustering>
</event>
<event>
 9    1  0.1464797E-005  0.9759593E+02  0.7546771E-02  0.1287826E+00
         -2   -1    0    0    0  501 -0.00000000000E+00  0.00000000000E+00  0.67474593800E+03  0.67474593800E+03  0.00000000000E+00 0. -1.
         21   -1    0    0  501  502  0.00000000000E+00 -0.00000000000E+00 -0.25263082273E+02  0.25263082273E+02  0.00000000000E+00 0.  1.
         23    2    1    2    0    0 -0.78141583348E+01 -0.42379295960E+02  0.29006808523E+03  0.30832065950E+03  0.95210657017E+02 0.  0.
         23    2    1    2    0    0 -0.78387078598E+01 -0.81276699467E+01  0.15003029382E+03  0.17573043686E+03  0.90799741284E+02 0.  0.
        -11    1    4    4    0    0 -0.39033369307E+02 -0.18237821641E+02  0.33218267162E+02  0.54402898185E+02  0.00000000000E+00 0.  1.
         11    1    4    4    0    0  0.31194661447E+02  0.10110151694E+02  0.11681202666E+03  0.12132753868E+03  0.00000000000E+00 0. -1.
        -13    1    3    3    0    0 -0.22364110820E+02 -0.62338440070E+02  0.26491478536E+03  0.27306790010E+03  0.00000000000E+00 0.  1.
         13    1    3    3    0    0  0.14549952486E+02  0.19959144111E+02  0.25153299870E+02  0.35252759400E+02  0.00000000000E+00 0. -1.
         -2    1    1    2    0  502  0.15652866195E+02  0.50506965906E+02  0.20938447668E+03  0.21595792391E+03  0.00000000000E+00 0. -1.
<scales pt_clust_5="13000.00000" pt_clust_6="13000.00000" pt_clust_7="13000.00000" pt_clust_8="13000.00000" pt_clust_9="52.87692"></scales>
<clustering>
<clus scale="   52.877">  2  9  1 -1</clus>
<clus scale="   90.800">  5  6 -1 -1</clus>
<clus scale="   93.298">  2  5  1 -1</clus>
<clus scale="   95.211">  7  8 -1 -1</clus>
<clus scale="   52.877">  2  5  1 -1</clus>
</clustering>
</event>
<event>
 9    1  0.1464797E-005  0.9576048E+02  0.7546771E-02  0.1289521E+00
         21   -1    0    0  501  502  0.00000000000E+00  0.00000000000E+00  0.48811523680E+03  0.48811523680E+03  0.00000000000E+00 0.  1.
          1   -1    0    0  502    0 -0.00000000000E+00 -0.00000000000E+00 -0.32009774934E+02  0.32009774934E+02  0.00000000000E+00 0. -1.
         23    2    1    2    0    0 -0.33672097944E+02  0.93158880684E+01  0.86304017006E+02  0.13071681573E+03  0.91749150473E+02 0.  0.
         23    2    1    2    0    0  0.73269428940E+01 -0.94985518894E+01  0.24506148642E+03  0.26191640100E+03  0.91657855138E+02 0.  0.
        -13    1    4    4    0    0  0.39687260911E+01 -0.50797989829E+02  0.13946556930E+03  0.14848175504E+03  0.00000000000E+00 0.  1.
         13    1    4    4    0    0  0.33582168030E+01  0.41299437940E+02  0.10559591711E+03  0.11343464596E+03  0.00000000000E+00 0. -1.
        -13    1    3    3    0    0  0.26609868433E+02  0.16628345189E+00  0.20148490229E+01  0.26686557755E+02  0.00000000000E+00 0. -1.
         13    1    3    3    0    0 -0.60281966377E+02  0.91496046166E+01  0.84289167983E+02  0.10403025797E+03  0.00000000000E+00 0.  1.
          1    1    1    2  501    0  0.26345155050E+02  0.18266382099E+00  0.12473995844E+03  0.12749179500E+03  0.00000000000E+00 0. -1.
<scales pt_clust_5="13000.00000" pt_clust_6="13000.00000" pt_clust_7="13000.00000" pt_clust_8="13000.00000" pt_clust_9="26.34579"></scales>
<clustering>
<clus scale="   26.346">  1  9  2 -1</clus>
<clus scale="   91.658">  5  6 -1 -1</clus>
<clus scale="   91.749">  7  8 -1 -1</clus>
<clus scale="   95.673">  1  5  2 -1</clus>
<clus scale="   26.346">  1  5  2 -1</clus>
</clustering>
</event>
<event>
 9    1  0.1464797E-005  0.1946409E+03  0.7546771E-02  0.1154626E+00
         21   -1    0    0  501  502  0.00000000000E+00  0.00000000000E+00  0.16019542865E+03  0.16019542865E+03  0.00000000000E+00 0.  1.
          1   -1    0    0  502    0 -0.00000000000E+00 -0.00000000000E+00 -0.30828903492E+03  0.30828903492E+03  0.00000000000E+00 0. -1.
         23    2    1    2    0    0  0.17721003608E+03  0.30459381617E+02 -0.15463573094E+03  0.25366859972E+03  0.90024321078E+02 0.  0.
         23    2    1    2    0    0 -0.15549627870E+03 -0.17239138739E+02 -0.13573394848E+02  0.18239833454E+03  0.92782729004E+02 0.  0.
        -11    1    4    4    0    0 -0.64649065229E+02 -0.52808468602E+02 -0.15066097175E+02  0.84824661951E+02  0.00000000000E+00 0.  1.
         11    1    4    4    0    0 -0.90847213474E+02  0.35569329862E+02  0.14927023269E+01  0.97573672592E+02  0.00000000000E+00 0. -1.
        -13    1    3    3    0    0  0.14165298906E+03  0.58722116187E+02 -0.10211620181E+03  0.18423239376E+03  0.00000000000E+00 0.  1.
         13    1    3    3    0    0  0.35557047019E+02 -0.28262734570E+02 -0.52519529126E+02  0.69436205957E+02  0.00000000000E+00 0. -1.
          1    1    1    2  501    0 -0.21713757373E+02 -0.13220242877E+02  0.20115519514E+02  0.32417529306E+02  0.00000000000E+00 0. -1.
<scales pt_clust_5="13000.00000" pt_clust_6="13000.00000" pt_clust_7="13000.00000" pt_clust_8="13000.00000" pt_clust_9="25.42169"></scales>
<clustering>
<clus scale="   25.422">  1  9  2 -1</clus>
<clus scale="   90.024">  7  8 -1 -1</clus>
<clus scale="   92.783">  5  6 -1 -1</clus>
<clus scale="  193.341">  2  7  1 -1</clus>
<clus scale="   25.422">  1  5  2 -1</clus>
</clustering>
</event>
<event>
 9    1  0.1464797E-005  0.9879004E+02  0.7546771E-02  0.1282863E+00
         -2   -1    0    0    0  501 -0.00000000000E+00  0.00000000000E+00  0.11898419432E+03  0.11898419432E+03  0.00000000000E+00 0.  1.
         21   -1    0    0  501  502  0.00000000000E+00 -0.00000000000E+00 -0.16062407700E+03  0.16062407700E+03  0.00000000000E+00 0.  1.
         23    2    1    2    0    0 -0.13494789920E+02  0.38180679419E+02  0.56179090453E+01  0.10037471080E+03  0.91671413376E+02 0.  0.
         23    2    1    2    0    0  0.57804299617E+02  0.82036288488E+01 -0.31927287816E+02  0.11328008410E+03  0.91675455629E+02 0.  0.
        -11    1    3    3    0    0  0.32733503383E+02 -0.82878895974E+01  0.83053634260E+01  0.34772840254E+02  0.00000000000E+00 0. -1.
         11    1    3    3    0    0 -0.46228293303E+02  0.46468569016E+02 -0.26874543807E+01  0.65601870546E+02  0.00000000000E+00 0.  1.
        -13    1    4    4    0    0  0.46162668377E+02  0.27157519353E+02  0.19698491294E+02  0.57066219152E+02  0.00000000000E+00 0.  1.
         13    1    4    4    0    0  0.11641631241E+02 -0.18953890504E+02 -0.51625779110E+02  0.56213864943E+02  0.00000000000E+00 0. -1.
         -2    1    1    2    0  502 -0.44309509698E+02 -0.46384308267E+02 -0.15330503905E+02  0.65953476429E+02  0.00000000000E+00 0.  1.
<scales pt_clust_5="13000.00000" pt_clust_6="13000.00000" pt_clust_7="13000.00000" pt_clust_8="13000.00000" pt_clust_9="64.14699"></scales>
<clustering>
<clus scale="   64.147">  2  9  1 -1</clus>
<clus scale="   91.671">  5  6 -1 -1</clus>
<clus scale="   91.675">  7  8 -1 -1</clus>
<clus scale="   98.786">  1  5  2 -1</clus>
<clus scale="   64.147">  2  5  1 -1</clus>
</clustering>
</event>
<event>
 9    1  0.1464797E-005  0.1053727E+03  0.7546771E-02  0.1269468E+00
         21   -1    0    0  501  502  0.00000000000E+00  0.00000000000E+00  0.37885138797E+02  0.37885138797E+02  0.00000000000E+00 0.  1.
          1   -1    0    0  502    0 -0.00000000000E+00 -0.00000000000E+00 -0.69964328456E+03  0.69964328456E+03  0.00000000000E+00 0. -1.
         23    2    1    2    0    0 -0.36316422364E+01 -0.51050630181E+02 -0.54128509315E+03  0.55109609539E+03  0.89988880517E+02 0.  0.
         23    2    1    2    0    0  0.15392521560E+02  0.73049429704E+02 -0.10526060430E+03  0.15721445593E+03  0.89796667174E+02 0.  0.
        -13    1    3    3    0    0 -0.15421770810E+02  0.23440410296E+02 -0.15433001651E+03  0.15685993066E+03  0.00000000000E+00 0. -1.
         13    1    3    3    0    0  0.11790128574E+02 -0.74491040477E+02 -0.38695507664E+03  0.39423616473E+03  0.00000000000E+00 0.  1.
        -13    1    4    4    0    0 -0.36525112466E+02  0.42195378463E+02 -0.58351916534E+02  0.80743296733E+02  0.00000000000E+00 0. -1.
         13    1    4    4    0    0  0.51917634025E+02  0.30854051242E+02 -0.46908687765E+02  0.76471159195E+02  0.00000000000E+00 0.  1.
          1    1    1    2  501    0 -0.11760879323E+02 -0.21998799523E+02 -0.15212448314E+02  0.29217872041E+02  0.00000000000E+00 0. -1.
<scales pt_clust_5="13000.00000" pt_clust_6="13000.00000" pt_clust_7="13000.00000" pt_clust_8="13000.00000" pt_clust_9="24.94525"></scales>
<clustering>
<clus scale="   24.945">  1  9  2 -1</clus>
<clus scale="   89.797">  7  8 -1 -1</clus>
<clus scale="   89.989">  5  6 -1 -1</clus>
<clus scale="  105.209">  1  7  2 -1</clus>
<clus scale="   24.945">  1  5  2 -1</clus>
</clustering>
</event>
<event>
 9    1  0.1464797E-005  0.2054901E+03  0.7546771E-02  0.1145390E+00
          2   -1    0    0  502    0 -0.00000000000E+00  0.00000000000E+00  0.99295312999E+03  0.99295312999E+03  0.00000000000E+00 0. -1.
         21   -1    0    0  501  502  0.00000000000E+00 -0.00000000000E+00 -0.11479390489E+03  0.11479390489E+03  0.00000000000E+00 0.  1.
         23    2    1    2    0    0 -0.15628385921E+03  0.93158982725E+02  0.81695474925E+03  0.84196900008E+03  0.91616014265E+02 0.  0.
         23    2    1    2    0    0  0.18193045310E+03 -0.77132482486E+02  0.78847267550E+02  0.23076568573E+03  0.89374495745E+02 0.  0.
        -11    1    4    4    0    0  0.15210059560E+03 -0.64790702180E+02  0.23909442644E+02  0.16704516670E+03  0.00000000000E+00 0.  1.
         11    1    4    4    0    0  0.29829857502E+02 -0.12341780306E+02  0.54937824906E+02  0.63720519027E+02  0.00000000000E+00 0. -1.
        -13    1    3    3    0    0 -0.32875958429E+02 -0.68560624578E+01  0.62276143052E+02  0.70754167570E+02  0.00000000000E+00 0.  1.
         13    1    3    3    0    0 -0.12340790078E+03  0.10001504518E+03  0.75467860620E+03  0.77121483251E+03  0.00000000000E+00 0. -1.
          2    1    1    2  501    0 -0.25646593897E+02 -0.16026500239E+02 -0.17642791692E+02  0.35012349066E+02  0.00000000000E+00 0. -1.
<scales pt_clust_5="13000.00000" pt_clust_6="13000.00000" pt_clust_7="13000.00000" pt_clust_8="13000.00000" pt_clust_9="30.24230"></scales>
<clustering>
<clus scale="   30.242">  2  9  1 -1</clus>
<clus scale="   89.374">  5  6 -1 -1</clus>
<clus scale="   91.616">  7  8 -1 -1</clus>
<clus scale="  204.501">  2  5  1 -1</clus>
<clus scale="   30.242">  2  5  1 -1</clus>
</clustering>
</event>
<event>
 9    1  0.1464797E-005  0.1665514E+03  0.7546771E-02  0.1196689E+00
         21   -1    0    0  501  502  0.00000000000E+00  0.00000000000E+00  0.30464315713E+03  0.30464315713E+03  0.00000000000E+00 0.  1.
         -3   -1    0    0    0  501 -0.00000000000E+00 -0.00000000000E+00 -0.44079074578E+03  0.44079074578E+03  0.00000000000E+00 0.  1.
         23    2    1    2    0    0  0.76059163682E+02  0.27119148352E+02 -0.14196975377E+02  0.11983214468E+03  0.87394188609E+02 0.  0.
         23    2    1    2    0    0  0.49908305342E+01 -0.13607785449E+03 -0.33400329964E+03  0.37379341245E+03  0.98087818547E+02 0.  0.
        -11    1    3    3    0    0  0.26860809265E+02 -0.26263674446E+02  0.16476988407E+02  0.41021638396E+02  0.00000000000E+00 0.  1.
         11    1    3    3    0    0  0.49198354417E+02  0.53382822798E+02 -0.30673963784E+02  0.78810506289E+02  0.00000000000E+00 0. -1.
        -13    1    4    4    0    0  0.29290538409E+02 -0.13730103394E+03 -0.30618418868E+03  0.33683566758E+03  0.00000000000E+00 0.  1.
         13    1    4    4    0    0 -0.24299707875E+02  0.12231794466E+01 -0.27819110965E+02  0.36957744867E+02  0.00000000000E+00 0. -1.
         -3    1    1    2    0  502 -0.81049994216E+02  0.10895870614E+03  0.21205268637E+03  0.25180834578E+03  0.00000000000E+00 0.  1.
<scales pt_clust_5="13000.00000" pt_clust_6="13000.00000" pt_clust_7="13000.00000" pt_clust_8="13000.00000" pt_clust_9="134.60367"></scales>
<clustering>
<clus scale="   87.394">  5  6 -1 -1</clus>
<clus scale="   98.088">  7  8 -1 -1</clus>
<clus scale="  118.988">  2  5  1 -1</clus>
<clus scale="  134.604">  1  9  2 -1</clus>
<clus scale="  134.604">  1  5  2 -1</clus>
</clustering>
</event>
<event>
 9    1  0.1464797E-005  0.1000161E+03  0.7546771E-02  0.1281814E+00
          1   -1    0    0  502    0 -0.00000000000E+00  0.00000000000E+00  0.29366796319E+03  0.29366796319E+03  0.00000000000E+00 0. -1.
         21   -1    0    0  501  502  0.00000000000E+00 -0.00000000000E+00 -0.96246695108E+02  0.96246695108E+02  0.00000000000E+00 0. -1.
         23    2    1    2    0    0 -0.44068181376E+01 -0.12154592222E+02  0.91486513949E+02  0.12755030472E+03  0.87932609666E+02 0.  0.
         23    2    1    2    0    0  0.47881476025E+02  0.57005040861E+02  0.14648311165E+03  0.18789437359E+03  0.91130583220E+02 0.  0.
        -11    1    4    4    0    0 -0.21286327659E+02  0.37407167225E+02  0.75253874453E+02  0.86692269120E+02  0.00000000000E+00 0. -1.
         11    1    4    4    0    0  0.69167803683E+02  0.19597873637E+02  0.71229237199E+02  0.10120210447E+03  0.00000000000E+00 0.  1.
        -13    1    3    3    0    0  0.33225155566E+02 -0.28539554950E+02  0.28110649374E+02  0.52044459527E+02  0.00000000000E+00 0.  1.
         13    1    3    3    0    0 -0.37631973704E+02  0.16384962729E+02  0.63375864575E+02  0.75505845198E+02  0.00000000000E+00 0. -1.
          1    1    1    2  501    0 -0.43474657887E+02 -0.44850448640E+02 -0.40548357517E+02  0.74469979984E+02  0.00000000000E+00 0. -1.
<scales pt_clust_5="13000.00000" pt_clust_6="13000.00000" pt_clust_7="13000.00000" pt_clust_8="13000.00000" pt_clust_9="62.46286"></scales>
<clustering>
<clus scale="   62.463">  2  9  1 -1</clus>
<clus scale="   87.933">  7  8 -1 -1</clus>
<clus scale="   91.131">  5  6 -1 -1</clus>
<clus scale="   97.111">  1  7  2 -1</clus>
<clus scale="   62.463">  2  5  1 -1</clus>
</clustering>
</event>
<event>
 9    1  0.1464797E-005  0.1463036E+03  0.7546771E-02  0.1205610E+00
         21   -1    0    0  501  502  0.00000000000E+00  0.00000000000E+00  0.11738658005E+03  0.11738658005E+03  0.00000000000E+00 0. -1.
          2   -1    0    0  502    0 -0.00000000000E+00 -0.00000000000E+00 -0.63034694389E+03  0.63034694389E+03  0.00000000000E+00 0. -1.
         23    2    1    2    0    0  0.90627948316E+02 -0.69267754984E+02 -0.27825663462E+03  0.31426481785E+03  0.91236912104E+02 0.  0.
         23    2    1    2    0    0 -0.12990853428E+03 -0.19672311614E+02 -0.28231223415E+03  0.32521035943E+03  0.93799537353E+02 0.  0.
        -11    1    3    3    0    0  0.21945007686E+02 -0.52889898806E+02 -0.20363278692E+03  0.21153069912E+03  0.00000000000E+00 0. -1.
         11    1    3    3    0    0  0.68682940630E+02 -0.16377856178E+02 -0.74623847695E+02  0.10273411873E+03  0.00000000000E+00 0.  1.
        -11    1    4    4    0    0 -0.44697459181E+02 -0.22564713470E+02 -0.20188660318E+03  0.20800295598E+03  0.00000000000E+00 0. -1.
         11    1    4    4    0    0 -0.85211075097E+02  0.28924018560E+01 -0.80425630973E+02  0.11720740346E+03  0.00000000000E+00 0.  1.
          2    1    1    2  501    0  0.39280585961E+02  0.88940066597E+02  0.47608504937E+02  0.10825834666E+03  0.00000000000E+00 0. -1.
<scales pt_clust_5="13000.00000" pt_clust_6="13000.00000" pt_clust_7="13000.00000" pt_clust_8="13000.00000" pt_clust_9="97.22808"></scales>
<clustering>
<clus scale="   91.237">  5  6 -1 -1</clus>
<clus scale="   93.800">  7  8 -1 -1</clus>
<clus scale="   97.228">  1  9  2 -1</clus>
<clus scale="  144.674">  2  5  1 -1</clus>
<clus scale="   97.228">  1  5  2 -1</clus>
</clustering>
</event>
<event>
 9    1  0.1464797E-005  0.1190876E+03  0.7546771E-02  0.1245293E+00
          4   -1    0    0  502    0 -0.00000000000E+00  0.00000000000E+00  0.16341285634E+03  0.16341285634E+03  0.00000000000E+00 0.  1.
         21   -1    0    0  501  502  0.00000000000E+00 -0.00000000000E+00 -0.30124118598E+03  0.30124118598E+03  0.00000000000E+00 0. -1.
         23    2    1    2    0    0 -0.33974927172E+02  0.70659195278E+02  0.12121165081E+03  0.17022573210E+03  0.90208192658E+02 0.  0.
         23    2    1    2    0    0  0.93628948233E+01 -0.51700234351E+02 -0.17364464767E+03  0.20355720812E+03  0.92317361750E+02 0.  0.
        -11    1    4    4    0    0  0.29659546997E+02  0.90832652544E+01 -0.19542931058E+02  0.36662250205E+02  0.00000000000E+00 0.  1.
         11    1    4    4    0    0 -0.20296652174E+02 -0.60783499605E+02 -0.15410171661E+03  0.16689495791E+03  0.00000000000E+00 0. -1.
        -13    1    3    3    0    0 -0.61839646366E+02  0.60710035677E+02  0.71378548505E+02  0.11227086657E+03  0.00000000000E+00 0.  1.
         13    1    3    3    0    0  0.27864719194E+02  0.99491596006E+01  0.49833102307E+02  0.57954865525E+02  0.00000000000E+00 0. -1.
          4    1    1    2  501    0  0.24612032349E+02 -0.18958960927E+02 -0.85395332783E+02  0.90871102100E+02  0.00000000000E+00 0.  1.
<scales pt_clust_5="13000.00000" pt_clust_6="13000.00000" pt_clust_7="13000.00000" pt_clust_8="13000.00000" pt_clust_9="31.06758"></scales>
<clustering>
<clus scale="   31.068">  2  9  1 -1</clus>
<clus scale="   90.208">  7  8 -1 -1</clus>
<clus scale="   92.317">  5  6 -1 -1</clus>
<clus scale="  117.460">  1  7  2 -1</clus>
<clus scale="   31.068">  2  5  1 -1</clus>
</clustering>
</event>
<event>
 9    1  0.1464797E-005  0.1583038E+03  0.7546771E-02  0.1191437E+00
         21   -1    0    0  501  502  0.00000000000E+00  0.00000000000E+00  0.60168037858E+02  0.60168037858E+02  0.00000000000E+00 0. -1.
          1   -1    0    0  502    0 -0.00000000000E+00 -0.00000000000E+00 -0.72151629686E+03  0.72151629686E+03  0.00000000000E+00 0. -1.
         23    2    1    2    0    0 -0.11085875794E+03 -0.53390437622E+02 -0.46042085673E+03  0.48444247605E+03  0.86930686442E+02 0.  0.
         23    2    1    2    0    0  0.12748655721E+03  0.66088939495E+02 -0.21321170506E+03  0.27297995946E+03  0.91859985304E+02 0.  0.
        -11    1    4    4    0    0 -0.73860197074E+01  0.22798552919E+02 -0.58493569655E+02  0.63212538260E+02  0.00000000000E+00 0.  1.
         11    1    4    4    0    0  0.13487257692E+03  0.43290386576E+02 -0.15471813541E+03  0.20976742120E+03  0.00000000000E+00 0. -1.
        -13    1    3    3    0    0  0.28744314723E+01 -0.23702881666E+02 -0.30453670295E+02  0.38697738822E+02  0.00000000000E+00 0.  1.
         13    1    3    3    0    0 -0.11373318941E+03 -0.29687555957E+02 -0.42996718644E+03  0.44574473723E+03  0.00000000000E+00 0. -1.
          1    1    1    2  501    0 -0.16627799271E+02 -0.12698501873E+02  0.12284302787E+02  0.24261899212E+02  0.00000000000E+00 0. -1.
<scales pt_clust_5="13000.00000" pt_clust_6="13000.00000" pt_clust_7="13000.00000" pt_clust_8="13000.00000" pt_clust_9="20.92213"></scales>
<clustering>
<clus scale="   20.922">  1  9  2 -1</clus>
<clus scale="   86.931">  7  8 -1 -1</clus>
<clus scale="   91.860">  5  6 -1 -1</clus>
<clus scale="  155.495">  2  7  1 -1</clus>
<clus scale="   20.922">  1  5  2 -1</clus>
</clustering>
</event>
<event>
 9    1  0.1464797E-005  0.9262161E+02  0.7546771E-02  0.1301519E+00
         21   -1    0    0  501  502  0.00000000000E+00  0.00000000000E+00  0.17404937810E+03  0.17404937810E+03  0.00000000000E+00 0.  1.
          2   -1    0    0  502    0 -0.00000000000E+00 -0.00000000000E+00 -0.67982858656E+02  0.67982858656E+02  0.00000000000E+00 0. -1.
         23    2    1    2    0    0 -0.57997664424E+01 -0.16077011980E+02 -0.22285671183E+01  0.85360324384E+02  0.83602098433E+02 0.  0.
         23    2    1    2    0    0  0.11483900718E+02 -0.34248543635E+01  0.93785454725E+02  0.13170870766E+03  0.91694397613E+02 0.  0.
        -11    1    3    3    0    0 -0.21016348997E+02 -0.42655553582E+02  0.15448923242E+02  0.49998524037E+02  0.00000000000E+00 0.  1.
         11    1    3    3    0    0  0.15216582555E+02  0.26578541601E+02 -0.17677490360E+02  0.35361800347E+02  0.00000000000E+00 0. -1.
        -13    1    4    4    0    0 -0.27289944215E+02  0.29279585727E+02  0.28996324250E+02  0.49424912904E+02  0.00000000000E+00 0.  1.
         13    1    4    4    0    0  0.38773844933E+02 -0.32704440090E+02  0.64789130474E+02  0.82283794760E+02  0.00000000000E+00 0. -1.
          2    1    1    2  501    0 -0.56841342757E+01  0.19501866344E+02  0.14509631842E+02  0.24963204713E+02  0.00000000000E+00 0. -1.
<scales pt_clust_5="13000.00000" pt_clust_6="13000.00000" pt_clust_7="13000.00000" pt_clust_8="13000.00000" pt_clust_9="20.31335"></scales>
<clustering>
<clus scale="   20.313">  1  9  2 -1</clus>
<clus scale="   83.602">  5  6 -1 -1</clus>
<clus scale="   84.618">  2  5  1 -1</clus>
<clus scale="   91.694">  7  8 -1 -1</clus>
<clus scale="   20.313">  1  5  2 -1</clus>
</clustering>
</event>
<event>
 9    1  0.1464797E-005  0.1239753E+03  0.7546771E-02  0.1237359E+00
         21   -1    0    0  501  502  0.00000000000E+00  0.00000000000E+00  0.64081230290E+02  0.64081230290E+02  0.00000000000E+00 0.  1.
          1   -1    0    0  502    0 -0.00000000000E+00 -0.00000000000E+00 -0.81383608873E+03  0.81383608873E+03  0.00000000000E+00 0. -1.
         23    2    1    2    0    0  0.51804680734E+02  0.49584983076E+02 -0.42861365537E+03  0.44353840520E+03  0.88737003730E+02 0.  0.
         23    2    1    2    0    0 -0.10209099922E+03 -0.12482659875E+03 -0.14094266801E+03  0.23273187914E+03  0.91077110312E+02 0.  0.
        -11    1    4    4    0    0 -0.86745871195E+02 -0.10756288915E+03 -0.15342283563E+03  0.20647805642E+03  0.00000000000E+00 0. -1.
         11    1    4    4    0    0 -0.15345128025E+02 -0.17263709601E+02  0.12480167618E+02  0.26253822713E+02  0.00000000000E+00 0.  1.
        -11    1    3    3    0    0  0.57330074000E+02  0.70537279538E+01 -0.34248743092E+03  0.34732424735E+03  0.00000000000E+00 0.  1.
         11    1    3    3    0    0 -0.55253932655E+01  0.42531255122E+02 -0.86126224451E+02  0.96214157852E+02  0.00000000000E+00 0. -1.
          1    1    1    2  501    0  0.50286318485E+02  0.75241615676E+02 -0.18019853506E+03  0.20164703468E+03  0.00000000000E+00 0. -1.
<scales pt_clust_5="13000.00000" pt_clust_6="13000.00000" pt_clust_7="13000.00000" pt_clust_8="13000.00000" pt_clust_9="90.49874"></scales>
<clustering>
<clus scale="   88.737">  7  8 -1 -1</clus>
<clus scale="   90.499">  1  9  2 -1</clus>
<clus scale="   91.077">  5  6 -1 -1</clus>
<clus scale="  122.267">  2  7  1 -1</clus>
<clus scale="   90.499">  1  5  2 -1</clus>
</clustering>
</event>
<event>
 9    1  0.1464797E-005  0.1139216E+03  0.7546771E-02  0.1253700E+00
          1   -1    0    0  502    0 -0.00000000000E+00  0.00000000000E+00  0.42957260056E+03  0.42957260056E+03  0.00000000000E+00 0. -1.
         21   -1    0    0  501  502  0.00000000000E+00 -0.00000000000E+00 -0.69494613004E+02  0.69494613004E+02  0.00000000000E+00 0. -1.
         23    2    1    2    0    0  0.74566517752E+02  0.59374702677E+01  0.20594161456E+03  0.23563758768E+03  0.86704699988E+02 0.  0.
         23    2    1    2    0    0 -0.70579695875E+02  0.35248011272E+02  0.18006983981E+03  0.21459640626E+03  0.86038099711E+02 0.  0.
        -11    1    4    4    0    0 -0.73974142794E+02 -0.11662837846E+01  0.84738581712E+02  0.11249071629E+03  0.00000000000E+00 0.  1.
         11    1    4    4    0    0  0.33944469188E+01  0.36414295057E+02  0.95331258100E+02  0.10210568998E+03  0.00000000000E+00 0. -1.
        -13    1    3    3    0    0  0.15666816050E+02 -0.36577280540E+02  0.52551902501E+02  0.65916985924E+02  0.00000000000E+00 0.  1.
         13    1    3    3    0    0  0.58899701702E+02  0.42514750808E+02  0.15338971205E+03  0.16972060176E+03  0.00000000000E+00 0. -1.
          1    1    1    2  501    0 -0.39868218766E+01 -0.41185481540E+02 -0.25933466807E+02  0.48833219625E+02  0.00000000000E+00 0. -1.
<scales pt_clust_5="13000.00000" pt_clust_6="13000.00000" pt_clust_7="13000.00000" pt_clust_8="13000.00000" pt_clust_9="41.37800"></scales>
<clustering>
<clus scale="   41.378">  2  9  1 -1</clus>
<clus scale="   86.038">  5  6 -1 -1</clus>
<clus scale="   86.705">  7  8 -1 -1</clus>
<clus scale="  113.415">  2  5  1 -1</clus>
<clus scale="   41.378">  2  5  1 -1</clus>
</clustering>
</event>
<event>
 9    1  0.1464797E-005  0.1715488E+03  0.7546771E-02  0.1176307E+00
          1   -1    0    0  502    0 -0.00000000000E+00  0.00000000000E+00  0.26532152434E+03  0.26532152434E+03  0.00000000000E+00 0. -1.
         21   -1    0    0  501  502  0.00000000000E+00 -0.00000000000E+00 -0.23067933858E+03  0.23067933858E+03  0.00000000000E+00 0.  1.
         23    2    1    2    0    0  0.42129871352E+02 -0.13540996303E+03  0.16856734421E+03  0.23805700157E+03  0.90251882589E+02 0.  0.
         23    2    1    2    0    0 -0.65263774658E+02  0.15240215532E+03 -0.12900540635E+03  0.22882142942E+03  0.90725269172E+02 0.  0.
        -11    1    3    3    0    0 -0.20834489865E+02 -0.47563399293E+02  0.91864293494E+02  0.10552441111E+03  0.00000000000E+00 0.  1.
         11    1    3    3    0    0  0.62964361217E+02 -0.87846563739E+02  0.76703050720E+02  0.13253259046E+03  0.00000000000E+00 0. -1.
        -13    1    4    4    0    0 -0.85472366003E+02  0.11043327108E+03 -0.11276423287E+03  0.17949040343E+03  0.00000000000E+00 0.  1.
         13    1    4    4    0    0  0.20208591345E+02  0.41968884248E+02 -0.16241173483E+02  0.49331025991E+02  0.00000000000E+00 0. -1.
          1    1    1    2  501    0  0.23133903306E+02 -0.16992192291E+02 -0.49197521076E+01  0.29122431936E+02  0.00000000000E+00 0. -1.
<scales pt_clust_5="13000.00000" pt_clust_6="13000.00000" pt_clust_7="13000.00000" pt_clust_8="13000.00000" pt_clust_9="28.70387"></scales>
<clustering>
<clus scale="   28.704">  2  9  1 -1</clus>
<clus scale="   90.252">  5  6 -1 -1</clus>
<clus scale="   90.725">  7  8 -1 -1</clus>
<clus scale="  171.299">  1  5  2 -1</clus>
<clus scale="   28.704">  2  5  1 -1</clus>
</clustering>
</event>
<event>
 9    1  0.1464797E-005  0.9732582E+02  0.7546771E-02  0.1286866E+00
         21   -1    0    0  501  502  0.00000000000E+00  0.00000000000E+00  0.70758335226E+02  0.70758335226E+02  0.00000000000E+00 0. -1.
          1   -1    0    0  502    0 -0.00000000000E+00 -0.00000000000E+00 -0.24061953547E+03  0.24061953547E+03  0.00000000000E+00 0. -1.
         23    2    1    2    0    0 -0.31269752149E+02 -0.15309929378E+02 -0.13417040015E+03  0.16484976596E+03  0.89227561456E+02 0.  0.
         23    2    1    2    0    0  0.27612930076E+02  0.43618111966E+02 -0.51456620022E+02  0.11392002863E+03  0.87549846256E+02 0.  0.
        -11    1    3    3    0    0 -0.18630447609E+01 -0.23829307422E+02 -0.13201141718E+03  0.13415782159E+03  0.00000000000E+00 0.  1.
         11    1    3    3    0    0 -0.29406707388E+02  0.85193780441E+01 -0.21589829695E+01  0.30691944368E+02  0.00000000000E+00 0. -1.
        -13    1    4    4    0    0 -0.22247422671E+02  0.55781173585E+00  0.94699112801E+01  0.24185495428E+02  0.00000000000E+00 0.  1.
         13    1    4    4    0    0  0.49860352747E+02  0.43060300231E+02 -0.60926531302E+02  0.89734533200E+02  0.00000000000E+00 0. -1.
          1    1    1    2  501    0  0.36568220727E+01 -0.28308182588E+02  0.15765819933E+02  0.32608076105E+02  0.00000000000E+00 0. -1.
<scales pt_clust_5="13000.00000" pt_clust_6="13000.00000" pt_clust_7="13000.00000" pt_clust_8="13000.00000" pt_clust_9="28.54340"></scales>
<clustering>
<clus scale="   28.543">  1  9  2 -1</clus>
<clus scale="   87.550">  7  8 -1 -1</clus>
<clus scale="   89.228">  5  6 -1 -1</clus>
<clus scale="   95.790">  1  7  2 -1</clus>
<clus scale="   28.543">  1  5  2 -1</clus>
</clustering>
</event>
<event>
 9    1  0.1464797E-005  0.2217431E+03  0.7546771E-02  0.1133101E+00
          2   -1    0    0  502    0 -0.00000000000E+00  0.00000000000E+00  0.28476497300E+03  0.28476497300E+03  0.00000000000E+00 0. -1.
         21   -1    0    0  501  502  0.00000000000E+00 -0.00000000000E+00 -0.35874045201E+03  0.35874045201E+03  0.00000000000E+00 0. -1.
         23    2    1    2    0    0  0.17178643372E+03  0.17598176098E+02  0.29261238969E+02  0.19663737490E+03  0.89385471367E+02 0.  0.
         23    2    1    2    0    0 -0.24104343447E+03  0.93491962039E+02  0.68116986941E+01  0.27584698429E+03  0.95929532657E+02 0.  0.
        -11    1    4    4    0    0 -0.55970468988E+02  0.67535577682E+02  0.14001288184E+02  0.88824454529E+02  0.00000000000E+00 0. -1.
         11    1    4    4    0    0 -0.18507296548E+03  0.25956384357E+02 -0.71895894897E+01  0.18702252976E+03  0.00000000000E+00 0.  1.
        -13    1    3    3    0    0  0.70664993570E+02 -0.31264244765E+02  0.33564287947E+02  0.84246992482E+02  0.00000000000E+00 0.  1.
         13    1    3    3    0    0  0.10112144015E+03  0.48862420864E+02 -0.43030489775E+01  0.11239038242E+03  0.00000000000E+00 0. -1.
          2    1    1    2  501    0  0.69257000750E+02 -0.11109013814E+03 -0.11004841667E+03  0.17102106582E+03  0.00000000000E+00 0. -1.
<scales pt_clust_5="13000.00000" pt_clust_6="13000.00000" pt_clust_7="13000.00000" pt_clust_8="13000.00000" pt_clust_9="130.91047"></scales>
<clustering>
<clus scale="   89.385">  7  8 -1 -1</clus>
<clus scale="   95.930">  5  6 -1 -1</clus>
<clus scale="  130.910">  2  9  1 -1</clus>
<clus scale="  218.991">  1  7  2 -1</clus>
<clus scale="  130.910">  2  5  1 -1</clus>
</clustering>
</event>
<event>
 9    1  0.1464797E-005  0.9261662E+02  0.7546771E-02  0.1296923E+00
         21   -1    0    0  501  502  0.00000000000E+00  0.00000000000E+00  0.15687405637E+03  0.15687405637E+03  0.00000000000E+00 0.  1.
          3   -1    0    0  502    0 -0.00000000000E+00 -0.00000000000E+00 -0.10400051747E+03  0.10400051747E+03  0.00000000000E+00 0. -1.
         23    2    1    2    0    0 -0.15236093514E+02  0.67436768387E+00 -0.33109495011E+02  0.98074787959E+02  0.91048514848E+02 0.  0.
         23    2    1    2    0    0 -0.86782420657E+00 -0.29094861275E+02  0.34977739412E+02  0.10223081125E+03  0.91544701879E+02 0.  0.
        -11    1    3    3    0    0  0.31327553892E+02  0.66683607015E+01 -0.39323956437E+02  0.50717415324E+02  0.00000000000E+00 0. -1.
         11    1    3    3    0    0 -0.46563647406E+02 -0.59939930176E+01  0.62144614261E+01  0.47357372635E+02  0.00000000000E+00 0.  1.
        -11    1    4    4    0    0 -0.31272722627E+02 -0.47537164987E+02  0.34742048376E+02  0.66669146994E+02  0.00000000000E+00 0.  1.
         11    1    4    4    0    0  0.30404898420E+02  0.18442303712E+02  0.23569103613E+00  0.35561664252E+02  0.00000000000E+00 0. -1.
          3    1    1    2  501    0  0.16103917721E+02  0.28420493592E+02  0.51005294491E+02  0.60568974633E+02  0.00000000000E+00 0. -1.
<scales pt_clust_5="13000.00000" pt_clust_6="13000.00000" pt_clust_7="13000.00000" pt_clust_8="13000.00000" pt_clust_9="32.66589"></scales>
<clustering>
<clus scale="   32.666">  1  9  2 -1</clus>
<clus scale="   91.049">  5  6 -1 -1</clus>
<clus scale="   91.545">  7  8 -1 -1</clus>
<clus scale="   92.126">  2  5  1 -1</clus>
<clus scale="   32.666">  1  5  2 -1</clus>
</clustering>
</event>
<event>
 9    1  0.1464797E-005  0.9263130E+02  0.7546771E-02  0.1308070E+00
          1   -1    0    0  502    0 -0.00000000000E+00  0.00000000000E+00  0.41428200615E+03  0.41428200615E+03  0.00000000000E+00 0. -1.
         21   -1    0    0  501  502  0.00000000000E+00 -0.00000000000E+00 -0.90259840030E+02  0.90259840030E+02  0.00000000000E+00 0. -1.
         23    2    1    2    0    0 -0.23965885082E+02 -0.12876985219E+02  0.34329299752E+03  0.35536798262E+03  0.87727649763E+02 0.  0.
         23    2    1    2    0    0  0.19213071074E+02  0.64011261110E+02 -0.62072477160E+01  0.96183669833E+02  0.68892559608E+02 0.  0.
        -11    1    4    4    0    0  0.39597705516E+02  0.18264945579E+02  0.75271516547E+01  0.44252056801E+02  0.00000000000E+00 0.  1.
         11    1    4    4    0    0 -0.20384634441E+02  0.45746315531E+02 -0.13734399371E+02  0.51931613032E+02  0.00000000000E+00 0. -1.
        -13    1    3    3    0    0 -0.54706268742E+02 -0.94056767248E+01  0.27272920371E+03  0.27832078821E+03  0.00000000000E+00 0. -1.
         13    1    3    3    0    0  0.30740383661E+02 -0.34713084938E+01  0.70563793814E+02  0.77047194418E+02  0.00000000000E+00 0.  1.
          1    1    1    2  501    0  0.47528140073E+01 -0.51134275892E+02 -0.13063583684E+02  0.52990193721E+02  0.00000000000E+00 0. -1.
<scales pt_clust_5="13000.00000" pt_clust_6="13000.00000" pt_clust_7="13000.00000" pt_clust_8="13000.00000" pt_clust_9="51.35468"></scales>
<clustering>
<clus scale="   51.355">  2  9  1 -1</clus>
<clus scale="   68.893">  5  6 -1 -1</clus>
<clus scale="   75.037">  2  5  1 -1</clus>
<clus scale="   87.728">  7  8 -1 -1</clus>
<clus scale="   51.355">  2  5  1 -1</clus>
</clustering>
</event>
<event>
 9    1  0.1464797E-005  0.1896800E+03  0.7546771E-02  0.1158975E+00
          1   -1    0    0  502    0 -0.00000000000E+00  0.00000000000E+00  0.51869434676E+03  0.51869434676E+03  0.00000000000E+00 0. -1.
         21   -1    0    0  501  502  0.00000000000E+00 -0.00000000000E+00 -0.11495840074E+03  0.11495840074E+03  0.00000000000E+00 0.  1.
         23    2    1    2    0    0  0.13912505400E+03  0.93893548892E+02  0.28801909803E+03  0.34510328529E+03  0.89272042177E+02 0.  0.
         23    2    1    2    0    0 -0.15788633089E+03 -0.60901626399E+02  0.14608501635E+03  0.23994207481E+03  0.87145084089E+02 0.  0.
        -11    1    3    3    0    0  0.24443232881E+02  0.41189068356E+02  0.15281161435E+03  0.16014181361E+03  0.00000000000E+00 0. -1.
         11    1    3    3    0    0  0.11468182112E+03  0.52704480536E+02  0.13520748369E+03  0.18496147169E+03  0.00000000000E+00 0.  1.
        -13    1    4    4    0    0 -0.39467888384E+02 -0.11498521038E+02 -0.53522296063E+01  0.41455718078E+02  0.00000000000E+00 0.  1.
         13    1    4    4    0    0 -0.11841844250E+03 -0.49403105361E+02  0.15143724596E+03  0.19848635673E+03  0.00000000000E+00 0. -1.
          1    1    1    2  501    0  0.18761276885E+02 -0.32991922492E+02 -0.30368168368E+02  0.48607387402E+02  0.00000000000E+00 0. -1.
<scales pt_clust_5="13000.00000" pt_clust_6="13000.00000" pt_clust_7="13000.00000" pt_clust_8="13000.00000" pt_clust_9="37.95329"></scales>
<clustering>
<clus scale="   37.953">  2  9  1 -1</clus>
<clus scale="   87.145">  7  8 -1 -1</clus>
<clus scale="   89.272">  5  6 -1 -1</clus>
<clus scale="  188.688">  2  7  1 -1</clus>
<clus scale="   37.953">  2  5  1 -1</clus>
</clustering>
</event>
<event>
 9    1  0.1464797E-005  0.1940839E+03  0.7546771E-02  0.1156094E+00
         21   -1    0    0  501  502  0.00000000000E+00  0.00000000000E+00  0.66123392126E+03  0.66123392126E+03  0.00000000000E+00 0. -1.
          1   -1    0    0  502    0 -0.00000000000E+00 -0.00000000000E+00 -0.12446139991E+03  0.12446139991E+03  0.00000000000E+00 0. -1.
         23    2    1    2    0    0  0.81606239563E+00 -0.17440030674E+03 -0.11423896688E+02  0.19545847734E+03  0.87506445474E+02 0.  0.
         23    2    1    2    0    0  0.19636085468E+02  0.13482763532E+03  0.37010789429E+03  0.40666176664E+03  0.99145710603E+02 0.  0.
        -13    1    4    4    0    0  0.26808342509E+02 -0.27002210051E+01  0.33630424356E+02  0.43092735628E+02  0.00000000000E+00 0.  1.
         13    1    4    4    0    0 -0.71722570411E+01  0.13752785632E+03  0.33647746994E+03  0.36356903101E+03  0.00000000000E+00 0. -1.
        -13    1    3    3    0    0 -0.26285987762E+02 -0.10125171023E+03  0.27665619851E+02  0.10820466025E+03  0.00000000000E+00 0.  1.
         13    1    3    3    0    0  0.27102050158E+02 -0.73148596510E+02 -0.39089516539E+02  0.87253817094E+02  0.00000000000E+00 0. -1.
          1    1    1    2  501    0 -0.20452147863E+02  0.39572671425E+02  0.17808852374E+03  0.18357507719E+03  0.00000000000E+00 0. -1.
<scales pt_clust_5="13000.00000" pt_clust_6="13000.00000" pt_clust_7="13000.00000" pt_clust_8="13000.00000" pt_clust_9="44.54533"></scales>
<clustering>
<clus scale="   44.545">  1  9  2 -1</clus>
<clus scale="   87.506">  7  8 -1 -1</clus>
<clus scale="   99.146">  5  6 -1 -1</clus>
<clus scale="  188.404">  2  7  1 -1</clus>
<clus scale="   44.545">  1  5  2 -1</clus>
</clustering>
</event>
<event>
 9    1  0.1464797E-005  0.1838836E+03  0.7546771E-02  0.1164233E+00
         21   -1    0    0  501  502  0.00000000000E+00  0.00000000000E+00  0.82821913917E+03  0.82821913917E+03  0.00000000000E+00 0.  1.
         -1   -1    0    0    0  501 -0.00000000000E+00 -0.00000000000E+00 -0.14108688053E+03  0.14108688053E+03  0.00000000000E+00 0.  1.
         23    2    1    2    0    0  0.55968511233E+02 -0.16248070450E+03 -0.22200915042E+02  0.19611711924E+03  0.91850913145E+02 0.  0.
         23    2    1    2    0    0  0.53577091920E+02  0.13498902637E+03  0.27116450537E+03  0.32069822274E+03  0.90689685626E+02 0.  0.
        -11    1    4    4    0    0 -0.17154684979E+02  0.78093927796E+02  0.13916296414E+03  0.16049696372E+03  0.00000000000E+00 0.  1.
         11    1    4    4    0    0  0.70731776900E+02  0.56895098573E+02  0.13200154122E+03  0.16020125902E+03  0.00000000000E+00 0. -1.
        -13    1    3    3    0    0  0.70154593155E+02 -0.97872694139E+02  0.13117933573E+02  0.12113138066E+03  0.00000000000E+00 0.  1.
         13    1    3    3    0    0 -0.14186081923E+02 -0.64608010364E+02 -0.35318848615E+02  0.74985738584E+02  0.00000000000E+00 0. -1.
         -1    1    1    2    0  502 -0.10954560315E+03  0.27491678134E+02  0.43816866831E+03  0.45249067772E+03  0.00000000000E+00 0.  1.
<scales pt_clust_5="13000.00000" pt_clust_6="13000.00000" pt_clust_7="13000.00000" pt_clust_8="13000.00000" pt_clust_9="112.94260"></scales>
<clustering>
<clus scale="   90.690">  5  6 -1 -1</clus>
<clus scale="   91.851">  7  8 -1 -1</clus>
<clus scale="  112.943">  1  9  2 -1</clus>
<clus scale="  183.306">  1  5  2 -1</clus>
<clus scale="  112.943">  1  5  2 -1</clus>
</clustering>
</event>
<event>
 9    1  0.1464797E-005  0.9264062E+02  0.7546771E-02  0.1296667E+00
          2   -1    0    0  502    0 -0.00000000000E+00  0.00000000000E+00  0.12435658906E+03  0.12435658906E+03  0.00000000000E+00 0. -1.
         21   -1    0    0  501  502  0.00000000000E+00 -0.00000000000E+00 -0.33011790227E+03  0.33011790227E+03  0.00000000000E+00 0. -1.
         23    2    1    2    0    0  0.32564616211E+01  0.69962240438E+01  0.74392511879E+02  0.11807788171E+03  0.91370611420E+02 0.  0.
         23    2    1    2    0    0 -0.12848232362E+02 -0.42150984245E+02 -0.70611429230E+02  0.12370933944E+03  0.91521823518E+02 0.  0.
        -11    1    4    4    0    0 -0.42535312759E+02  0.42458387053E+01 -0.47703700952E+02  0.64054063590E+02  0.00000000000E+00 0.  1.
         11    1    4    4    0    0  0.29687080397E+02 -0.46396822950E+02 -0.22907728277E+02  0.59655275854E+02  0.00000000000E+00 0. -1.
        -11    1    3    3    0    0  0.11293788070E+02 -0.24651737446E+02  0.80424684768E+02  0.84872773774E+02  0.00000000000E+00 0. -1.
         11    1    3    3    0    0 -0.80373264491E+01  0.31647961490E+02 -0.60321728894E+01  0.33205107931E+02  0.00000000000E+00 0.  1.
          2    1    1    2  501    0  0.95917707405E+01  0.35154760201E+02 -0.20954239587E+03  0.21268727018E+03  0.00000000000E+00 0. -1.
<scales pt_clust_5="13000.00000" pt_clust_6="13000.00000" pt_clust_7="13000.00000" pt_clust_8="13000.00000" pt_clust_9="36.43980"></scales>
<clustering>
<clus scale="   36.440">  2  9  1 -1</clus>
<clus scale="   91.371">  7  8 -1 -1</clus>
<clus scale="   91.522">  5  6 -1 -1</clus>
<clus scale="   92.491">  1  7  2 -1</clus>
<clus scale="   36.440">  2  5  1 -1</clus>
</clustering>
</event>
<event>
 9    1  0.1464797E-005  0.9121544E+02  0.7546771E-02  0.1301534E+00
          1   -1    0    0  502    0 -0.00000000000E+00  0.00000000000E+00  0.38436143328E+03  0.38436143328E+03  0.00000000000E+00 0. -1.
         21   -1    0    0  501  502  0.00000000000E+00 -0.00000000000E+00 -0.37537546270E+02  0.37537546270E+02  0.00000000000E+00 0.  1.
         23    2    1    2    0    0 -0.58218491178E+01  0.10049666763E+02  0.18570982667E+03  0.20599042608E+03  0.88368694600E+02 0.  0.
         23    2    1    2    0    0 -0.72265389177E+01  0.34192825417E+02  0.11317916141E+03  0.14938477516E+03  0.91021515581E+02 0.  0.
        -11    1    4    4    0    0  0.16130601307E+02  0.23730054852E+02 -0.44208781730E+01  0.29031981772E+02  0.00000000000E+00 0.  1.
         11    1    4    4    0    0 -0.23357140225E+02  0.10462770564E+02  0.11760003958E+03  0.12035279339E+03  0.00000000000E+00 0. -1.
        -13    1    3    3    0    0  0.45009001479E+01 -0.38862045044E+02  0.79499192073E+02  0.88603827160E+02  0.00000000000E+00 0. -1.
         13    1    3    3    0    0 -0.10322749266E+02  0.48911711807E+02  0.10621063460E+03  0.11738659892E+03  0.00000000000E+00 0.  1.
          1    1    1    2  501    0  0.13048388035E+02 -0.44242492180E+02  0.47934898925E+02  0.66523778302E+02  0.00000000000E+00 0. -1.
<scales pt_clust_5="13000.00000" pt_clust_6="13000.00000" pt_clust_7="13000.00000" pt_clust_8="13000.00000" pt_clust_9="46.12655"></scales>
<clustering>
<clus scale="   46.127">  2  9  1 -1</clus>
<clus scale="   88.369">  7  8 -1 -1</clus>
<clus scale="   88.568">  1  7  2 -1</clus>
<clus scale="   91.022">  5  6 -1 -1</clus>
<clus scale="   46.127">  2  5  1 -1</clus>
</clustering>
</event>
<event>
 9    1  0.1464797E-005  0.1533262E+03  0.7546771E-02  0.1196528E+00
         21   -1    0    0  501  502  0.00000000000E+00  0.00000000000E+00  0.54933386814E+03  0.54933386814E+03  0.00000000000E+00 0.  1.
          1   -1    0    0  502    0 -0.00000000000E+00 -0.00000000000E+00 -0.50542792009E+02  0.50542792009E+02  0.00000000000E+00 0. -1.
         23    2    1    2    0    0 -0.13146922787E+02 -0.13291701455E+03  0.19071971801E+03  0.24968308303E+03  0.90154627027E+02 0.  0.
         23    2    1    2    0    0  0.15827974557E+02  0.10997373650E+03  0.26286912803E+03  0.29943115350E+03  0.90631615453E+02 0.  0.
        -11    1    4    4    0    0  0.24001472486E+02  0.75544983457E+01  0.11095240488E+02  0.27499917968E+02  0.00000000000E+00 0. -1.
         11    1    4    4    0    0 -0.81734979292E+01  0.10241923815E+03  0.25177388754E+03  0.27193123554E+03  0.00000000000E+00 0.  1.
        -11    1    3    3    0    0  0.30792944999E+02 -0.16508890866E+02  0.27598888973E+02  0.44524685421E+02  0.00000000000E+00 0.  1.
         11    1    3    3    0    0 -0.43939867786E+02 -0.11640812369E+03  0.16312082904E+03  0.20515839760E+03  0.00000000000E+00 0. -1.
          1    1    1    2  501    0 -0.26810517695E+01  0.22943278058E+02  0.45202230091E+02  0.50762423621E+02  0.00000000000E+00 0. -1.
<scales pt_clust_5="13000.00000" pt_clust_6="13000.00000" pt_clust_7="13000.00000" pt_clust_8="13000.00000" pt_clust_9="23.09939"></scales>
<clustering>
<clus scale="   23.099">  1  9  2 -1</clus>
<clus scale="   90.155">  7  8 -1 -1</clus>
<clus scale="   90.632">  5  6 -1 -1</clus>
<clus scale="  153.045">  2  7  1 -1</clus>
<clus scale="   23.099">  1  5  2 -1</clus>
</clustering>
</event>
<event>
 9    1  0.1464797E-005  0.1026223E+03  0.7546771E-02  0.1275564E+00
          2   -1    0    0  502    0 -0.00000000000E+00  0.00000000000E+00  0.33060483373E+03  0.33060483373E+03  0.00000000000E+00 0. -1.
         21   -1    0    0  501  502  0.00000000000E+00 -0.00000000000E+00 -0.84265444784E+02  0.84265444784E+02  0.00000000000E+00 0. -1.
         23    2    1    2    0    0 -0.63229555174E+02  0.18730092704E+02  0.17080866266E+03  0.20471905327E+03  0.91572367614E+02 0.  0.
         23    2    1    2    0    0  0.28884399722E+02  0.81285219633E+01  0.11652976114E+03  0.15030228421E+03  0.90062256195E+02 0.  0.
        -13    1    3    3    0    0 -0.17666435816E+02 -0.34003122854E+02  0.34200478825E+02  0.51361348017E+02  0.00000000000E+00 0.  1.
         13    1    3    3    0    0 -0.45563119358E+02  0.52733215558E+02  0.13660818383E+03  0.15335770525E+03  0.00000000000E+00 0. -1.
        -13    1    4    4    0    0 -0.80997333280E+00 -0.36470620525E+02  0.24935744228E+02  0.44187708228E+02  0.00000000000E+00 0.  1.
         13    1    4    4    0    0  0.29694373055E+02  0.44599142488E+02  0.91594016915E+02  0.10611457598E+03  0.00000000000E+00 0. -1.
          2    1    1    2  501    0  0.34345155452E+02 -0.26858614667E+02 -0.40999034852E+02  0.59848941040E+02  0.00000000000E+00 0. -1.
<scales pt_clust_5="13000.00000" pt_clust_6="13000.00000" pt_clust_7="13000.00000" pt_clust_8="13000.00000" pt_clust_9="43.60017"></scales>
<clustering>
<clus scale="   43.600">  2  9  1 -1</clus>
<clus scale="   90.062">  7  8 -1 -1</clus>
<clus scale="   91.572">  5  6 -1 -1</clus>
<clus scale="  101.277">  2  7  1 -1</clus>
<clus scale="   43.600">  2  5  1 -1</clus>
</clustering>
</event>
<event>
 9    1  0.1464797E-005  0.9943743E+02  0.7546771E-02  0.1282092E+00
          2   -1    0    0  502    0 -0.00000000000E+00  0.00000000000E+00  0.19568927582E+03  0.19568927582E+03  0.00000000000E+00 0. -1.
         21   -1    0    0  501  502  0.00000000000E+00 -0.00000000000E+00 -0.13066437658E+03  0.13066437658E+03  0.00000000000E+00 0.  1.
         23    2    1    2    0    0  0.58865238386E+01 -0.32207701404E+02  0.11649547429E+03  0.15181787726E+03  0.91681432867E+02 0.  0.
         23    2    1    2    0    0 -0.88560850047E+01  0.52797051037E+02  0.13827481492E+02  0.10600420724E+03  0.90441881162E+02 0.  0.
        -13    1    3    3    0    0  0.39291649238E+02 -0.93243577709E+01  0.15938076304E+02  0.43414279033E+02  0.00000000000E+00 0.  1.
         13    1    3    3    0    0 -0.33405125399E+02 -0.22883343633E+02  0.10055739798E+03  0.10840359822E+03  0.00000000000E+00 0. -1.
        -13    1    4    4    0    0  0.92178390778E+00 -0.25249209956E+02  0.10251560713E+02  0.27266587356E+02  0.00000000000E+00 0. -1.
         13    1    4    4    0    0 -0.97778689125E+01  0.78046260993E+02  0.35759207794E+01  0.78737619883E+02  0.00000000000E+00 0.  1.
          2    1    1    2  501    0  0.29695611661E+01 -0.20589349632E+02 -0.65298056535E+02  0.68531567902E+02  0.00000000000E+00 0. -1.
<scales pt_clust_5="13000.00000" pt_clust_6="13000.00000" pt_clust_7="13000.00000" pt_clust_8="13000.00000" pt_clust_9="20.80239"></scales>
<clustering>
<clus scale="   20.802">  2  9  1 -1</clus>
<clus scale="   90.442">  7  8 -1 -1</clus>
<clus scale="   91.681">  5  6 -1 -1</clus>
<clus scale="   98.296">  2  7  1 -1</clus>
<clus scale="   20.802">  2  5  1 -1</clus>
</clustering>
</event>
<event>
 9    1  0.1464797E-005  0.9832228E+02  0.7546771E-02  0.1285210E+00
         21   -1    0    0  501  502  0.00000000000E+00  0.00000000000E+00  0.21313891015E+03  0.21313891015E+03  0.00000000000E+00 0.  1.
          3   -1    0    0  502    0 -0.00000000000E+00 -0.00000000000E+00 -0.75304515180E+02  0.75304515180E+02  0.00000000000E+00 0. -1.
         23    2    1    2    0    0 -0.19619467438E+02 -0.62416595778E+01  0.57929940937E+01  0.95108694360E+02  0.92672666658E+02 0.  0.
         23    2    1    2    0    0  0.21668586106E+02  0.26319842000E+02  0.58000818688E+02  0.11659269485E+03  0.95223420531E+02 0.  0.
        -13    1    4    4    0    0  0.22907233297E+02  0.60935981922E+02  0.46845301099E+02  0.80202353240E+02  0.00000000000E+00 0.  1.
         13    1    4    4    0    0 -0.12386471914E+01 -0.34616139922E+02  0.11155517588E+02  0.36390341612E+02  0.00000000000E+00 0. -1.
        -13    1    3    3    0    0 -0.56277414474E+02 -0.30230860117E-01 -0.47073149503E+01  0.56473950701E+02  0.00000000000E+00 0. -1.
         13    1    3    3    0    0  0.36657947036E+02 -0.62114287177E+01  0.10500309044E+02  0.38634743659E+02  0.00000000000E+00 0.  1.
          3    1    1    2  501    0 -0.20491186680E+01 -0.20078182422E+02  0.74040582188E+02  0.76742036117E+02  0.00000000000E+00 0. -1.
<scales pt_clust_5="13000.00000" pt_clust_6="13000.00000" pt_clust_7="13000.00000" pt_clust_8="13000.00000" pt_clust_9="20.18247"></scales>
<clustering>
<clus scale="   20.182">  1  9  2 -1</clus>
<clus scale="   92.673">  7  8 -1 -1</clus>
<clus scale="   95.223">  5  6 -1 -1</clus>
<clus scale="   95.854">  2  7  1 -1</clus>
<clus scale="   20.182">  1  5  2 -1</clus>
</clustering>
</event>
<event>
 9    1  0.1464797E-005  0.1077273E+03  0.7546771E-02  0.1267121E+00
         21   -1    0    0  501  502  0.00000000000E+00  0.00000000000E+00  0.26450897959E+03  0.26450897959E+03  0.00000000000E+00 0. -1.
          2   -1    0    0  502    0 -0.00000000000E+00 -0.00000000000E+00 -0.26373174761E+03  0.26373174761E+03  0.00000000000E+00 0. -1.
         23    2    1    2    0    0  0.11098653630E+02 -0.34534489023E+02 -0.15216038333E+03  0.18444892893E+03  0.97738498462E+02 0.  0.
         23    2    1    2    0    0 -0.44423359815E+02  0.51331957892E+02 -0.58679852450E+02  0.12890893795E+03  0.92551522955E+02 0.  0.
        -11    1    4    4    0    0 -0.10172373619E+02  0.23779005381E+02 -0.77043997197E+02  0.81269279472E+02  0.00000000000E+00 0. -1.
         11    1    4    4    0    0 -0.34250986196E+02  0.27552952510E+02  0.18364144746E+02  0.47639658476E+02  0.00000000000E+00 0.  1.
        -13    1    3    3    0    0  0.25346079758E+02  0.16981664108E+02 -0.92659252095E+01  0.31885075583E+02  0.00000000000E+00 0.  1.
         13    1    3    3    0    0 -0.14247426128E+02 -0.51516153131E+02 -0.14289445812E+03  0.15256385334E+03  0.00000000000E+00 0. -1.
          2    1    1    2  501    0  0.33324706185E+02 -0.16797468868E+02  0.21161746776E+03  0.21488286033E+03  0.00000000000E+00 0. -1.
<scales pt_clust_5="13000.00000" pt_clust_6="13000.00000" pt_clust_7="13000.00000" pt_clust_8="13000.00000" pt_clust_9="37.31878"></scales>
<clustering>
<clus scale="   37.319">  1  9  2 -1</clus>
<clus scale="   92.552">  5  6 -1 -1</clus>
<clus scale="   97.738">  7  8 -1 -1</clus>
<clus scale="  103.044">  1  5  2 -1</clus>
<clus scale="   37.319">  1  5  2 -1</clus>
</clustering>
</event>
<event>
 9    1  0.1464797E-005  0.9741454E+02  0.7546771E-02  0.1287633E+00
         21   -1    0    0  501  502  0.00000000000E+00  0.00000000000E+00  0.25085928228E+03  0.25085928228E+03  0.00000000000E+00 0. -1.
          1   -1    0    0  502    0 -0.00000000000E+00 -0.00000000000E+00 -0.19634967785E+03  0.19634967785E+03  0.00000000000E+00 0. -1.
         23    2    1    2    0    0  0.28305696788E+02 -0.17928396653E+02 -0.12276743715E+03  0.15616541393E+03  0.90516037283E+02 0.  0.
         23    2    1    2    0    0 -0.47084165016E+01  0.73356017237E+01 -0.16341431708E+02  0.95704988446E+02  0.93895804936E+02 0.  0.
        -11    1    3    3    0    0  0.10677031668E+02 -0.44612096939E+02 -0.11418213831E+03  0.12305201708E+03  0.00000000000E+00 0. -1.
         11    1    3    3    0    0  0.17628665120E+02  0.26683700286E+02 -0.85852988479E+01  0.33113396854E+02  0.00000000000E+00 0.  1.
        -13    1    4    4    0    0 -0.28397470185E+02  0.39493623833E+02  0.74565394195E+01  0.49211407382E+02  0.00000000000E+00 0. -1.
         13    1    4    4    0    0  0.23689053683E+02 -0.32158022109E+02 -0.23797971128E+02  0.46493581065E+02  0.00000000000E+00 0.  1.
          1    1    1    2  501    0 -0.23597280287E+02  0.10592794930E+02  0.19361847330E+03  0.19533855775E+03  0.00000000000E+00 0. -1.
<scales pt_clust_5="13000.00000" pt_clust_6="13000.00000" pt_clust_7="13000.00000" pt_clust_8="13000.00000" pt_clust_9="25.86579"></scales>
<clustering>
<clus scale="   25.866">  1  9  2 -1</clus>
<clus scale="   90.516">  5  6 -1 -1</clus>
<clus scale="   93.896">  7  8 -1 -1</clus>
<clus scale="   94.161">  2  5  1 -1</clus>
<clus scale="   25.866">  1  5  2 -1</clus>
</clustering>
</event>
<event>
 9    1  0.1464797E-005  0.1366770E+03  0.7546771E-02  0.1218824E+00
          1   -1    0    0  502    0 -0.00000000000E+00  0.00000000000E+00  0.36611641572E+03  0.36611641572E+03  0.00000000000E+00 0. -1.
         21   -1    0    0  501  502  0.00000000000E+00 -0.00000000000E+00 -0.17360173178E+03  0.17360173178E+03  0.00000000000E+00 0. -1.
         23    2    1    2    0    0  0.73353308150E+02  0.68905651848E+02  0.23634657645E+03  0.27167279596E+03  0.88417799080E+02 0.  0.
         23    2    1    2    0    0 -0.58368248195E+02 -0.83891649512E+02  0.68372746042E+02  0.15385685361E+03  0.92479390926E+02 0.  0.
        -13    1    3    3    0    0 -0.18214212321E+02  0.19537128342E+02  0.27416457121E+02  0.38276873375E+02  0.00000000000E+00 0.  1.
         13    1    3    3    0    0  0.91567520471E+02  0.49368523506E+02  0.20893011932E+03  0.23339592259E+03  0.00000000000E+00 0. -1.
        -13    1    4    4    0    0 -0.67817916822E+02 -0.18850667294E+02  0.47427178675E+02  0.84876114288E+02  0.00000000000E+00 0.  1.
         13    1    4    4    0    0  0.94496686276E+01 -0.65040982218E+02  0.20945567367E+02  0.68980739321E+02  0.00000000000E+00 0. -1.
          1    1    1    2  501    0 -0.14985059956E+02  0.14985997664E+02 -0.11220463855E+03  0.11418849793E+03  0.00000000000E+00 0. -1.
<scales pt_clust_5="13000.00000" pt_clust_6="13000.00000" pt_clust_7="13000.00000" pt_clust_8="13000.00000" pt_clust_9="21.19274"></scales>
<clustering>
<clus scale="   21.193">  2  9  1 -1</clus>
<clus scale="   88.418">  5  6 -1 -1</clus>
<clus scale="   92.479">  7  8 -1 -1</clus>
<clus scale="  133.962">  1  5  2 -1</clus>
<clus scale="   21.193">  2  5  1 -1</clus>
</clustering>
</event>
<event>
 9    1  0.1464797E-005  0.1938924E+03  0.7546771E-02  0.1183002E+00
         21   -1    0    0  501  502  0.00000000000E+00  0.00000000000E+00  0.77004981627E+03  0.77004981627E+03  0.00000000000E+00 0. -1.
          1   -1    0    0  502    0 -0.00000000000E+00 -0.00000000000E+00 -0.31101555420E+03  0.31101555420E+03  0.00000000000E+00 0. -1.
         23    2    1    2    0    0  0.31823652886E+02  0.10756034663E+02 -0.11076366425E+03  0.15061136143E+03  0.96367814685E+02 0.  0.
         23    2    1    2    0    0 -0.19790030931E+03 -0.45405693177E+02 -0.96979979212E+02  0.24243160392E+03  0.90231684085E+02 0.  0.
        -13    1    3    3    0    0  0.22412217599E+02 -0.40722593704E+02 -0.33513922028E+02  0.57304625515E+02  0.00000000000E+00 0.  1.
         13    1    3    3    0    0  0.94114352871E+01  0.51478628367E+02 -0.77249742224E+02  0.93306735911E+02  0.00000000000E+00 0. -1.
        -13    1    4    4    0    0 -0.14081158443E+03 -0.51075858116E+02 -0.10714967727E+03  0.18416758382E+03  0.00000000000E+00 0. -1.
         13    1    4    4    0    0 -0.57088724883E+02  0.56701649391E+01  0.10169698061E+02  0.58264020097E+02  0.00000000000E+00 0.  1.
          1    1    1    2  501    0  0.16607665642E+03  0.34649658514E+02  0.66677790553E+03  0.68802240512E+03  0.00000000000E+00 0. -1.
<scales pt_clust_5="13000.00000" pt_clust_6="13000.00000" pt_clust_7="13000.00000" pt_clust_8="13000.00000" pt_clust_9="171.61738"></scales>
<clustering>
<clus scale="   90.232">  7  8 -1 -1</clus>
<clus scale="   96.368">  5  6 -1 -1</clus>
<clus scale="  102.055">  2  5  1 -1</clus>
<clus scale="  171.617">  1  9  2 -1</clus>
<clus scale="  171.617">  1  5  2 -1</clus>
</clustering>
</event>
<event>
 9    1  0.1464797E-005  0.9451118E+02  0.7546771E-02  0.1294032E+00
         21   -1    0    0  501  502  0.00000000000E+00  0.00000000000E+00  0.52460729285E+02  0.52460729285E+02  0.00000000000E+00 0.  1.
          1   -1    0    0  502    0 -0.00000000000E+00 -0.00000000000E+00 -0.24915026424E+03  0.24915026424E+03  0.00000000000E+00 0. -1.
         23    2    1    2    0    0  0.38384275925E+02  0.25872179503E+01 -0.10095320805E+03  0.14050839168E+03  0.89838808893E+02 0.  0.
         23    2    1    2    0    0 -0.12514300304E+02 -0.19169345744E+02 -0.41479305209E+02  0.98748395854E+02  0.86640876004E+02 0.  0.
        -13    1    3    3    0    0  0.38318805395E+02  0.42180319121E+02 -0.48783001252E+02  0.75015274306E+02  0.00000000000E+00 0. -1.
         13    1    3    3    0    0  0.65470530369E-01 -0.39593101171E+02 -0.52170206796E+02  0.65493117378E+02  0.00000000000E+00 0.  1.
        -13    1    4    4    0    0 -0.34916910393E+02  0.10387872845E+02  0.76181291798E+01  0.37217394130E+02  0.00000000000E+00 0.  1.
         13    1    4    4    0    0  0.22402610089E+02 -0.29557218589E+02 -0.49097434389E+02  0.61531001723E+02  0.00000000000E+00 0. -1.
          1    1    1    2  501    0 -0.25869975621E+02  0.16582127793E+02 -0.54257021696E+02  0.62354205986E+02  0.00000000000E+00 0. -1.
<scales pt_clust_5="13000.00000" pt_clust_6="13000.00000" pt_clust_7="13000.00000" pt_clust_8="13000.00000" pt_clust_9="30.72822"></scales>
<clustering>
<clus scale="   30.728">  1  9  2 -1</clus>
<clus scale="   86.641">  7  8 -1 -1</clus>
<clus scale="   89.839">  5  6 -1 -1</clus>
<clus scale="   91.477">  1  7  2 -1</clus>
<clus scale="   30.728">  1  5  2 -1</clus>
</clustering>
</event>
<event>
 9    1  0.1464797E-005  0.1293444E+03  0.7546771E-02  0.1229362E+00
          1   -1    0    0  502    0 -0.00000000000E+00  0.00000000000E+00  0.36540020387E+03  0.36540020387E+03  0.00000000000E+00 0. -1.
         21   -1    0    0  501  502  0.00000000000E+00 -0.00000000000E+00 -0.16623112737E+03  0.16623112737E+03  0.00000000000E+00 0. -1.
         23    2    1    2    0    0  0.62228393630E+02  0.61689422004E+02  0.27846188224E+03  0.30589423861E+03  0.91390960130E+02 0.  0.
         23    2    1    2    0    0 -0.78115159091E+02 -0.47996490131E+02  0.11673622126E+02  0.13238412430E+03  0.94782075138E+02 0.  0.
        -11    1    4    4    0    0 -0.30132513050E+02 -0.44251880045E+02 -0.36099717473E+02  0.64570789308E+02  0.00000000000E+00 0.  1.
         11    1    4    4    0    0 -0.47982646041E+02 -0.37446100858E+01  0.47773339598E+02  0.67813334988E+02  0.00000000000E+00 0. -1.
        -11    1    3    3    0    0  0.48829644636E+02  0.81566802031E+02  0.16962039658E+03  0.19444422420E+03  0.00000000000E+00 0. -1.
         11    1    3    3    0    0  0.13398748994E+02 -0.19877380027E+02  0.10884148566E+03  0.11145001441E+03  0.00000000000E+00 0.  1.
          1    1    1    2  501    0  0.15886765460E+02 -0.13692931873E+02 -0.90966427861E+02  0.93352968340E+02  0.00000000000E+00 0. -1.
<scales pt_clust_5="13000.00000" pt_clust_6="13000.00000" pt_clust_7="13000.00000" pt_clust_8="13000.00000" pt_clust_9="20.97345"></scales>
<clustering>
<clus scale="   20.973">  2  9  1 -1</clus>
<clus scale="   91.391">  7  8 -1 -1</clus>
<clus scale="   94.782">  5  6 -1 -1</clus>
<clus scale="  126.880">  1  7  2 -1</clus>
<clus scale="   20.973">  2  5  1 -1</clus>
</clustering>
</event>
<event>
 9    1  0.1464797E-005  0.2423516E+03  0.7546771E-02  0.1118598E+00
          2   -1    0    0  502    0 -0.00000000000E+00  0.00000000000E+00  0.21060279234E+04  0.21060279234E+04  0.00000000000E+00 0. -1.
         21   -1    0    0  501  502  0.00000000000E+00 -0.00000000000E+00 -0.70648138866E+02  0.70648138866E+02  0.00000000000E+00 0. -1.
         23    2    1    2    0    0 -0.16957871028E+03 -0.17392347525E+03  0.13592999523E+04  0.13834789185E+04  0.85505808669E+02 0.  0.
         23    2    1    2    0    0  0.15649044541E+03  0.12415434491E+03  0.70199808264E+03  0.73557748808E+03  0.91484272292E+02 0.  0.
        -11    1    3    3    0    0 -0.40395197352E+02  0.14655044213E+00  0.24136603764E+03  0.24472302216E+03  0.00000000000E+00 0.  1.
         11    1    3    3    0    0 -0.12918351293E+03 -0.17407002569E+03  0.11179339147E+04  0.11387558964E+04  0.00000000000E+00 0. -1.
        -11    1    4    4    0    0  0.55003953329E+02  0.97912559651E+02  0.30661984843E+03  0.32653948562E+03  0.00000000000E+00 0.  1.
         11    1    4    4    0    0  0.10148649208E+03  0.26241785258E+02  0.39537823421E+03  0.40903800245E+03  0.00000000000E+00 0. -1.
          2    1    1    2  501    0  0.13088264877E+02  0.49769130340E+02 -0.25918250454E+02  0.57619655665E+02  0.00000000000E+00 0. -1.
<scales pt_clust_5="13000.00000" pt_clust_6="13000.00000" pt_clust_7="13000.00000" pt_clust_8="13000.00000" pt_clust_9="51.46134"></scales>
<clustering>
<clus scale="   51.461">  2  9  1 -1</clus>
<clus scale="   85.506">  5  6 -1 -1</clus>
<clus scale="   91.484">  7  8 -1 -1</clus>
<clus scale="  240.159">  1  5  2 -1</clus>
<clus scale="   51.461">  2  5  1 -1</clus>
</clustering>
</event>
<event>
 9    1  0.1464797E-005  0.2534052E+03  0.7546771E-02  0.1111181E+00
          1   -1    0    0  502    0 -0.00000000000E+00  0.00000000000E+00  0.85433336726E+03  0.85433336726E+03  0.00000000000E+00 0. -1.
         21   -1    0    0  501  502  0.00000000000E+00 -0.00000000000E+00 -0.10541507463E+03  0.10541507463E+03  0.00000000000E+00 0. -1.
         23    2    1    2    0    0  0.14445569572E+03  0.13892425122E+03  0.25716991280E+03  0.33857855461E+03  0.91278025773E+02 0.  0.
         23    2    1    2    0    0 -0.22286127222E+03 -0.16665584913E+03  0.41527560314E+03  0.50818952826E+03  0.91440971992E+02 0.  0.
        -13    1    4    4    0    0 -0.20765221308E+03 -0.13829241221E+03  0.40252448935E+03  0.47357174472E+03  0.00000000000E+00 0. -1.
         13    1    4    4    0    0 -0.15209059144E+02 -0.28363436924E+02  0.12751113795E+02  0.34617783540E+02  0.00000000000E+00 0.  1.
        -13    1    3    3    0    0  0.11721447484E+03  0.55490328307E+02  0.17903189776E+03  0.22106747853E+03  0.00000000000E+00 0.  1.
         13    1    3    3    0    0  0.27241220882E+02  0.83433922909E+02  0.78138015042E+02  0.11751107608E+03  0.00000000000E+00 0. -1.
          1    1    1    2  501    0  0.78405576502E+02  0.27731597919E+02  0.76472776694E+02  0.11298035902E+03  0.00000000000E+00 0. -1.
<scales pt_clust_5="13000.00000" pt_clust_6="13000.00000" pt_clust_7="13000.00000" pt_clust_8="13000.00000" pt_clust_9="83.16535"></scales>
<clustering>
<clus scale="   83.165">  2  9  1 -1</clus>
<clus scale="   91.278">  7  8 -1 -1</clus>
<clus scale="   91.441">  5  6 -1 -1</clus>
<clus scale="  253.346">  1  7  2 -1</clus>
<clus scale="   83.165">  2  5  1 -1</clus>
</clustering>
</event>
<event>
 9    1  0.1464797E-005  0.3254718E+03  0.7546771E-02  0.1073806E+00
         21   -1    0    0  501  502  0.00000000000E+00  0.00000000000E+00  0.72969013228E+03  0.72969013228E+03  0.00000000000E+00 0. -1.
         -1   -1    0    0    0  501 -0.00000000000E+00 -0.00000000000E+00 -0.25066300889E+03  0.25066300889E+03  0.00000000000E+00 0.  1.
         23    2    1    2    0    0  0.31525949028E+03  0.94226281461E+02 -0.14018914690E+02  0.34182398544E+03  0.91542169111E+02 0.  0.
         23    2    1    2    0    0 -0.25939951953E+03 -0.11223180386E+03  0.23505909813E+03  0.37395062985E+03  0.68572628820E+02 0.  0.
        -11    1    4    4    0    0 -0.89262503559E+02 -0.60883235153E+01  0.59688905500E+02  0.10755290635E+03  0.00000000000E+00 0.  1.
         11    1    4    4    0    0 -0.17013701597E+03 -0.10614348035E+03  0.17537019263E+03  0.26639772350E+03  0.00000000000E+00 0. -1.
        -11    1    3    3    0    0  0.16782325180E+03  0.37811770008E+02  0.36921474411E+02  0.17594763161E+03  0.00000000000E+00 0. -1.
         11    1    3    3    0    0  0.14743623848E+03  0.56414511453E+02 -0.50940389101E+02  0.16587635383E+03  0.00000000000E+00 0.  1.
         -1    1    1    2    0  502 -0.55859970754E+02  0.18005522400E+02  0.25798693995E+03  0.26457852588E+03  0.00000000000E+00 0.  1.
<scales pt_clust_5="13000.00000" pt_clust_6="13000.00000" pt_clust_7="13000.00000" pt_clust_8="13000.00000" pt_clust_9="58.69016"></scales>
<clustering>
<clus scale="   58.690">  1  9  2 -1</clus>
<clus scale="   68.573">  5  6 -1 -1</clus>
<clus scale="   91.542">  7  8 -1 -1</clus>
<clus scale="  319.772">  1  5  2 -1</clus>
<clus scale="   58.690">  1  5  2 -1</clus>
</clustering>
</event>
<event>
 9    1  0.1464797E-005  0.3566154E+03  0.7546771E-02  0.1086548E+00
          1   -1    0    0  502    0 -0.00000000000E+00  0.00000000000E+00  0.11647402731E+04  0.11647402731E+04  0.00000000000E+00 0. -1.
         21   -1    0    0  501  502  0.00000000000E+00 -0.00000000000E+00 -0.17784276955E+03  0.17784276955E+03  0.00000000000E+00 0.  1.
         23    2    1    2    0    0 -0.11745537535E+03 -0.86548377153E+02  0.29589266609E+03  0.34249735125E+03  0.92008581024E+02 0.  0.
         23    2    1    2    0    0  0.40739375536E+03  0.10908723086E+03  0.39302959233E+03  0.58371865280E+03  0.91572426714E+02 0.  0.
        -11    1    3    3    0    0 -0.60513864092E+02  0.37251833651E+01  0.14951443774E+03  0.16133930653E+03  0.00000000000E+00 0.  1.
         11    1    3    3    0    0 -0.56941511260E+02 -0.90273560518E+02  0.14637822835E+03  0.18115804472E+03  0.00000000000E+00 0. -1.
        -13    1    4    4    0    0  0.19554569196E+03  0.96179117942E+02  0.17549279795E+03  0.27979682361E+03  0.00000000000E+00 0.  1.
         13    1    4    4    0    0  0.21184806340E+03  0.12908112921E+02  0.21753679439E+03  0.30392182919E+03  0.00000000000E+00 0. -1.
          1    1    1    2  501    0 -0.28993838001E+03 -0.22538853710E+02  0.29797524515E+03  0.41636703862E+03  0.00000000000E+00 0. -1.
<scales pt_clust_5="13000.00000" pt_clust_6="13000.00000" pt_clust_7="13000.00000" pt_clust_8="13000.00000" pt_clust_9="344.65787"></scales>
<clustering>
<clus scale="   91.572">  7  8 -1 -1</clus>
<clus scale="   92.009">  5  6 -1 -1</clus>
<clus scale="  172.488">  1  5  2 -1</clus>
<clus scale="  344.658">  2  9  1 -1</clus>
<clus scale="  344.658">  2  5  1 -1</clus>
</clustering>
</event>
<event>
 9    1  0.1464797E-005  0.1130507E+03  0.7546771E-02  0.1260068E+00
         -4   -1    0    0    0  501 -0.00000000000E+00  0.00000000000E+00  0.56187238515E+02  0.56187238515E+02  0.00000000000E+00 0.  1.
         21   -1    0    0  501  502  0.00000000000E+00 -0.00000000000E+00 -0.42890750899E+03  0.42890750899E+03  0.00000000000E+00 0. -1.
         23    2    1    2    0    0 -0.23742533660E+02 -0.28424285442E+02 -0.55194352873E+02  0.12308151081E+03  0.10359051022E+03 0.  0.
         23    2    1    2    0    0  0.21633867681E+02  0.55820451631E+02 -0.11967749159E+03  0.16226590613E+03  0.91780037293E+02 0.  0.
        -13    1    4    4    0    0  0.55572004741E+02  0.49758433404E+02 -0.74366198380E+02  0.10533034163E+03  0.00000000000E+00 0.  1.
         13    1    4    4    0    0 -0.33938137060E+02  0.60620182268E+01 -0.45311293213E+02  0.56935564498E+02  0.00000000000E+00 0. -1.
        -13    1    3    3    0    0  0.23522033353E+02 -0.49485410355E+01  0.19963498964E+02  0.31246046188E+02  0.00000000000E+00 0.  1.
         13    1    3    3    0    0 -0.47264567014E+02 -0.23475744406E+02 -0.75157851837E+02  0.91835464627E+02  0.00000000000E+00 0. -1.
         -4    1    1    2    0  502  0.21086659790E+01 -0.27396166189E+02 -0.19784842601E+03  0.19974733056E+03  0.00000000000E+00 0.  1.
<scales pt_clust_5="13000.00000" pt_clust_6="13000.00000" pt_clust_7="13000.00000" pt_clust_8="13000.00000" pt_clust_9="27.47720"></scales>
<clustering>
<clus scale="   27.477">  2  9  1 -1</clus>
<clus scale="   91.780">  5  6 -1 -1</clus>
<clus scale="  102.338">  2  5  1 -1</clus>
<clus scale="  103.591">  7  8 -1 -1</clus>
<clus scale="   27.477">  2  5  1 -1</clus>
</clustering>
</event>
<event>
 9    1  0.1464797E-005  0.1113872E+03  0.7546771E-02  0.1262413E+00
         21   -1    0    0  501  502  0.00000000000E+00  0.00000000000E+00  0.21022433975E+03  0.21022433975E+03  0.00000000000E+00 0.  1.
          1   -1    0    0  502    0 -0.00000000000E+00 -0.00000000000E+00 -0.77178902723E+02  0.77178902723E+02  0.00000000000E+00 0. -1.
         23    2    1    2    0    0 -0.56116319748E+02  0.10849500545E+02  0.19911988726E+02  0.11741797957E+03  0.10061680589E+03 0.  0.
         23    2    1    2    0    0  0.35743866135E+02  0.56068600179E+01  0.71276571766E+02  0.12061070687E+03  0.90319057150E+02 0.  0.
        -11    1    4    4    0    0 -0.15840550835E+02  0.14274429222E+02  0.64417989139E+02  0.67855432391E+02  0.00000000000E+00 0.  1.
         11    1    4    4    0    0  0.51584416970E+02 -0.86675692039E+01  0.68585826269E+01  0.52755274482E+02  0.00000000000E+00 0. -1.
        -13    1    3    3    0    0 -0.18834600668E+02  0.46293722419E+02 -0.18420491859E+02  0.53265048935E+02  0.00000000000E+00 0. -1.
         13    1    3    3    0    0 -0.37281719080E+02 -0.35444221874E+02  0.38332480585E+02  0.64152930640E+02  0.00000000000E+00 0.  1.
          1    1    1    2  501    0  0.20372453613E+02 -0.16456360563E+02  0.41856876532E+02  0.49374556020E+02  0.00000000000E+00 0. -1.
<scales pt_clust_5="13000.00000" pt_clust_6="13000.00000" pt_clust_7="13000.00000" pt_clust_8="13000.00000" pt_clust_9="26.18871"></scales>
<clustering>
<clus scale="   26.189">  1  9  2 -1</clus>
<clus scale="   90.319">  5  6 -1 -1</clus>
<clus scale="  100.617">  7  8 -1 -1</clus>
<clus scale="  102.181">  1  5  2 -1</clus>
<clus scale="   26.189">  1  5  2 -1</clus>
</clustering>
</event>
<event>
 9    1  0.1464797E-005  0.9607183E+02  0.7546771E-02  0.1288814E+00
          1   -1    0    0  502    0 -0.00000000000E+00  0.00000000000E+00  0.27125292315E+03  0.27125292315E+03  0.00000000000E+00 0. -1.
         21   -1    0    0  501  502  0.00000000000E+00 -0.00000000000E+00 -0.66958196336E+02  0.66958196336E+02  0.00000000000E+00 0.  1.
         23    2    1    2    0    0 -0.98505061403E+01 -0.28275060838E+02  0.18852579421E+03  0.21186894760E+03  0.91923687589E+02 0.  0.
         23    2    1    2    0    0  0.26255539118E+02  0.11757330788E+02  0.27722597706E+02  0.10017252110E+03  0.91860782699E+02 0.  0.
        -11    1    3    3    0    0 -0.39675994802E+02  0.12871699761E+02  0.11631716744E+03  0.12357001521E+03  0.00000000000E+00 0. -1.
         11    1    3    3    0    0  0.29825488661E+02 -0.41146760599E+02  0.72208626771E+02  0.88298932393E+02  0.00000000000E+00 0.  1.
        -13    1    4    4    0    0  0.28998377908E+02 -0.35078857052E+02 -0.32004524482E+00  0.45514113880E+02  0.00000000000E+00 0.  1.
         13    1    4    4    0    0 -0.27428387892E+01  0.46836187840E+02  0.28042642951E+02  0.54658407218E+02  0.00000000000E+00 0. -1.
          1    1    1    2  501    0 -0.16405032978E+02  0.16517730050E+02 -0.11953665098E+02  0.26169650787E+02  0.00000000000E+00 0. -1.
<scales pt_clust_5="13000.00000" pt_clust_6="13000.00000" pt_clust_7="13000.00000" pt_clust_8="13000.00000" pt_clust_9="23.28005"></scales>
<clustering>
<clus scale="   23.280">  2  9  1 -1</clus>
<clus scale="   91.861">  7  8 -1 -1</clus>
<clus scale="   91.924">  5  6 -1 -1</clus>
<clus scale="   96.012">  2  7  1 -1</clus>
<clus scale="   23.280">  2  5  1 -1</clus>
</clustering>
</event>
<event>
 9    1  0.1464797E-005  0.9647925E+02  0.7546771E-02  0.1288285E+00
          2   -1    0    0  502    0 -0.00000000000E+00  0.00000000000E+00  0.24587757545E+03  0.24587757545E+03  0.00000000000E+00 0.  1.
         21   -1    0    0  501  502  0.00000000000E+00 -0.00000000000E+00 -0.50819168937E+02  0.50819168937E+02  0.00000000000E+00 0.  1.
         23    2    1    2    0    0  0.20904703720E+02  0.20132438797E+02  0.11311740161E+03  0.14760234482E+03  0.90269507141E+02 0.  0.
         23    2    1    2    0    0 -0.11941030993E+02 -0.38046516813E+02  0.49679959948E+02  0.11112024202E+03  0.91046604020E+02 0.  0.
        -11    1    4    4    0    0  0.14208608878E+02  0.26143565317E+02  0.19130314470E+02  0.35374277455E+02  0.00000000000E+00 0. -1.
         11    1    4    4    0    0 -0.26149639871E+02 -0.64190082130E+02  0.30549645478E+02  0.75745964566E+02  0.00000000000E+00 0.  1.
        -11    1    3    3    0    0 -0.30019847595E+02  0.27788492264E+02  0.33951619995E+02  0.53161114098E+02  0.00000000000E+00 0. -1.
         11    1    3    3    0    0  0.50924551314E+02 -0.76560534669E+01  0.79165781616E+02  0.94441230721E+02  0.00000000000E+00 0.  1.
          2    1    1    2  501    0 -0.89636727264E+01  0.17914078016E+02  0.32261044958E+02  0.37974157551E+02  0.00000000000E+00 0.  1.
<scales pt_clust_5="13000.00000" pt_clust_6="13000.00000" pt_clust_7="13000.00000" pt_clust_8="13000.00000" pt_clust_9="20.03153"></scales>
<clustering>
<clus scale="   20.032">  2  9  1 -1</clus>
<clus scale="   90.270">  7  8 -1 -1</clus>
<clus scale="   91.047">  5  6 -1 -1</clus>
<clus scale="   95.746">  1  7  2 -1</clus>
<clus scale="   20.032">  2  5  1 -1</clus>
</clustering>
</event>
<event>
 9    1  0.1464797E-005  0.9207414E+02  0.7546771E-02  0.1298052E+00
         -3   -1    0    0    0  501 -0.00000000000E+00  0.00000000000E+00  0.24785232505E+03  0.24785232505E+03  0.00000000000E+00 0.  1.
         21   -1    0    0  501  502  0.00000000000E+00 -0.00000000000E+00 -0.91675157380E+02  0.91675157380E+02  0.00000000000E+00 0. -1.
         23    2    1    2    0    0  0.14430777259E+02 -0.24876473276E+02  0.85012272524E+02  0.12746988870E+03  0.90522924120E+02 0.  0.
         23    2    1    2    0    0  0.42601480822E+02 -0.11701278614E+02  0.96561326681E+02  0.13970022279E+03  0.90775857735E+02 0.  0.
        -11    1    4    4    0    0 -0.13580441629E+02 -0.29869187252E+02  0.88821035802E+01  0.33992477197E+02  0.00000000000E+00 0. -1.
         11    1    4    4    0    0  0.56181922451E+02  0.18167908639E+02  0.87679223101E+02  0.10570774559E+03  0.00000000000E+00 0.  1.
        -13    1    3    3    0    0  0.17533726758E+02  0.12164317055E+02  0.87645622653E+02  0.90206193544E+02  0.00000000000E+00 0.  1.
         13    1    3    3    0    0 -0.31029494994E+01 -0.37040790332E+02 -0.26333501290E+01  0.37263695159E+02  0.00000000000E+00 0. -1.
         -3    1    1    2    0  502 -0.57032258080E+02  0.36577751890E+02 -0.25396431532E+02  0.72357370942E+02  0.00000000000E+00 0.  1.
<scales pt_clust_5="13000.00000" pt_clust_6="13000.00000" pt_clust_7="13000.00000" pt_clust_8="13000.00000" pt_clust_9="67.75404"></scales>
<clustering>
<clus scale="   67.754">  2  9  1 -1</clus>
<clus scale="   90.523">  7  8 -1 -1</clus>
<clus scale="   90.776">  5  6 -1 -1</clus>
<clus scale="   91.825">  1  7  2 -1</clus>
<clus scale="   67.754">  2  5  1 -1</clus>
</clustering>
</event>
<event>
 9    1  0.1464797E-005  0.9314529E+02  0.7546771E-02  0.1295631E+00
          1   -1    0    0  502    0 -0.00000000000E+00  0.00000000000E+00  0.29010098104E+03  0.29010098104E+03  0.00000000000E+00 0. -1.
         21   -1    0    0  501  502  0.00000000000E+00 -0.00000000000E+00 -0.12702383334E+03  0.12702383334E+03  0.00000000000E+00 0.  1.
         23    2    1    2    0    0  0.12784651424E+02  0.16723021474E+02  0.24355240957E+03  0.26065715736E+03  0.90450377088E+02 0.  0.
         23    2    1    2    0    0 -0.34524855996E+02  0.99165840797E+01 -0.71117749741E+02  0.12083244814E+03  0.90842951702E+02 0.  0.
        -11    1    3    3    0    0  0.22484724556E+02 -0.31911942087E+02  0.14723196055E+03  0.15231935233E+03  0.00000000000E+00 0. -1.
         11    1    3    3    0    0 -0.97000731324E+01  0.48634963561E+02  0.96320449015E+02  0.10833780503E+03  0.00000000000E+00 0.  1.
        -13    1    4    4    0    0 -0.21454719718E+01 -0.33876375432E+02 -0.53926632058E+02  0.63720432418E+02  0.00000000000E+00 0. -1.
         13    1    4    4    0    0 -0.32379384025E+02  0.43792959512E+02 -0.17191117682E+02  0.57112015722E+02  0.00000000000E+00 0.  1.
          1    1    1    2  501    0  0.21740204573E+02 -0.26639605554E+02 -0.93575121353E+01  0.35635208885E+02  0.00000000000E+00 0. -1.
<scales pt_clust_5="13000.00000" pt_clust_6="13000.00000" pt_clust_7="13000.00000" pt_clust_8="13000.00000" pt_clust_9="34.38466"></scales>
<clustering>
<clus scale="   34.385">  2  9  1 -1</clus>
<clus scale="   90.450">  5  6 -1 -1</clus>
<clus scale="   90.843">  7  8 -1 -1</clus>
<clus scale="   92.762">  1  5  2 -1</clus>
<clus scale="   34.385">  2  5  1 -1</clus>
</clustering>
</event>
<event>
 9    1  0.1464797E-005  0.1708213E+03  0.7546771E-02  0.1196685E+00
          2   -1    0    0  502    0 -0.00000000000E+00  0.00000000000E+00  0.42475637441E+03  0.42475637441E+03  0.00000000000E+00 0. -1.
         21   -1    0    0  501  502  0.00000000000E+00 -0.00000000000E+00 -0.15326664523E+03  0.15326664523E+03  0.00000000000E+00 0. -1.
         23    2    1    2    0    0 -0.30248910483E+02  0.69028655274E+02  0.32460240855E+02  0.11497256598E+03  0.80529943859E+02 0.  0.
         23    2    1    2    0    0  0.95382502813E+02 -0.18390413607E+03  0.24227354605E+03  0.33095471244E+03  0.88971891433E+02 0.  0.
        -11    1    4    4    0    0  0.22750891102E+02 -0.13626865491E+01  0.57974643030E+01  0.23517452092E+02  0.00000000000E+00 0.  1.
         11    1    4    4    0    0  0.72631611711E+02 -0.18254144952E+03  0.23647608174E+03  0.30743726035E+03  0.00000000000E+00 0. -1.
        -13    1    3    3    0    0 -0.92004263891E+01  0.45036558680E+02  0.58063231011E+02  0.74055913058E+02  0.00000000000E+00 0.  1.
         13    1    3    3    0    0 -0.21048484094E+02  0.23992096594E+02 -0.25602990156E+02  0.40916652925E+02  0.00000000000E+00 0. -1.
          2    1    1    2  501    0 -0.65133592330E+02  0.11487548079E+03 -0.32440577175E+01  0.13209574122E+03  0.00000000000E+00 0. -1.
<scales pt_clust_5="13000.00000" pt_clust_6="13000.00000" pt_clust_7="13000.00000" pt_clust_8="13000.00000" pt_clust_9="145.82151"></scales>
<clustering>
<clus scale="   80.530">  7  8 -1 -1</clus>
<clus scale="   88.972">  5  6 -1 -1</clus>
<clus scale="  110.295">  1  7  2 -1</clus>
<clus scale="  145.822">  2  9  1 -1</clus>
<clus scale="  145.822">  2  5  1 -1</clus>
</clustering>
</event>
<event>
 9    1  0.1464797E-005  0.9844706E+02  0.7546771E-02  0.1285170E+00
         -1   -1    0    0    0  501 -0.00000000000E+00  0.00000000000E+00  0.12386094680E+03  0.12386094680E+03  0.00000000000E+00 0.  1.
         21   -1    0    0  501  502  0.00000000000E+00 -0.00000000000E+00 -0.21217848909E+03  0.21217848909E+03  0.00000000000E+00 0.  1.
         23    2    1    2    0    0 -0.47054588727E+02  0.54345778415E+00  0.41354986651E+02  0.10997125575E+03  0.90382589599E+02 0.  0.
         23    2    1    2    0    0  0.72197280641E+01 -0.98446880487E+01 -0.44431613109E+01  0.94327057009E+02  0.93428098800E+02 0.  0.
        -11    1    4    4    0    0  0.20185102908E+02  0.38872083737E+02 -0.27296232654E+01  0.43885397533E+02  0.00000000000E+00 0. -1.
         11    1    4    4    0    0 -0.12965374844E+02 -0.48716771786E+02 -0.17135380454E+01  0.50441659476E+02  0.00000000000E+00 0.  1.
        -13    1    3    3    0    0 -0.41100505967E+02 -0.40629960112E+02  0.11920743270E+02  0.59009739616E+02  0.00000000000E+00 0.  1.
         13    1    3    3    0    0 -0.59540827605E+01  0.41173417896E+02  0.29434243381E+02  0.50961516129E+02  0.00000000000E+00 0. -1.
         -1    1    1    2    0  502  0.39834860663E+02  0.93012302645E+01 -0.12522936762E+03  0.13174112313E+03  0.00000000000E+00 0.  1.
<scales pt_clust_5="13000.00000" pt_clust_6="13000.00000" pt_clust_7="13000.00000" pt_clust_8="13000.00000" pt_clust_9="40.90634"></scales>
<clustering>
<clus scale="   40.906">  2  9  1 -1</clus>
<clus scale="   90.383">  7  8 -1 -1</clus>
<clus scale="   93.428">  5  6 -1 -1</clus>
<clus scale="   95.562">  1  7  2 -1</clus>
<clus scale="   40.906">  2  5  1 -1</clus>
</clustering>
</event>
<event>
 9    1  0.1464797E-005  0.1215596E+03  0.7546771E-02  0.1240681E+00
          1   -1    0    0  502    0 -0.00000000000E+00  0.00000000000E+00  0.19334137882E+03  0.19334137882E+03  0.00000000000E+00 0. -1.
         21   -1    0    0  501  502  0.00000000000E+00 -0.00000000000E+00 -0.27029084056E+03  0.27029084056E+03  0.00000000000E+00 0. -1.
         23    2    1    2    0    0 -0.31078224606E+02  0.95413890325E+02  0.12813212724E+03  0.18626205347E+03  0.90587217743E+02 0.  0.
         23    2    1    2    0    0  0.16064811306E+02 -0.19301221310E+02 -0.57282100310E+02  0.11044733999E+03  0.91031646078E+02 0.  0.
        -11    1    4    4    0    0 -0.34269096798E+02 -0.54319613087E+01 -0.44980757945E+02  0.56807972894E+02  0.00000000000E+00 0.  1.
         11    1    4    4    0    0  0.50333908104E+02 -0.13869260001E+02 -0.12301342366E+02  0.53639367092E+02  0.00000000000E+00 0. -1.
        -13    1    3    3    0    0 -0.23210475417E+02 -0.11597864753E+02  0.38622061915E+02  0.46528489149E+02  0.00000000000E+00 0.  1.
         13    1    3    3    0    0 -0.78677491889E+01  0.10701175508E+03  0.89510065328E+02  0.13973356432E+03  0.00000000000E+00 0. -1.
          1    1    1    2  501    0  0.15013413300E+02 -0.76112669015E+02 -0.14779948867E+03  0.16692282592E+03  0.00000000000E+00 0. -1.
<scales pt_clust_5="13000.00000" pt_clust_6="13000.00000" pt_clust_7="13000.00000" pt_clust_8="13000.00000" pt_clust_9="77.57926"></scales>
<clustering>
<clus scale="   77.579">  2  9  1 -1</clus>
<clus scale="   90.587">  7  8 -1 -1</clus>
<clus scale="   91.032">  5  6 -1 -1</clus>
<clus scale="  121.227">  1  7  2 -1</clus>
<clus scale="   77.579">  2  5  1 -1</clus>
</clustering>
</event>
<event>
 9    1  0.1946339E-005  0.9251294E+02  0.7546771E-02  0.1297290E+00
          1   -1    0    0  502    0 -0.00000000000E+00  0.00000000000E+00  0.25666852823E+03  0.25666852823E+03  0.00000000000E+00 0. -1.
         21   -1    0    0  501  502  0.00000000000E+00 -0.00000000000E+00 -0.13527325298E+03  0.13527325298E+03  0.00000000000E+00 0.  1.
         23    2    1    2    0    0 -0.65349034270E+01  0.16930812398E+02  0.20736970925E+03  0.22721254214E+03  0.91071321619E+02 0.  0.
         23    2    1    2    0    0  0.29389492200E+02  0.17316583658E+02 -0.74533184938E+02  0.12199613077E+03  0.90356261236E+02 0.  0.
        -13    1    3    3    0    0 -0.53930667524E+01 -0.36746018281E+02  0.10887627449E+03  0.11503650801E+03  0.00000000000E+00 0.  1.
         13    1    3    3    0    0 -0.11418366746E+01  0.53676830679E+02  0.98493434756E+02  0.11217603413E+03  0.00000000000E+00 0. -1.
        -13    1    4    4    0    0  0.50767169147E+02  0.10414082018E+02 -0.83115050023E+02  0.97948303241E+02  0.00000000000E+00 0.  1.
         13    1    4    4    0    0 -0.21377676947E+02  0.69025016396E+01  0.85818650848E+01  0.24047827529E+02  0.00000000000E+00 0. -1.
          1    1    1    2  501    0 -0.22854588773E+02 -0.34247396055E+02 -0.11441249062E+02  0.42733108296E+02  0.00000000000E+00 0. -1.
<scales pt_clust_5="13000.00000" pt_clust_6="13000.00000" pt_clust_7="13000.00000" pt_clust_8="13000.00000" pt_clust_9="41.17301"></scales>
<clustering>
<clus scale="   41.173">  2  9  1 -1</clus>
<clus scale="   90.356">  7  8 -1 -1</clus>
<clus scale="   91.071">  5  6 -1 -1</clus>
<clus scale="   91.809">  2  7  1 -1</clus>
<clus scale="   41.173">  2  5  1 -1</clus>
</clustering>
</event>
<event>
 9    1  0.1464797E-005  0.9796426E+02  0.7546771E-02  0.1286520E+00
         21   -1    0    0  501  502  0.00000000000E+00  0.00000000000E+00  0.10643875415E+03  0.10643875415E+03  0.00000000000E+00 0.  1.
         -2   -1    0    0    0  501 -0.00000000000E+00 -0.00000000000E+00 -0.24878784265E+03  0.24878784265E+03  0.00000000000E+00 0.  1.
         23    2    1    2    0    0 -0.16622272835E+02 -0.23661172314E+02 -0.16318875519E+03  0.19041833520E+03  0.93767913127E+02 0.  0.
         23    2    1    2    0    0  0.33900563325E+02  0.53451789336E+01 -0.35719786767E+02  0.10289714214E+03  0.90189243057E+02 0.  0.
        -11    1    4    4    0    0  0.57604669529E+01  0.19981299053E+02  0.26126125764E+02  0.33391761541E+02  0.00000000000E+00 0. -1.
         11    1    4    4    0    0  0.28140096372E+02 -0.14636120119E+02 -0.61845912531E+02  0.69505380603E+02  0.00000000000E+00 0.  1.
        -13    1    3    3    0    0  0.25813556704E+02 -0.81287468330E+01 -0.13380858665E+03  0.13651796254E+03  0.00000000000E+00 0.  1.
         13    1    3    3    0    0 -0.42435829539E+02 -0.15532425481E+02 -0.29380168540E+02  0.53900372665E+02  0.00000000000E+00 0. -1.
         -2    1    1    2    0  502 -0.17278290490E+02  0.18315993381E+02  0.56559453461E+02  0.61911119450E+02  0.00000000000E+00 0.  1.
<scales pt_clust_5="13000.00000" pt_clust_6="13000.00000" pt_clust_7="13000.00000" pt_clust_8="13000.00000" pt_clust_9="25.17965"></scales>
<clustering>
<clus scale="   25.180">  1  9  2 -1</clus>
<clus scale="   90.189">  5  6 -1 -1</clus>
<clus scale="   93.768">  7  8 -1 -1</clus>
<clus scale="   94.545">  1  5  2 -1</clus>
<clus scale="   25.180">  1  5  2 -1</clus>
</clustering>
</event>
<event>
 9    1  0.1464797E-005  0.1576731E+03  0.7546771E-02  0.1193518E+00
         21   -1    0    0  501  502  0.00000000000E+00  0.00000000000E+00  0.64528994142E+02  0.64528994142E+02  0.00000000000E+00 0. -1.
          1   -1    0    0  502    0 -0.00000000000E+00 -0.00000000000E+00 -0.74998635047E+03  0.74998635047E+03  0.00000000000E+00 0. -1.
         23    2    1    2    0    0  0.51470061328E+01 -0.14645266165E+03 -0.51854950730E+03  0.54443035531E+03  0.77691353977E+02 0.  0.
         23    2    1    2    0    0  0.11649622067E+02  0.97193810691E+02 -0.17191695911E+03  0.21780064843E+03  0.91100664629E+02 0.  0.
        -13    1    4    4    0    0  0.37783380060E+02  0.22951923066E+02 -0.10701037565E+03  0.11578253356E+03  0.00000000000E+00 0. -1.
         13    1    4    4    0    0 -0.26133757992E+02  0.74241887625E+02 -0.64906583462E+02  0.10201811487E+03  0.00000000000E+00 0.  1.
        -13    1    3    3    0    0 -0.56953118573E+01 -0.22510049315E+02 -0.20172237172E+02  0.30758056666E+02  0.00000000000E+00 0.  1.
         13    1    3    3    0    0  0.10842317990E+02 -0.12394261233E+03 -0.49837727013E+03  0.51367229864E+03  0.00000000000E+00 0. -1.
          1    1    1    2  501    0 -0.16796628200E+02  0.49258850957E+02  0.50091100861E+01  0.52284340871E+02  0.00000000000E+00 0. -1.
<scales pt_clust_5="13000.00000" pt_clust_6="13000.00000" pt_clust_7="13000.00000" pt_clust_8="13000.00000" pt_clust_9="52.04384"></scales>
<clustering>
<clus scale="   52.044">  1  9  2 -1</clus>
<clus scale="   77.691">  7  8 -1 -1</clus>
<clus scale="   91.101">  5  6 -1 -1</clus>
<clus scale="  150.324">  2  7  1 -1</clus>
<clus scale="   52.044">  1  5  2 -1</clus>
</clustering>
</event>
<event>
 9    1  0.1464797E-005  0.9473955E+02  0.7546771E-02  0.1291881E+00
         -3   -1    0    0    0  501 -0.00000000000E+00  0.00000000000E+00  0.18614449039E+03  0.18614449039E+03  0.00000000000E+00 0.  1.
         21   -1    0    0  501  502  0.00000000000E+00 -0.00000000000E+00 -0.12412264220E+03  0.12412264220E+03  0.00000000000E+00 0.  1.
         23    2    1    2    0    0 -0.31174112386E+01 -0.25747880431E+02  0.10823329765E+03  0.14371050040E+03  0.90915288074E+02 0.  0.
         23    2    1    2    0    0  0.39863896086E+02  0.13106455426E+02  0.71079526118E+01  0.10057884492E+03  0.91129971300E+02 0.  0.
        -11    1    3    3    0    0 -0.20315236566E+02  0.29621977086E+02  0.33432194465E+02  0.49070174138E+02  0.00000000000E+00 0. -1.
         11    1    3    3    0    0  0.17197825327E+02 -0.55369857516E+02  0.74801103188E+02  0.94640326264E+02  0.00000000000E+00 0.  1.
        -13    1    4    4    0    0  0.46411685192E+01  0.47932639822E+02 -0.79481076650E+01  0.48808306885E+02  0.00000000000E+00 0. -1.
         13    1    4    4    0    0  0.35222727567E+02 -0.34826184396E+02  0.15056060277E+02  0.51770538030E+02  0.00000000000E+00 0.  1.
         -3    1    1    2    0  502 -0.36746484848E+02  0.12641425005E+02 -0.53319402082E+02  0.65977787271E+02  0.00000000000E+00 0.  1.
<scales pt_clust_5="13000.00000" pt_clust_6="13000.00000" pt_clust_7="13000.00000" pt_clust_8="13000.00000" pt_clust_9="38.86013"></scales>
<clustering>
<clus scale="   38.860">  2  9  1 -1</clus>
<clus scale="   90.915">  5  6 -1 -1</clus>
<clus scale="   91.130">  7  8 -1 -1</clus>
<clus scale="   94.533">  1  5  2 -1</clus>
<clus scale="   38.860">  2  5  1 -1</clus>
</clustering>
</event>
<event>
 9    1  0.1464797E-005  0.1273197E+03  0.7546771E-02  0.1231831E+00
         21   -1    0    0  501  502  0.00000000000E+00  0.00000000000E+00  0.99353236558E+02  0.99353236558E+02  0.00000000000E+00 0.  1.
         -1   -1    0    0    0  501 -0.00000000000E+00 -0.00000000000E+00 -0.37171117058E+03  0.37171117058E+03  0.00000000000E+00 0.  1.
         23    2    1    2    0    0  0.52022631803E+02 -0.60910151753E+02 -0.16076835121E+03  0.20101360860E+03  0.90241937516E+02 0.  0.
         23    2    1    2    0    0 -0.77524252884E+02  0.91985463219E+02  0.32328977972E+00  0.15113696960E+03  0.91492862206E+02 0.  0.
        -13    1    4    4    0    0 -0.89039592358E+02  0.47193938797E+02  0.16552596436E+02  0.10212397033E+03  0.00000000000E+00 0.  1.
         13    1    4    4    0    0  0.11515339474E+02  0.44791524422E+02 -0.16229306656E+02  0.49012999273E+02  0.00000000000E+00 0. -1.
        -13    1    3    3    0    0  0.59789745669E+02 -0.20327454851E+01 -0.65121066994E+02  0.88429062574E+02  0.00000000000E+00 0.  1.
         13    1    3    3    0    0 -0.77671138655E+01 -0.58877406268E+02 -0.95647284215E+02  0.11258454603E+03  0.00000000000E+00 0. -1.
         -1    1    1    2    0  502  0.25501621081E+02 -0.31075311466E+02 -0.11191287259E+03  0.11891382894E+03  0.00000000000E+00 0.  1.
<scales pt_clust_5="13000.00000" pt_clust_6="13000.00000" pt_clust_7="13000.00000" pt_clust_8="13000.00000" pt_clust_9="40.19962"></scales>
<clustering>
<clus scale="   40.200">  1  9  2 -1</clus>
<clus scale="   90.242">  7  8 -1 -1</clus>
<clus scale="   91.493">  5  6 -1 -1</clus>
<clus scale="  126.424">  2  7  1 -1</clus>
<clus scale="   40.200">  1  5  2 -1</clus>
</clustering>
</event>
<event>
 9    1  0.1464797E-005  0.1159630E+03  0.7546771E-02  0.1249926E+00
         -1   -1    0    0    0  501 -0.00000000000E+00  0.00000000000E+00  0.33705358281E+03  0.33705358281E+03  0.00000000000E+00 0.  1.
         21   -1    0    0  501  502  0.00000000000E+00 -0.00000000000E+00 -0.16545246634E+03  0.16545246634E+03  0.00000000000E+00 0.  1.
         23    2    1    2    0    0  0.31348938833E+02  0.65595546160E+02  0.22907809865E+03  0.25712495285E+03  0.91383447361E+02 0.  0.
         23    2    1    2    0    0 -0.65638080872E+02 -0.39760861422E+02  0.50173308523E+02  0.12948562061E+03  0.91432386465E+02 0.  0.
        -11    1    4    4    0    0 -0.31599435455E+02 -0.55426245262E+02 -0.36479799543E+01  0.63905404643E+02  0.00000000000E+00 0. -1.
         11    1    4    4    0    0 -0.34038645418E+02  0.15665383839E+02  0.53821288478E+02  0.65580215966E+02  0.00000000000E+00 0.  1.
        -13    1    3    3    0    0 -0.34353258743E+01  0.62959064137E+02  0.69759872249E+02  0.94032361435E+02  0.00000000000E+00 0.  1.
         13    1    3    3    0    0  0.34784264707E+02  0.26364820239E+01  0.15931822641E+03  0.16309259141E+03  0.00000000000E+00 0. -1.
         -1    1    1    2    0  502  0.34289142040E+02 -0.25834684738E+02 -0.10765029071E+03  0.11589547570E+03  0.00000000000E+00 0.  1.
<scales pt_clust_5="13000.00000" pt_clust_6="13000.00000" pt_clust_7="13000.00000" pt_clust_8="13000.00000" pt_clust_9="42.93223"></scales>
<clustering>
<clus scale="   42.932">  2  9  1 -1</clus>
<clus scale="   91.383">  7  8 -1 -1</clus>
<clus scale="   91.432">  5  6 -1 -1</clus>
<clus scale="  115.924">  1  7  2 -1</clus>
<clus scale="   42.932">  2  5  1 -1</clus>
</clustering>
</event>
<event>
 9    1  0.1464797E-005  0.1398374E+03  0.7546771E-02  0.1214747E+00
          1   -1    0    0  502    0 -0.00000000000E+00  0.00000000000E+00  0.29855407509E+02  0.29855407509E+02  0.00000000000E+00 0. -1.
         21   -1    0    0  501  502  0.00000000000E+00 -0.00000000000E+00 -0.13009839242E+04  0.13009839242E+04  0.00000000000E+00 0. -1.
         23    2    1    2    0    0  0.32655956602E+02 -0.80321108228E+02 -0.25354566305E+03  0.28131299906E+03  0.85637072955E+02 0.  0.
         23    2    1    2    0    0 -0.27748103321E+02  0.15381136616E+03 -0.65427245086E+03  0.67882516754E+03  0.91122305390E+02 0.  0.
        -11    1    3    3    0    0 -0.11063828015E+00 -0.84591312412E+02 -0.14523685921E+03  0.16807571999E+03  0.00000000000E+00 0. -1.
         11    1    3    3    0    0  0.32766594882E+02  0.42702041843E+01 -0.10830880384E+03  0.11323727908E+03  0.00000000000E+00 0.  1.
        -13    1    4    4    0    0 -0.30094655086E+02  0.77802762470E+01 -0.17691823623E+03  0.17962818063E+03  0.00000000000E+00 0.  1.
         13    1    4    4    0    0  0.23465517649E+01  0.14603108991E+03 -0.47735421462E+03  0.49919698691E+03  0.00000000000E+00 0. -1.
          1    1    1    2  501    0 -0.49078532812E+01 -0.73490257932E+02 -0.36331040279E+03  0.37070116511E+03  0.00000000000E+00 0. -1.
<scales pt_clust_5="13000.00000" pt_clust_6="13000.00000" pt_clust_7="13000.00000" pt_clust_8="13000.00000" pt_clust_9="73.65395"></scales>
<clustering>
<clus scale="   73.654">  2  9  1 -1</clus>
<clus scale="   85.637">  5  6 -1 -1</clus>
<clus scale="   91.122">  7  8 -1 -1</clus>
<clus scale="  136.327">  1  5  2 -1</clus>
<clus scale="   73.654">  2  5  1 -1</clus>
</clustering>
</event>
<event>
 9    1  0.1464797E-005  0.9353688E+02  0.7546771E-02  0.1295751E+00
          3   -1    0    0  502    0 -0.00000000000E+00  0.00000000000E+00  0.84110747432E+02  0.84110747432E+02  0.00000000000E+00 0. -1.
         21   -1    0    0  501  502  0.00000000000E+00 -0.00000000000E+00 -0.46573611680E+03  0.46573611680E+03  0.00000000000E+00 0. -1.
         23    2    1    2    0    0  0.94945381236E+01 -0.35630658422E+02 -0.42218666756E+00  0.96961886276E+02  0.89675744072E+02 0.  0.
         23    2    1    2    0    0  0.95535358285E+01 -0.53751799804E+01 -0.27788895621E+02  0.96590203623E+02  0.91854679301E+02 0.  0.
        -13    1    3    3    0    0 -0.11067737165E+02 -0.58342061654E+02 -0.17472966039E+02  0.61899882925E+02  0.00000000000E+00 0. -1.
         13    1    3    3    0    0  0.20562275288E+02  0.22711403231E+02  0.17050779372E+02  0.35062003351E+02  0.00000000000E+00 0.  1.
        -13    1    4    4    0    0  0.35549128052E+02  0.45970416186E+00  0.20790319156E+02  0.41184817637E+02  0.00000000000E+00 0. -1.
         13    1    4    4    0    0 -0.25995592224E+02 -0.58348841423E+01 -0.48579214776E+02  0.55405385986E+02  0.00000000000E+00 0.  1.
          3    1    1    2  501    0 -0.19048073952E+02  0.41005838403E+02 -0.35341428708E+03  0.35629477434E+03  0.00000000000E+00 0. -1.
<scales pt_clust_5="13000.00000" pt_clust_6="13000.00000" pt_clust_7="13000.00000" pt_clust_8="13000.00000" pt_clust_9="45.21402"></scales>
<clustering>
<clus scale="   45.214">  2  9  1 -1</clus>
<clus scale="   89.676">  5  6 -1 -1</clus>
<clus scale="   91.398">  1  5  2 -1</clus>
<clus scale="   91.855">  7  8 -1 -1</clus>
<clus scale="   45.214">  2  5  1 -1</clus>
</clustering>
</event>
<event>
 9    1  0.1464797E-005  0.1001465E+03  0.7546771E-02  0.1282799E+00
         21   -1    0    0  501  502  0.00000000000E+00  0.00000000000E+00  0.26815289299E+03  0.26815289299E+03  0.00000000000E+00 0. -1.
          2   -1    0    0  502    0 -0.00000000000E+00 -0.00000000000E+00 -0.33384271147E+03  0.33384271147E+03  0.00000000000E+00 0. -1.
         23    2    1    2    0    0 -0.17724902945E+02 -0.39102031376E+02 -0.21232012633E+03  0.23488564501E+03  0.90820092190E+02 0.  0.
         23    2    1    2    0    0 -0.75967758355E+01  0.14037397286E+01 -0.86476497806E+02  0.12962073559E+03  0.96247955474E+02 0.  0.
        -11    1    4    4    0    0  0.33081003724E+02  0.28906936386E+02 -0.58329276007E+02  0.73022381625E+02  0.00000000000E+00 0.  1.
         11    1    4    4    0    0 -0.40677779559E+02 -0.27503196658E+02 -0.28147221799E+02  0.56598353962E+02  0.00000000000E+00 0. -1.
        -13    1    3    3    0    0 -0.54027288203E+02 -0.16559619753E+02 -0.13858799741E+03  0.14966563367E+03  0.00000000000E+00 0. -1.
         13    1    3    3    0    0  0.36302385258E+02 -0.22542411623E+02 -0.73732128920E+02  0.85220011337E+02  0.00000000000E+00 0.  1.
          2    1    1    2  501    0  0.25321678780E+02  0.37698291647E+02  0.23310680565E+03  0.23748922386E+03  0.00000000000E+00 0. -1.
<scales pt_clust_5="13000.00000" pt_clust_6="13000.00000" pt_clust_7="13000.00000" pt_clust_8="13000.00000" pt_clust_9="45.41309"></scales>
<clustering>
<clus scale="   45.413">  1  9  2 -1</clus>
<clus scale="   90.820">  7  8 -1 -1</clus>
<clus scale="   94.942">  2  7  1 -1</clus>
<clus scale="   96.248">  5  6 -1 -1</clus>
<clus scale="   45.413">  1  5  2 -1</clus>
</clustering>
</event>
<event>
 9    1  0.1464797E-005  0.9576894E+02  0.7546771E-02  0.1302028E+00
         21   -1    0    0  501  502  0.00000000000E+00  0.00000000000E+00  0.16461189445E+03  0.16461189445E+03  0.00000000000E+00 0. -1.
         -4   -1    0    0    0  501 -0.00000000000E+00 -0.00000000000E+00 -0.11318724188E+03  0.11318724188E+03  0.00000000000E+00 0.  1.
         23    2    1    2    0    0 -0.39002331257E+02 -0.20509361265E+01 -0.50642751106E+02  0.11113000956E+03  0.90883456161E+02 0.  0.
         23    2    1    2    0    0  0.13956286969E+02  0.18381849014E+02  0.15269119905E+02  0.74865286354E+02  0.69562883488E+02 0.  0.
        -13    1    3    3    0    0  0.27728349776E+02  0.10033290408E+02 -0.24892712208E+02  0.38589835693E+02  0.00000000000E+00 0.  1.
         13    1    3    3    0    0 -0.66730681033E+02 -0.12084226535E+02 -0.25750038897E+02  0.72540173872E+02  0.00000000000E+00 0. -1.
        -13    1    4    4    0    0  0.38868613809E+02 -0.26648456018E+01  0.16309785499E+02  0.42235999391E+02  0.00000000000E+00 0.  1.
         13    1    4    4    0    0 -0.24912326841E+02  0.21046694615E+02 -0.10406655944E+01  0.32629286963E+02  0.00000000000E+00 0. -1.
         -4    1    1    2    0  502  0.25046044289E+02 -0.16330912887E+02  0.86798283767E+02  0.91803840416E+02  0.00000000000E+00 0.  1.
<scales pt_clust_5="13000.00000" pt_clust_6="13000.00000" pt_clust_7="13000.00000" pt_clust_8="13000.00000" pt_clust_9="29.89988"></scales>
<clustering>
<clus scale="   29.900">  1  9  2 -1</clus>
<clus scale="   69.563">  7  8 -1 -1</clus>
<clus scale="   75.835">  1  7  2 -1</clus>
<clus scale="   90.883">  5  6 -1 -1</clus>
<clus scale="   29.900">  1  5  2 -1</clus>
</clustering>
</event>
<event>
 9    1  0.1464797E-005  0.9530739E+02  0.7546771E-02  0.1291245E+00
         -3   -1    0    0    0  501 -0.00000000000E+00  0.00000000000E+00  0.55607674092E+03  0.55607674092E+03  0.00000000000E+00 0.  1.
         21   -1    0    0  501  502  0.00000000000E+00 -0.00000000000E+00 -0.29905019462E+02  0.29905019462E+02  0.00000000000E+00 0. -1.
         23    2    1    2    0    0  0.70917893848E+01 -0.23580486632E+02  0.23919445998E+03  0.25752344289E+03  0.92184603546E+02 0.  0.
         23    2    1    2    0    0  0.44273971958E+02  0.10984347441E+02  0.22567598082E+03  0.24749566454E+03  0.90794356472E+02 0.  0.
        -13    1    4    4    0    0  0.20748657289E+02 -0.39864151582E+02  0.11440878838E+03  0.12291878709E+03  0.00000000000E+00 0.  1.
         13    1    4    4    0    0  0.23525314669E+02  0.50848499022E+02  0.11126719244E+03  0.12457687745E+03  0.00000000000E+00 0. -1.
        -13    1    3    3    0    0  0.42685248124E+02  0.12650158923E+02  0.10566455934E+03  0.11466061236E+03  0.00000000000E+00 0. -1.
         13    1    3    3    0    0 -0.35593458739E+02 -0.36230645554E+02  0.13352990064E+03  0.14286283053E+03  0.00000000000E+00 0.  1.
         -3    1    1    2    0  502 -0.51365761343E+02  0.12596139191E+02  0.61301280662E+02  0.80962652944E+02  0.00000000000E+00 0.  1.
<scales pt_clust_5="13000.00000" pt_clust_6="13000.00000" pt_clust_7="13000.00000" pt_clust_8="13000.00000" pt_clust_9="52.88766"></scales>
<clustering>
<clus scale="   52.888">  2  9  1 -1</clus>
<clus scale="   90.794">  5  6 -1 -1</clus>
<clus scale="   92.185">  7  8 -1 -1</clus>
<clus scale="   93.963">  2  5  1 -1</clus>
<clus scale="   52.888">  2  5  1 -1</clus>
</clustering>
</event>
<event>
 9    1  0.1464797E-005  0.1027513E+03  0.7546771E-02  0.1277470E+00
         21   -1    0    0  501  502  0.00000000000E+00  0.00000000000E+00  0.69485054739E+03  0.69485054739E+03  0.00000000000E+00 0. -1.
         -2   -1    0    0    0  501 -0.00000000000E+00 -0.00000000000E+00 -0.20319241999E+02  0.20319241999E+02  0.00000000000E+00 0.  1.
         23    2    1    2    0    0 -0.14938024625E+02 -0.22304553017E+02  0.25142749697E+03  0.27112283814E+03  0.97832353875E+02 0.  0.
         23    2    1    2    0    0 -0.10967915454E+02  0.42417634391E+02  0.32019479090E+03  0.33603806429E+03  0.92072393572E+02 0.  0.
        -11    1    3    3    0    0 -0.45635281035E+02  0.14910932571E+02  0.16827129547E+03  0.17498612421E+03  0.00000000000E+00 0. -1.
         11    1    3    3    0    0  0.30697256411E+02 -0.37215485588E+02  0.83156201501E+02  0.96136713938E+02  0.00000000000E+00 0.  1.
        -13    1    4    4    0    0  0.23878668307E+02  0.48525232311E+01  0.20062170803E+02  0.31563087289E+02  0.00000000000E+00 0. -1.
         13    1    4    4    0    0 -0.34846583761E+02  0.37565111160E+02  0.30013262010E+03  0.30447497701E+03  0.00000000000E+00 0.  1.
         -2    1    1    2    0  502  0.25905940078E+02 -0.20113081374E+02  0.10290901751E+03  0.10800888695E+03  0.00000000000E+00 0.  1.
<scales pt_clust_5="13000.00000" pt_clust_6="13000.00000" pt_clust_7="13000.00000" pt_clust_8="13000.00000" pt_clust_9="32.79716"></scales>
<clustering>
<clus scale="   32.797">  1  9  2 -1</clus>
<clus scale="   92.072">  7  8 -1 -1</clus>
<clus scale="   97.283">  1  7  2 -1</clus>
<clus scale="   97.832">  5  6 -1 -1</clus>
<clus scale="   32.797">  1  5  2 -1</clus>
</clustering>
</event>
<event>
 9    1  0.1464797E-005  0.9559871E+02  0.7546771E-02  0.1291157E+00
         21   -1    0    0  501  502  0.00000000000E+00  0.00000000000E+00  0.90986492948E+02  0.90986492948E+02  0.00000000000E+00 0.  1.
          2   -1    0    0  502    0 -0.00000000000E+00 -0.00000000000E+00 -0.16747849789E+03  0.16747849789E+03  0.00000000000E+00 0. -1.
         23    2    1    2    0    0  0.20066810699E+02 -0.38677822810E+01 -0.76129223302E+02  0.11880978275E+03  0.88895833454E+02 0.  0.
         23    2    1    2    0    0 -0.40455692265E+02  0.11988435491E+02 -0.27923842528E+02  0.10442363734E+03  0.91346425395E+02 0.  0.
        -11    1    4    4    0    0 -0.59982908166E+02 -0.17967337413E+02 -0.70324968782E+01  0.63009765101E+02  0.00000000000E+00 0.  1.
         11    1    4    4    0    0  0.19527215901E+02  0.29955772903E+02 -0.20891345650E+02  0.41413872243E+02  0.00000000000E+00 0. -1.
        -13    1    3    3    0    0  0.40317836170E+02 -0.24202075719E+01 -0.86899298744E+02  0.95827310513E+02  0.00000000000E+00 0. -1.
         13    1    3    3    0    0 -0.20251025471E+02 -0.14475747091E+01  0.10770075441E+02  0.22982472238E+02  0.00000000000E+00 0.  1.
          2    1    1    2  501    0  0.20388881566E+02 -0.81206532096E+01  0.27561060885E+02  0.35231570745E+02  0.00000000000E+00 0. -1.
<scales pt_clust_5="13000.00000" pt_clust_6="13000.00000" pt_clust_7="13000.00000" pt_clust_8="13000.00000" pt_clust_9="21.94656"></scales>
<clustering>
<clus scale="   21.947">  1  9  2 -1</clus>
<clus scale="   88.896">  7  8 -1 -1</clus>
<clus scale="   91.346">  5  6 -1 -1</clus>
<clus scale="   93.260">  2  7  1 -1</clus>
<clus scale="   21.947">  1  5  2 -1</clus>
</clustering>
</event>
<event>
 9    1  0.1464797E-005  0.1010011E+03  0.7546771E-02  0.1281152E+00
         -1   -1    0    0    0  501 -0.00000000000E+00  0.00000000000E+00  0.96595171607E+02  0.96595171607E+02  0.00000000000E+00 0.  1.
         21   -1    0    0  501  502  0.00000000000E+00 -0.00000000000E+00 -0.20784136896E+03  0.20784136896E+03  0.00000000000E+00 0.  1.
         23    2    1    2    0    0 -0.37130574233E+02 -0.32947833274E+01  0.16138814763E+02  0.10542474957E+03  0.97285051989E+02 0.  0.
         23    2    1    2    0    0 -0.23597380028E+01 -0.32096710568E+02 -0.99936001495E+02  0.13930006028E+03  0.91550724772E+02 0.  0.
        -11    1    4    4    0    0 -0.37262241011E+02  0.62993599190E+00 -0.78448652420E+02  0.86850805932E+02  0.00000000000E+00 0.  1.
         11    1    4    4    0    0  0.34902503008E+02 -0.32726646560E+02 -0.21487349075E+02  0.52449254347E+02  0.00000000000E+00 0. -1.
        -11    1    3    3    0    0 -0.24256511869E+02  0.46010019442E+02  0.13429280387E+00  0.52012674337E+02  0.00000000000E+00 0. -1.
         11    1    3    3    0    0 -0.12874062364E+02 -0.49304802770E+02  0.16004521959E+02  0.53412075236E+02  0.00000000000E+00 0.  1.
         -1    1    1    2    0  502  0.39490312235E+02  0.35391493895E+02 -0.27449010617E+02  0.59711730710E+02  0.00000000000E+00 0.  1.
<scales pt_clust_5="13000.00000" pt_clust_6="13000.00000" pt_clust_7="13000.00000" pt_clust_8="13000.00000" pt_clust_9="53.02870"></scales>
<clustering>
<clus scale="   53.029">  2  9  1 -1</clus>
<clus scale="   91.551">  5  6 -1 -1</clus>
<clus scale="   95.490">  2  5  1 -1</clus>
<clus scale="   97.285">  7  8 -1 -1</clus>
<clus scale="   53.029">  2  5  1 -1</clus>
</clustering>
</event>
<event>
 9    1  0.1464797E-005  0.2351682E+03  0.7546771E-02  0.1152772E+00
         21   -1    0    0  501  502  0.00000000000E+00  0.00000000000E+00  0.56459316716E+03  0.56459316716E+03  0.00000000000E+00 0. -1.
          2   -1    0    0  502    0 -0.00000000000E+00 -0.00000000000E+00 -0.46727749080E+03  0.46727749080E+03  0.00000000000E+00 0. -1.
         23    2    1    2    0    0 -0.35328420395E+02  0.65159777050E+02 -0.26730365054E+03  0.29079886019E+03  0.87285976327E+02 0.  0.
         23    2    1    2    0    0  0.23058846203E+03  0.26630678779E+02 -0.67108338091E+02  0.25843244136E+03  0.91670965049E+02 0.  0.
        -11    1    3    3    0    0 -0.10723345263E+02  0.28802652469E+02 -0.14093730933E+02  0.33811479922E+02  0.00000000000E+00 0.  1.
         11    1    3    3    0    0 -0.24605075132E+02  0.36357124581E+02 -0.25320991961E+03  0.25698738027E+03  0.00000000000E+00 0. -1.
        -13    1    4    4    0    0  0.27036761628E+02  0.15922377671E+02 -0.42924344366E+02  0.53169614718E+02  0.00000000000E+00 0.  1.
         13    1    4    4    0    0  0.20355170040E+03  0.10708301108E+02 -0.24183993726E+02  0.20526282664E+03  0.00000000000E+00 0. -1.
          2    1    1    2  501    0 -0.19526004163E+03 -0.91790455829E+02  0.43172766498E+03  0.48263935641E+03  0.00000000000E+00 0. -1.
<scales pt_clust_5="13000.00000" pt_clust_6="13000.00000" pt_clust_7="13000.00000" pt_clust_8="13000.00000" pt_clust_9="216.56532"></scales>
<clustering>
<clus scale="   87.286">  5  6 -1 -1</clus>
<clus scale="   91.671">  7  8 -1 -1</clus>
<clus scale="  114.511">  2  5  1 -1</clus>
<clus scale="  216.565">  1  9  2 -1</clus>
<clus scale="  216.565">  1  5  2 -1</clus>
</clustering>
</event>
<event>
 9    1  0.1464797E-005  0.1009516E+03  0.7546771E-02  0.1281046E+00
         21   -1    0    0  501  502  0.00000000000E+00  0.00000000000E+00  0.72946010796E+02  0.72946010796E+02  0.00000000000E+00 0. -1.
         -3   -1    0    0    0  501 -0.00000000000E+00 -0.00000000000E+00 -0.26762808542E+03  0.26762808542E+03  0.00000000000E+00 0.  1.
         23    2    1    2    0    0 -0.74367899752E+01  0.33838827495E+02 -0.14145315468E+03  0.16848155303E+03  0.84715209092E+02 0.  0.
         23    2    1    2    0    0 -0.45764274398E+01 -0.72651359716E+02 -0.60306608845E+02  0.13085149894E+03  0.90476869683E+02 0.  0.
        -13    1    4    4    0    0  0.19596264409E+02 -0.62699072534E+02 -0.75926344679E+02  0.10039918870E+03  0.00000000000E+00 0.  1.
         13    1    4    4    0    0 -0.24172691848E+02 -0.99522871823E+01  0.15619735834E+02  0.30452310239E+02  0.00000000000E+00 0. -1.
        -13    1    3    3    0    0 -0.15929677046E+02 -0.25943353228E+02 -0.37940714023E+02  0.48644732172E+02  0.00000000000E+00 0. -1.
         13    1    3    3    0    0  0.84928870712E+01  0.59782180723E+02 -0.10351244066E+03  0.11983682086E+03  0.00000000000E+00 0.  1.
         -3    1    1    2    0  502  0.12013217415E+02  0.38812532221E+02  0.70776889038E+01  0.41241044244E+02  0.00000000000E+00 0.  1.
<scales pt_clust_5="13000.00000" pt_clust_6="13000.00000" pt_clust_7="13000.00000" pt_clust_8="13000.00000" pt_clust_9="40.62918"></scales>
<clustering>
<clus scale="   40.629">  1  9  2 -1</clus>
<clus scale="   84.715">  7  8 -1 -1</clus>
<clus scale="   90.477">  5  6 -1 -1</clus>
<clus scale="   95.822">  2  7  1 -1</clus>
<clus scale="   40.629">  1  5  2 -1</clus>
</clustering>
</event>
<event>
 9    1  0.1464797E-005  0.1331861E+03  0.7546771E-02  0.1222988E+00
         -1   -1    0    0    0  501 -0.00000000000E+00  0.00000000000E+00  0.33029613343E+03  0.33029613343E+03  0.00000000000E+00 0.  1.
         21   -1    0    0  501  502  0.00000000000E+00 -0.00000000000E+00 -0.23452334314E+03  0.23452334314E+03  0.00000000000E+00 0.  1.
         23    2    1    2    0    0 -0.11019692999E+02 -0.92716664180E+02  0.26712297634E+03  0.29761013252E+03  0.92191610435E+02 0.  0.
         23    2    1    2    0    0  0.34895597104E+01  0.12341348046E+03 -0.17714886257E+03  0.23507490635E+03  0.92927003066E+02 0.  0.
        -11    1    3    3    0    0  0.38559096743E+02 -0.26911713211E+02  0.12171226739E+03  0.13047957803E+03  0.00000000000E+00 0. -1.
         11    1    3    3    0    0 -0.49578789742E+02 -0.65804950969E+02  0.14541070896E+03  0.16713055449E+03  0.00000000000E+00 0.  1.
        -11    1    4    4    0    0  0.23491859430E+02  0.11842310065E+03 -0.10488300822E+03  0.15992605679E+03  0.00000000000E+00 0.  1.
         11    1    4    4    0    0 -0.20002299720E+02  0.49903798075E+01 -0.72265854358E+02  0.75148849564E+02  0.00000000000E+00 0. -1.
         -1    1    1    2    0  502  0.75301332890E+01 -0.30696816275E+02  0.57986765233E+01  0.32134437698E+02  0.00000000000E+00 0.  1.
<scales pt_clust_5="13000.00000" pt_clust_6="13000.00000" pt_clust_7="13000.00000" pt_clust_8="13000.00000" pt_clust_9="31.60694"></scales>
<clustering>
<clus scale="   31.607">  2  9  1 -1</clus>
<clus scale="   92.192">  5  6 -1 -1</clus>
<clus scale="   92.927">  7  8 -1 -1</clus>
<clus scale="  132.674">  1  5  2 -1</clus>
<clus scale="   31.607">  2  5  1 -1</clus>
</clustering>
</event>
<event>
 9    1  0.1464797E-005  0.2160298E+03  0.7546771E-02  0.1137187E+00
         21   -1    0    0  501  502  0.00000000000E+00  0.00000000000E+00  0.46688690465E+03  0.46688690465E+03  0.00000000000E+00 0. -1.
         -3   -1    0    0    0  501 -0.00000000000E+00 -0.00000000000E+00 -0.13474073478E+03  0.13474073478E+03  0.00000000000E+00 0.  1.
         23    2    1    2    0    0  0.17926635211E+03 -0.16885389323E+02  0.78077568045E+02  0.21835761207E+03  0.95720419685E+02 0.  0.
         23    2    1    2    0    0 -0.21268844436E+03  0.21955538132E+02  0.15776212970E+03  0.28120299433E+03  0.92020728291E+02 0.  0.
        -11    1    3    3    0    0  0.10091496874E+02 -0.30271261010E+02  0.25034382779E+02  0.40557463844E+02  0.00000000000E+00 0. -1.
         11    1    3    3    0    0  0.16917485524E+03  0.13385871688E+02  0.53043185266E+02  0.17780014823E+03  0.00000000000E+00 0.  1.
        -13    1    4    4    0    0 -0.36487301882E+02 -0.30058144560E+02  0.18909235640E+02  0.50915365515E+02  0.00000000000E+00 0.  1.
         13    1    4    4    0    0 -0.17620114248E+03  0.52013682692E+02  0.13885289406E+03  0.23028762882E+03  0.00000000000E+00 0. -1.
         -3    1    1    2    0  502  0.33422092244E+02 -0.50701488091E+01  0.96306472123E+02  0.10206703303E+03  0.00000000000E+00 0.  1.
<scales pt_clust_5="13000.00000" pt_clust_6="13000.00000" pt_clust_7="13000.00000" pt_clust_8="13000.00000" pt_clust_9="33.80448"></scales>
<clustering>
<clus scale="   33.804">  1  9  2 -1</clus>
<clus scale="   92.021">  7  8 -1 -1</clus>
<clus scale="   95.720">  5  6 -1 -1</clus>
<clus scale="  214.416">  1  7  2 -1</clus>
<clus scale="   33.804">  1  5  2 -1</clus>
</clustering>
</event>
<event>
 9    1  0.1464797E-005  0.1013802E+03  0.7546771E-02  0.1277733E+00
          2   -1    0    0  502    0 -0.00000000000E+00  0.00000000000E+00  0.45545404259E+03  0.45545404259E+03  0.00000000000E+00 0. -1.
         21   -1    0    0  501  502  0.00000000000E+00 -0.00000000000E+00 -0.11694191425E+03  0.11694191425E+03  0.00000000000E+00 0. -1.
         23    2    1    2    0    0 -0.49596740058E+02 -0.60490488969E+01  0.32275698193E+03  0.33899831424E+03  0.90836997188E+02 0.  0.
         23    2    1    2    0    0  0.34192176082E+02 -0.11276406358E+02  0.10393277572E+03  0.14222326954E+03  0.90161933683E+02 0.  0.
        -11    1    3    3    0    0 -0.33039688373E+02 -0.47945558239E+02  0.16715160753E+03  0.17700298716E+03  0.00000000000E+00 0.  1.
         11    1    3    3    0    0 -0.16557051685E+02  0.41896509342E+02  0.15560537440E+03  0.16199532709E+03  0.00000000000E+00 0. -1.
        -13    1    4    4    0    0  0.16080123575E+02 -0.42455082991E+02  0.17648843610E+02  0.48708173100E+02  0.00000000000E+00 0.  1.
         13    1    4    4    0    0  0.18112052507E+02  0.31178676633E+02  0.86283932111E+02  0.93515096445E+02  0.00000000000E+00 0. -1.
          2    1    1    2  501    0  0.15404563977E+02  0.17325455255E+02 -0.88177629304E+02  0.91174373049E+02  0.00000000000E+00 0. -1.
<scales pt_clust_5="13000.00000" pt_clust_6="13000.00000" pt_clust_7="13000.00000" pt_clust_8="13000.00000" pt_clust_9="23.18344"></scales>
<clustering>
<clus scale="   23.183">  2  9  1 -1</clus>
<clus scale="   90.162">  7  8 -1 -1</clus>
<clus scale="   90.837">  5  6 -1 -1</clus>
<clus scale="  100.776">  2  7  1 -1</clus>
<clus scale="   23.183">  2  5  1 -1</clus>
</clustering>
</event>
<event>
 9    1  0.1464797E-005  0.1789588E+03  0.7546771E-02  0.1168985E+00
         21   -1    0    0  501  502  0.00000000000E+00  0.00000000000E+00  0.14907354672E+03  0.14907354672E+03  0.00000000000E+00 0. -1.
          2   -1    0    0  502    0 -0.00000000000E+00 -0.00000000000E+00 -0.74120439374E+03  0.74120439374E+03  0.00000000000E+00 0. -1.
         23    2    1    2    0    0  0.12128505950E+03 -0.72291862966E+02 -0.31599274921E+03  0.35822343897E+03  0.92392832866E+02 0.  0.
         23    2    1    2    0    0 -0.15031897442E+03  0.71360936862E+02 -0.37973139003E+03  0.42446544521E+03  0.91031907684E+02 0.  0.
        -11    1    4    4    0    0 -0.43833673632E+02  0.58457798956E+02 -0.92617297373E+02  0.11796893225E+03  0.00000000000E+00 0.  1.
         11    1    4    4    0    0 -0.10648530079E+03  0.12903137907E+02 -0.28711409266E+03  0.30649651296E+03  0.00000000000E+00 0. -1.
        -11    1    3    3    0    0  0.26851770053E+02 -0.68952440296E+02 -0.12916601654E+03  0.14886005645E+03  0.00000000000E+00 0. -1.
         11    1    3    3    0    0  0.94433289447E+02 -0.33394226699E+01 -0.18682673267E+03  0.20936338252E+03  0.00000000000E+00 0.  1.
          2    1    1    2  501    0  0.29033914923E+02  0.93092610329E+00  0.10359329222E+03  0.10758905628E+03  0.00000000000E+00 0. -1.
<scales pt_clust_5="13000.00000" pt_clust_6="13000.00000" pt_clust_7="13000.00000" pt_clust_8="13000.00000" pt_clust_9="29.04884"></scales>
<clustering>
<clus scale="   29.049">  1  9  2 -1</clus>
<clus scale="   91.032">  5  6 -1 -1</clus>
<clus scale="   92.393">  7  8 -1 -1</clus>
<clus scale="  178.260">  1  5  2 -1</clus>
<clus scale="   29.049">  1  5  2 -1</clus>
</clustering>
</event>
<event>
 9    1  0.1464797E-005  0.1365812E+03  0.7546771E-02  0.1227090E+00
          1   -1    0    0  502    0 -0.00000000000E+00  0.00000000000E+00  0.62715427115E+03  0.62715427115E+03  0.00000000000E+00 0. -1.
         21   -1    0    0  501  502  0.00000000000E+00 -0.00000000000E+00 -0.47540125925E+02  0.47540125925E+02  0.00000000000E+00 0.  1.
         23    2    1    2    0    0 -0.35777392721E+02  0.67747007103E+02  0.42897667281E+03  0.45218434508E+03  0.12074774253E+03 0.  0.
         23    2    1    2    0    0 -0.38584697649E+01 -0.36236017978E+02  0.54710576029E+02  0.11403925647E+03  0.93186737782E+02 0.  0.
        -11    1    3    3    0    0 -0.49174790677E+01 -0.28481552359E+02  0.34687439248E+02  0.45150845693E+02  0.00000000000E+00 0.  1.
         11    1    3    3    0    0 -0.30859913653E+02  0.96228559461E+02  0.39428923356E+03  0.40703349939E+03  0.00000000000E+00 0. -1.
        -11    1    4    4    0    0  0.13925135174E+02 -0.57589255708E+02  0.61537438455E+02  0.85424165750E+02  0.00000000000E+00 0. -1.
         11    1    4    4    0    0 -0.17783604939E+02  0.21353237730E+02 -0.68268624254E+01  0.28615090717E+02  0.00000000000E+00 0.  1.
          1    1    1    2  501    0  0.39635862485E+02 -0.31510989125E+02  0.95926896394E+02  0.10847079553E+03  0.00000000000E+00 0. -1.
<scales pt_clust_5="13000.00000" pt_clust_6="13000.00000" pt_clust_7="13000.00000" pt_clust_8="13000.00000" pt_clust_9="50.63543"></scales>
<clustering>
<clus scale="   50.635">  2  9  1 -1</clus>
<clus scale="   93.187">  7  8 -1 -1</clus>
<clus scale="  112.952">  2  7  1 -1</clus>
<clus scale="  120.748">  5  6 -1 -1</clus>
<clus scale="   50.635">  2  5  1 -1</clus>
</clustering>
</event>
<event>
 9    1  0.1464797E-005  0.1145260E+03  0.7546771E-02  0.1254292E+00
         21   -1    0    0  501  502  0.00000000000E+00  0.00000000000E+00  0.15123120532E+03  0.15123120532E+03  0.00000000000E+00 0. -1.
         -3   -1    0    0    0  501 -0.00000000000E+00 -0.00000000000E+00 -0.24035047400E+03  0.24035047400E+03  0.00000000000E+00 0.  1.
         23    2    1    2    0    0 -0.60759475348E+02 -0.21930478848E+02 -0.19189258257E+03  0.22206885653E+03  0.91209396721E+02 0.  0.
         23    2    1    2    0    0  0.38266429702E+02  0.28558799898E+02  0.66615975325E+02  0.12641729082E+03  0.96248213267E+02 0.  0.
        -11    1    3    3    0    0 -0.72230341022E+02 -0.43151152826E+02 -0.12257379817E+03  0.14867272834E+03  0.00000000000E+00 0.  1.
         11    1    3    3    0    0  0.11470865673E+02  0.21220673978E+02 -0.69318784395E+02  0.73396128190E+02  0.00000000000E+00 0. -1.
        -13    1    4    4    0    0  0.15943373443E+02  0.32877887132E+02  0.87950104587E+02  0.95238477077E+02  0.00000000000E+00 0. -1.
         13    1    4    4    0    0  0.22323056259E+02 -0.43190872345E+01 -0.21334129262E+02  0.31178813747E+02  0.00000000000E+00 0.  1.
         -3    1    1    2    0  502  0.22493045646E+02 -0.66283210497E+01  0.36157338571E+02  0.43095531960E+02  0.00000000000E+00 0.  1.
<scales pt_clust_5="13000.00000" pt_clust_6="13000.00000" pt_clust_7="13000.00000" pt_clust_8="13000.00000" pt_clust_9="23.44934"></scales>
<clustering>
<clus scale="   23.449">  1  9  2 -1</clus>
<clus scale="   91.209">  5  6 -1 -1</clus>
<clus scale="   96.248">  7  8 -1 -1</clus>
<clus scale="  110.325">  2  5  1 -1</clus>
<clus scale="   23.449">  1  5  2 -1</clus>
</clustering>
</event>
<event>
 9    1  0.1464797E-005  0.9517752E+02  0.7546771E-02  0.1296236E+00
         21   -1    0    0  501  502  0.00000000000E+00  0.00000000000E+00  0.74228251693E+02  0.74228251693E+02  0.00000000000E+00 0. -1.
          2   -1    0    0  502    0 -0.00000000000E+00 -0.00000000000E+00 -0.31723458071E+03  0.31723458071E+03  0.00000000000E+00 0. -1.
         23    2    1    2    0    0 -0.17527381764E+02 -0.99633561013E+01 -0.22558210449E+03  0.24138159796E+03  0.83494385401E+02 0.  0.
         23    2    1    2    0    0 -0.55719968289E+01  0.44777333024E+02  0.34550237166E+01  0.10337430468E+03  0.92942202346E+02 0.  0.
        -13    1    4    4    0    0 -0.32238617786E+02  0.36030807490E+01  0.32865206491E+02  0.46178268323E+02  0.00000000000E+00 0.  1.
         13    1    4    4    0    0  0.26666620957E+02  0.41174252275E+02 -0.29410182774E+02  0.57196036353E+02  0.00000000000E+00 0. -1.
        -13    1    3    3    0    0 -0.17523414944E+02  0.33942757392E+02 -0.70256386889E+02  0.79969623917E+02  0.00000000000E+00 0. -1.
         13    1    3    3    0    0 -0.39668204210E-02 -0.43906113494E+02 -0.15532571760E+03  0.16141197404E+03  0.00000000000E+00 0.  1.
          2    1    1    2  501    0  0.23099378593E+02 -0.34813976923E+02 -0.20879248245E+02  0.46706929763E+02  0.00000000000E+00 0. -1.
<scales pt_clust_5="13000.00000" pt_clust_6="13000.00000" pt_clust_7="13000.00000" pt_clust_8="13000.00000" pt_clust_9="41.78031"></scales>
<clustering>
<clus scale="   41.780">  1  9  2 -1</clus>
<clus scale="   83.494">  7  8 -1 -1</clus>
<clus scale="   85.976">  2  7  1 -1</clus>
<clus scale="   92.942">  5  6 -1 -1</clus>
<clus scale="   41.780">  1  5  2 -1</clus>
</clustering>
</event>
<event>
 9    1  0.1464797E-005  0.1556209E+03  0.7546771E-02  0.1217476E+00
         21   -1    0    0  501  502  0.00000000000E+00  0.00000000000E+00  0.29531630304E+03  0.29531630304E+03  0.00000000000E+00 0. -1.
         -2   -1    0    0    0  501 -0.00000000000E+00 -0.00000000000E+00 -0.62895898970E+03  0.62895898970E+03  0.00000000000E+00 0.  1.
         23    2    1    2    0    0 -0.29703351674E+02  0.58816730125E+01 -0.45948896660E+03  0.46887930620E+03  0.88322195315E+02 0.  0.
         23    2    1    2    0    0 -0.75923266789E+02  0.98903550960E+02  0.22825681990E+03  0.27477249863E+03  0.88614306638E+02 0.  0.
        -13    1    4    4    0    0 -0.31794020338E+02 -0.32102300862E+01  0.17436110723E+02  0.36403066679E+02  0.00000000000E+00 0.  1.
         13    1    4    4    0    0 -0.44129246452E+02  0.10211378105E+03  0.21082070917E+03  0.23836943195E+03  0.00000000000E+00 0. -1.
        -13    1    3    3    0    0 -0.61189514276E+02 -0.73297072075E+00 -0.30228999261E+03  0.30842168136E+03  0.00000000000E+00 0.  1.
         13    1    3    3    0    0  0.31486162602E+02  0.66146437332E+01 -0.15719897399E+03  0.16045762484E+03  0.00000000000E+00 0. -1.
         -2    1    1    2    0  502  0.10562661846E+03 -0.10478522397E+03 -0.10241053995E+03  0.18062348791E+03  0.00000000000E+00 0.  1.
<scales pt_clust_5="13000.00000" pt_clust_6="13000.00000" pt_clust_7="13000.00000" pt_clust_8="13000.00000" pt_clust_9="127.92728"></scales>
<clustering>
<clus scale="   88.322">  7  8 -1 -1</clus>
<clus scale="   88.614">  5  6 -1 -1</clus>
<clus scale="   93.369">  2  7  1 -1</clus>
<clus scale="  127.927">  1  9  2 -1</clus>
<clus scale="  127.927">  1  5  2 -1</clus>
</clustering>
</event>
<event>
 9    1  0.1464797E-005  0.1118192E+03  0.7546771E-02  0.1258816E+00
          1   -1    0    0  502    0 -0.00000000000E+00  0.00000000000E+00  0.40489335240E+03  0.40489335240E+03  0.00000000000E+00 0. -1.
         21   -1    0    0  501  502  0.00000000000E+00 -0.00000000000E+00 -0.77941182087E+02  0.77941182087E+02  0.00000000000E+00 0. -1.
         23    2    1    2    0    0 -0.61900990358E+02 -0.38396478490E+02  0.29090029207E+03  0.31448698407E+03  0.94726242687E+02 0.  0.
         23    2    1    2    0    0  0.28724104924E+02 -0.20037758202E+02  0.23556566234E+02  0.99999920122E+02  0.90655867180E+02 0.  0.
        -11    1    4    4    0    0  0.52576271609E+02 -0.99134290944E+01  0.42146529652E+02  0.68109253222E+02  0.00000000000E+00 0. -1.
         11    1    4    4    0    0 -0.23852166685E+02 -0.10124329108E+02 -0.18589963418E+02  0.31890666900E+02  0.00000000000E+00 0.  1.
        -11    1    3    3    0    0 -0.78629510283E+02 -0.14206746663E+01  0.20166422885E+03  0.21645572158E+03  0.00000000000E+00 0. -1.
         11    1    3    3    0    0  0.16728519925E+02 -0.36975803823E+02  0.89236063215E+02  0.98031262490E+02  0.00000000000E+00 0.  1.
          1    1    1    2  501    0  0.33176885434E+02  0.58434236692E+02  0.12495312006E+02  0.68347630295E+02  0.00000000000E+00 0. -1.
<scales pt_clust_5="13000.00000" pt_clust_6="13000.00000" pt_clust_7="13000.00000" pt_clust_8="13000.00000" pt_clust_9="67.19573"></scales>
<clustering>
<clus scale="   67.196">  2  9  1 -1</clus>
<clus scale="   90.656">  5  6 -1 -1</clus>
<clus scale="   94.726">  7  8 -1 -1</clus>
<clus scale="  108.393">  2  5  1 -1</clus>
<clus scale="   67.196">  2  5  1 -1</clus>
</clustering>
</event>
<event>
 9    1  0.1464797E-005  0.1035147E+03  0.7546771E-02  0.1275640E+00
         21   -1    0    0  501  502  0.00000000000E+00  0.00000000000E+00  0.80267633800E+03  0.80267633800E+03  0.00000000000E+00 0. -1.
          2   -1    0    0  502    0 -0.00000000000E+00 -0.00000000000E+00 -0.63460091352E+02  0.63460091352E+02  0.00000000000E+00 0. -1.
         23    2    1    2    0    0  0.29749803079E+02 -0.29896059788E+02  0.10544360174E+02  0.10619146409E+03  0.96884561929E+02 0.  0.
         23    2    1    2    0    0 -0.43571448997E+02 -0.33980494211E+02  0.19593600256E+03  0.22321526228E+03  0.91547752913E+02 0.  0.
        -11    1    3    3    0    0  0.30741389754E+02  0.31628608214E+02  0.55931511265E+01  0.44459928487E+02  0.00000000000E+00 0.  1.
         11    1    3    3    0    0 -0.99158667521E+00 -0.61524668002E+02  0.49512090478E+01  0.61731535603E+02  0.00000000000E+00 0. -1.
        -11    1    4    4    0    0 -0.31731458766E+02  0.97220790959E+00  0.18040453405E+03  0.18317649022E+03  0.00000000000E+00 0.  1.
         11    1    4    4    0    0 -0.11839990231E+02 -0.34952702120E+02  0.15531468505E+02  0.40038772060E+02  0.00000000000E+00 0. -1.
          2    1    1    2  501    0  0.13821645918E+02  0.63876553999E+02  0.53273588391E+03  0.53672970298E+03  0.00000000000E+00 0. -1.
<scales pt_clust_5="13000.00000" pt_clust_6="13000.00000" pt_clust_7="13000.00000" pt_clust_8="13000.00000" pt_clust_9="65.35482"></scales>
<clustering>
<clus scale="   65.355">  1  9  2 -1</clus>
<clus scale="   91.548">  7  8 -1 -1</clus>
<clus scale="   96.885">  5  6 -1 -1</clus>
<clus scale="   98.538">  1  7  2 -1</clus>
<clus scale="   65.355">  1  5  2 -1</clus>
</clustering>
</event>
<event>
 9    1  0.1464797E-005  0.1081967E+03  0.7546771E-02  0.1265265E+00
         21   -1    0    0  501  502  0.00000000000E+00  0.00000000000E+00  0.14175870966E+03  0.14175870966E+03  0.00000000000E+00 0.  1.
          1   -1    0    0  502    0 -0.00000000000E+00 -0.00000000000E+00 -0.13879844646E+03  0.13879844646E+03  0.00000000000E+00 0. -1.
         23    2    1    2    0    0  0.78079812897E+01  0.57388276789E+02 -0.57189726322E+02  0.12278004996E+03  0.91923321233E+02 0.  0.
         23    2    1    2    0    0  0.23374006502E+02 -0.36020302037E+02  0.59251935114E+02  0.11996555754E+03  0.95063856654E+02 0.  0.
        -13    1    4    4    0    0  0.73303059290E+01 -0.53763039237E+02  0.74076655571E+02  0.91823464723E+02  0.00000000000E+00 0.  1.
         13    1    4    4    0    0  0.16043700573E+02  0.17742737200E+02 -0.14824720457E+02  0.28142092816E+02  0.00000000000E+00 0. -1.
        -13    1    3    3    0    0  0.32219850456E+02 -0.12426572092E+02 -0.15182981042E+02  0.37723485665E+02  0.00000000000E+00 0.  1.
         13    1    3    3    0    0 -0.24411869167E+02  0.69814848881E+02 -0.42006745280E+02  0.85056564294E+02  0.00000000000E+00 0. -1.
          1    1    1    2  501    0 -0.31181987791E+02 -0.21367974753E+02  0.89805441450E+00  0.37811548625E+02  0.00000000000E+00 0. -1.
<scales pt_clust_5="13000.00000" pt_clust_6="13000.00000" pt_clust_7="13000.00000" pt_clust_8="13000.00000" pt_clust_9="37.80088"></scales>
<clustering>
<clus scale="   37.801">  1  9  2 -1</clus>
<clus scale="   91.923">  7  8 -1 -1</clus>
<clus scale="   95.064">  5  6 -1 -1</clus>
<clus scale="  105.448">  2  7  1 -1</clus>
<clus scale="   37.801">  1  5  2 -1</clus>
</clustering>
</event>
<event>
 9    1  0.1464797E-005  0.9753321E+02  0.7546771E-02  0.1286298E+00
         21   -1    0    0  501  502  0.00000000000E+00  0.00000000000E+00  0.29520770245E+03  0.29520770245E+03  0.00000000000E+00 0.  1.
         -1   -1    0    0    0  501 -0.00000000000E+00 -0.00000000000E+00 -0.10470768004E+03  0.10470768004E+03  0.00000000000E+00 0.  1.
         23    2    1    2    0    0 -0.42792547053E+01  0.14301271924E+02 -0.73494828076E+01  0.92016734403E+02  0.90499868028E+02 0.  0.
         23    2    1    2    0    0  0.75598984774E+02 -0.94066096268E+01  0.26571170161E+02  0.12230034617E+03  0.91911135272E+02 0.  0.
        -11    1    4    4    0    0  0.35355728672E+02  0.34452480023E+02  0.37227774748E+02  0.61829670405E+02  0.00000000000E+00 0. -1.
         11    1    4    4    0    0  0.40243256102E+02 -0.43859089650E+02 -0.10656604588E+02  0.60470675769E+02  0.00000000000E+00 0.  1.
        -13    1    3    3    0    0 -0.23627373065E+02  0.26757958295E+02  0.31009770405E+02  0.47284743318E+02  0.00000000000E+00 0.  1.
         13    1    3    3    0    0  0.19348118360E+02 -0.12456686370E+02 -0.38359253212E+02  0.44731991085E+02  0.00000000000E+00 0. -1.
         -1    1    1    2    0  502 -0.71319730069E+02 -0.48946622976E+01  0.17127833506E+03  0.18559830192E+03  0.00000000000E+00 0.  1.
<scales pt_clust_5="13000.00000" pt_clust_6="13000.00000" pt_clust_7="13000.00000" pt_clust_8="13000.00000" pt_clust_9="71.48749"></scales>
<clustering>
<clus scale="   71.487">  1  9  2 -1</clus>
<clus scale="   90.500">  7  8 -1 -1</clus>
<clus scale="   91.911">  5  6 -1 -1</clus>
<clus scale="   96.204">  2  7  1 -1</clus>
<clus scale="   71.487">  1  5  2 -1</clus>
</clustering>
</event>
<event>
 9    1  0.1464797E-005  0.1012650E+03  0.7546771E-02  0.1280920E+00
         -1   -1    0    0    0  501 -0.00000000000E+00  0.00000000000E+00  0.20954535026E+03  0.20954535026E+03  0.00000000000E+00 0.  1.
         21   -1    0    0  501  502  0.00000000000E+00 -0.00000000000E+00 -0.14829666639E+03  0.14829666639E+03  0.00000000000E+00 0.  1.
         23    2    1    2    0    0 -0.17501750152E+02 -0.71745248249E+00  0.11446284785E+03  0.15119403996E+03  0.97216604461E+02 0.  0.
         23    2    1    2    0    0  0.49387193065E+02  0.69190272515E+01  0.37567186632E+02  0.11023016392E+03  0.90842873958E+02 0.  0.
        -13    1    3    3    0    0  0.10592429572E+02 -0.19914263554E+02 -0.81224145877E+01  0.23973966628E+02  0.00000000000E+00 0. -1.
         13    1    3    3    0    0 -0.28094179725E+02  0.19196811071E+02  0.12258526244E+03  0.12722007333E+03  0.00000000000E+00 0.  1.
        -13    1    4    4    0    0 -0.17195042596E+02  0.28797900261E+02  0.11633399566E+02  0.35501049770E+02  0.00000000000E+00 0.  1.
         13    1    4    4    0    0  0.66582235661E+02 -0.21878873010E+02  0.25933787066E+02  0.74729114148E+02  0.00000000000E+00 0. -1.
         -1    1    1    2    0  502 -0.31885442912E+02 -0.62015747690E+01 -0.90781350621E+02  0.96417812773E+02  0.00000000000E+00 0.  1.
<scales pt_clust_5="13000.00000" pt_clust_6="13000.00000" pt_clust_7="13000.00000" pt_clust_8="13000.00000" pt_clust_9="32.48293"></scales>
<clustering>
<clus scale="   32.483">  2  9  1 -1</clus>
<clus scale="   90.843">  7  8 -1 -1</clus>
<clus scale="   95.163">  2  7  1 -1</clus>
<clus scale="   97.217">  5  6 -1 -1</clus>
<clus scale="   32.483">  2  5  1 -1</clus>
</clustering>
</event>
<event>
 9    1  0.1464797E-005  0.9742424E+02  0.7546771E-02  0.1290409E+00
         21   -1    0    0  501  502  0.00000000000E+00  0.00000000000E+00  0.64505665351E+02  0.64505665351E+02  0.00000000000E+00 0. -1.
          2   -1    0    0  502    0 -0.00000000000E+00 -0.00000000000E+00 -0.22827281940E+03  0.22827281940E+03  0.00000000000E+00 0. -1.
         23    2    1    2    0    0 -0.29424209967E+02 -0.32777801828E+02 -0.10221394849E+03  0.14325527532E+03  0.90189878683E+02 0.  0.
         23    2    1    2    0    0  0.30112077158E+02  0.11431030193E+02 -0.82002325042E+02  0.11995423401E+03  0.81407808603E+02 0.  0.
        -11    1    3    3    0    0 -0.25223312433E+02  0.19654197695E+02 -0.45113082309E+01  0.32293263680E+02  0.00000000000E+00 0.  1.
         11    1    3    3    0    0 -0.42008975337E+01 -0.52431999524E+02 -0.97702640258E+02  0.11096201164E+03  0.00000000000E+00 0. -1.
        -13    1    4    4    0    0  0.39276639292E+02 -0.27105844522E+02 -0.48966870058E+02  0.68374962995E+02  0.00000000000E+00 0. -1.
         13    1    4    4    0    0 -0.91645621342E+01  0.38536874716E+02 -0.33035454984E+02  0.51579271010E+02  0.00000000000E+00 0.  1.
          2    1    1    2  501    0 -0.68786719084E+00  0.21346771635E+02  0.20449119478E+02  0.29568975429E+02  0.00000000000E+00 0. -1.
<scales pt_clust_5="13000.00000" pt_clust_6="13000.00000" pt_clust_7="13000.00000" pt_clust_8="13000.00000" pt_clust_9="21.35785"></scales>
<clustering>
<clus scale="   21.358">  1  9  2 -1</clus>
<clus scale="   81.408">  7  8 -1 -1</clus>
<clus scale="   89.356">  1  7  2 -1</clus>
<clus scale="   90.190">  5  6 -1 -1</clus>
<clus scale="   21.358">  1  5  2 -1</clus>
</clustering>
</event>
<event>
 9    1  0.1464797E-005  0.9152224E+02  0.7546771E-02  0.1299292E+00
         -1   -1    0    0    0  501 -0.00000000000E+00  0.00000000000E+00  0.16111043586E+03  0.16111043586E+03  0.00000000000E+00 0.  1.
         21   -1    0    0  501  502  0.00000000000E+00 -0.00000000000E+00 -0.20322784546E+03  0.20322784546E+03  0.00000000000E+00 0.  1.
         23    2    1    2    0    0 -0.30002828413E+01  0.19978776472E+02  0.12111527018E+03  0.15152214102E+03  0.88780050349E+02 0.  0.
         23    2    1    2    0    0  0.29503668707E+02 -0.32203682148E+02 -0.15221672246E+03  0.18161952034E+03  0.88927925660E+02 0.  0.
        -11    1    3    3    0    0  0.34849952100E+02 -0.13483290676E+02  0.71696519573E+02  0.80849917796E+02  0.00000000000E+00 0. -1.
         11    1    3    3    0    0 -0.37850234941E+02  0.33462067147E+02  0.49418750611E+02  0.70672223220E+02  0.00000000000E+00 0.  1.
        -13    1    4    4    0    0 -0.25015047142E+02 -0.44877159753E+01 -0.93295096773E+02  0.96694711645E+02  0.00000000000E+00 0. -1.
         13    1    4    4    0    0  0.54518715849E+02 -0.27715966173E+02 -0.58921625682E+02  0.84924808695E+02  0.00000000000E+00 0.  1.
         -1    1    1    2    0  502 -0.26503385866E+02  0.12224905677E+02 -0.11015957325E+02  0.31196619960E+02  0.00000000000E+00 0.  1.
<scales pt_clust_5="13000.00000" pt_clust_6="13000.00000" pt_clust_7="13000.00000" pt_clust_8="13000.00000" pt_clust_9="29.18695"></scales>
<clustering>
<clus scale="   29.187">  2  9  1 -1</clus>
<clus scale="   88.780">  5  6 -1 -1</clus>
<clus scale="   88.928">  7  8 -1 -1</clus>
<clus scale="   91.379">  1  5  2 -1</clus>
<clus scale="   29.187">  2  5  1 -1</clus>
</clustering>
</event>
<event>
 9    1  0.1464797E-005  0.1166936E+03  0.7546771E-02  0.1251595E+00
         21   -1    0    0  501  502  0.00000000000E+00  0.00000000000E+00  0.12764974830E+03  0.12764974830E+03  0.00000000000E+00 0. -1.
          2   -1    0    0  502    0 -0.00000000000E+00 -0.00000000000E+00 -0.74670848834E+03  0.74670848834E+03  0.00000000000E+00 0. -1.
         23    2    1    2    0    0 -0.49731790933E+02  0.52867538969E+02 -0.61528803679E+03  0.62739362928E+03  0.98869460090E+02 0.  0.
         23    2    1    2    0    0  0.39740590785E+02  0.59286422524E+01 -0.95310782582E+02  0.13771076930E+03  0.90915605645E+02 0.  0.
        -11    1    4    4    0    0  0.24183135431E+02  0.23565965051E+02  0.54836872684E+01  0.34208910741E+02  0.00000000000E+00 0.  1.
         11    1    4    4    0    0  0.15557455354E+02 -0.17637322798E+02 -0.10079446985E+03  0.10350185856E+03  0.00000000000E+00 0. -1.
        -11    1    3    3    0    0  0.61056555947E+01 -0.25343161441E+02 -0.10978938359E+03  0.11284176360E+03  0.00000000000E+00 0.  1.
         11    1    3    3    0    0 -0.55837446528E+02  0.78210700410E+02 -0.50549865320E+03  0.51455186569E+03  0.00000000000E+00 0. -1.
          2    1    1    2  501    0  0.99912001485E+01 -0.58796181221E+02  0.91540079334E+02  0.10925383806E+03  0.00000000000E+00 0. -1.
<scales pt_clust_5="13000.00000" pt_clust_6="13000.00000" pt_clust_7="13000.00000" pt_clust_8="13000.00000" pt_clust_9="59.63904"></scales>
<clustering>
<clus scale="   59.639">  1  9  2 -1</clus>
<clus scale="   90.916">  5  6 -1 -1</clus>
<clus scale="   98.869">  7  8 -1 -1</clus>
<clus scale="  110.036">  1  5  2 -1</clus>
<clus scale="   59.639">  1  5  2 -1</clus>
</clustering>
</event>
<event>
 9    1  0.1464797E-005  0.1111899E+03  0.7546771E-02  0.1258461E+00
         21   -1    0    0  501  502  0.00000000000E+00  0.00000000000E+00  0.23473315400E+03  0.23473315400E+03  0.00000000000E+00 0.  1.
         -4   -1    0    0    0  501 -0.00000000000E+00 -0.00000000000E+00 -0.13528657623E+03  0.13528657623E+03  0.00000000000E+00 0.  1.
         23    2    1    2    0    0 -0.36113589844E+01  0.48312614420E+02 -0.31738883556E+02  0.10710506665E+03  0.90094328050E+02 0.  0.
         23    2    1    2    0    0  0.52908632086E+02 -0.10242072473E+03  0.52805821312E+02  0.15567065813E+03  0.90308199160E+02 0.  0.
        -11    1    3    3    0    0 -0.29576950186E+02  0.53282297154E+02  0.57725127789E+01  0.61213732741E+02  0.00000000000E+00 0.  1.
         11    1    3    3    0    0  0.25965591202E+02 -0.49696827336E+01 -0.37511396335E+02  0.45891333908E+02  0.00000000000E+00 0. -1.
        -13    1    4    4    0    0 -0.25240919784E+02 -0.35460123401E+02  0.16037407643E+02  0.46386666479E+02  0.00000000000E+00 0.  1.
         13    1    4    4    0    0  0.78149551871E+02 -0.66960601331E+02  0.36768413669E+02  0.10928399165E+03  0.00000000000E+00 0. -1.
         -4    1    1    2    0  502 -0.49297273102E+02  0.54108110312E+02  0.78379640006E+02  0.10724400545E+03  0.00000000000E+00 0.  1.
<scales pt_clust_5="13000.00000" pt_clust_6="13000.00000" pt_clust_7="13000.00000" pt_clust_8="13000.00000" pt_clust_9="73.19774"></scales>
<clustering>
<clus scale="   73.198">  1  9  2 -1</clus>
<clus scale="   90.094">  5  6 -1 -1</clus>
<clus scale="   90.308">  7  8 -1 -1</clus>
<clus scale="  111.016">  2  5  1 -1</clus>
<clus scale="   73.198">  1  5  2 -1</clus>
</clustering>
</event>
<event>
 9    1  0.1464797E-005  0.1035926E+03  0.7546771E-02  0.1274928E+00
          1   -1    0    0  502    0 -0.00000000000E+00  0.00000000000E+00  0.42707760614E+03  0.42707760614E+03  0.00000000000E+00 0. -1.
         21   -1    0    0  501  502  0.00000000000E+00 -0.00000000000E+00 -0.45437514157E+02  0.45437514157E+02  0.00000000000E+00 0.  1.
         23    2    1    2    0    0  0.38241986587E+02  0.39993613818E+02  0.22806071461E+03  0.25312692315E+03  0.94866279525E+02 0.  0.
         23    2    1    2    0    0 -0.32468458005E+02 -0.14227832610E+01  0.15256836635E+03  0.18037454895E+03  0.90562941752E+02 0.  0.
        -11    1    3    3    0    0  0.23353325021E+02  0.63251330770E+02  0.20891040456E+03  0.21952144717E+03  0.00000000000E+00 0. -1.
         11    1    3    3    0    0  0.14888661566E+02 -0.23257716952E+02  0.19150310055E+02  0.33605475986E+02  0.00000000000E+00 0.  1.
        -11    1    4    4    0    0 -0.41151859927E+02 -0.34472219517E+02  0.12642308005E+03  0.13734847892E+03  0.00000000000E+00 0.  1.
         11    1    4    4    0    0  0.86834019215E+01  0.33049436256E+02  0.26145286308E+02  0.43026070026E+02  0.00000000000E+00 0. -1.
          1    1    1    2  501    0 -0.57735285818E+01 -0.38570830557E+02  0.10110110151E+01  0.39013648194E+02  0.00000000000E+00 0. -1.
<scales pt_clust_5="13000.00000" pt_clust_6="13000.00000" pt_clust_7="13000.00000" pt_clust_8="13000.00000" pt_clust_9="39.00055"></scales>
<clustering>
<clus scale="   39.001">  2  9  1 -1</clus>
<clus scale="   90.563">  7  8 -1 -1</clus>
<clus scale="   94.866">  5  6 -1 -1</clus>
<clus scale="   99.667">  2  7  1 -1</clus>
<clus scale="   39.001">  2  5  1 -1</clus>
</clustering>
</event>
<event>
 9    1  0.1464797E-005  0.9937572E+02  0.7546771E-02  0.1284030E+00
         -2   -1    0    0    0  501 -0.00000000000E+00  0.00000000000E+00  0.11518646467E+03  0.11518646467E+03  0.00000000000E+00 0.  1.
         21   -1    0    0  501  502  0.00000000000E+00 -0.00000000000E+00 -0.31693507459E+03  0.31693507459E+03  0.00000000000E+00 0. -1.
         23    2    1    2    0    0 -0.55687820157E+01  0.31058188574E+02  0.66962071898E+02  0.11472879811E+03  0.87653611628E+02 0.  0.
         23    2    1    2    0    0 -0.66062813594E+01 -0.72926162180E+02 -0.14923875684E+03  0.19021294621E+03  0.92449393065E+02 0.  0.
        -11    1    4    4    0    0 -0.24942327983E+02  0.17806990622E+01 -0.32744432786E+01  0.25219290100E+02  0.00000000000E+00 0.  1.
         11    1    4    4    0    0  0.18336046623E+02 -0.74706861242E+02 -0.14596431356E+03  0.16499365611E+03  0.00000000000E+00 0. -1.
        -13    1    3    3    0    0  0.46535754574E+01  0.50467529520E+02  0.75713632286E+02  0.91110819415E+02  0.00000000000E+00 0.  1.
         13    1    3    3    0    0 -0.10222357473E+02 -0.19409340946E+02 -0.87515603889E+01  0.23617978692E+02  0.00000000000E+00 0. -1.
         -2    1    1    2    0  502  0.12175063375E+02  0.41867973606E+02 -0.11947192498E+03  0.12717979494E+03  0.00000000000E+00 0.  1.
<scales pt_clust_5="13000.00000" pt_clust_6="13000.00000" pt_clust_7="13000.00000" pt_clust_8="13000.00000" pt_clust_9="43.60229"></scales>
<clustering>
<clus scale="   43.602">  2  9  1 -1</clus>
<clus scale="   87.654">  7  8 -1 -1</clus>
<clus scale="   92.449">  5  6 -1 -1</clus>
<clus scale="   94.930">  1  7  2 -1</clus>
<clus scale="   43.602">  2  5  1 -1</clus>
</clustering>
</event>
<event>
 9    1  0.1464797E-005  0.1478116E+03  0.7546771E-02  0.1203329E+00
         21   -1    0    0  501  502  0.00000000000E+00  0.00000000000E+00  0.66183119686E+02  0.66183119686E+02  0.00000000000E+00 0.  1.
          1   -1    0    0  502    0 -0.00000000000E+00 -0.00000000000E+00 -0.54656523985E+03  0.54656523985E+03  0.00000000000E+00 0. -1.
         23    2    1    2    0    0 -0.76565998577E+02  0.80942192429E+02 -0.36890084298E+03  0.39592481403E+03  0.90855026058E+02 0.  0.
         23    2    1    2    0    0  0.78871310503E+02 -0.10601683019E+03 -0.97414029047E+02  0.18798018592E+03  0.91579502845E+02 0.  0.
        -11    1    4    4    0    0 -0.12686759229E+02 -0.24247523269E+02  0.53546293376E+01  0.27884911687E+02  0.00000000000E+00 0.  1.
         11    1    4    4    0    0  0.91558069732E+02 -0.81769306917E+02 -0.10276865838E+03  0.16009527424E+03  0.00000000000E+00 0. -1.
        -13    1    3    3    0    0 -0.15860910993E+02  0.32215095114E+02 -0.26085570226E+02  0.44382855077E+02  0.00000000000E+00 0.  1.
         13    1    3    3    0    0 -0.60705087584E+02  0.48727097314E+02 -0.34281527276E+03  0.35154195896E+03  0.00000000000E+00 0. -1.
          1    1    1    2  501    0 -0.23053119263E+01  0.25074637758E+02 -0.14067248131E+02  0.28843359578E+02  0.00000000000E+00 0. -1.
<scales pt_clust_5="13000.00000" pt_clust_6="13000.00000" pt_clust_7="13000.00000" pt_clust_8="13000.00000" pt_clust_9="25.18039"></scales>
<clustering>
<clus scale="   25.180">  1  9  2 -1</clus>
<clus scale="   90.855">  7  8 -1 -1</clus>
<clus scale="   91.580">  5  6 -1 -1</clus>
<clus scale="  147.364">  2  7  1 -1</clus>
<clus scale="   25.180">  1  5  2 -1</clus>
</clustering>
</event>
<event>
 9    1  0.1464797E-005  0.1004792E+03  0.7546771E-02  0.1280551E+00
         21   -1    0    0  501  502  0.00000000000E+00  0.00000000000E+00  0.35953117451E+02  0.35953117451E+02  0.00000000000E+00 0.  1.
          1   -1    0    0  502    0 -0.00000000000E+00 -0.00000000000E+00 -0.53646329168E+03  0.53646329168E+03  0.00000000000E+00 0. -1.
         23    2    1    2    0    0  0.11704904965E+02 -0.41429882264E+02 -0.22520508435E+03  0.24754232506E+03  0.93308267240E+02 0.  0.
         23    2    1    2    0    0  0.44557152729E+02  0.94762216599E+01 -0.19240312043E+03  0.21971139059E+03  0.95807075766E+02 0.  0.
        -11    1    3    3    0    0 -0.22851304696E+02 -0.42836873960E+02 -0.19705908027E+03  0.20295186871E+03  0.00000000000E+00 0. -1.
         11    1    3    3    0    0  0.34556209661E+02  0.14069916963E+01 -0.28146004078E+02  0.44590456348E+02  0.00000000000E+00 0.  1.
        -13    1    4    4    0    0  0.30331404154E+02  0.48704423051E+02 -0.70696095412E+02  0.91049727123E+02  0.00000000000E+00 0. -1.
         13    1    4    4    0    0  0.14225748575E+02 -0.39228201391E+02 -0.12170702502E+03  0.12866166346E+03  0.00000000000E+00 0.  1.
          1    1    1    2  501    0 -0.56262057693E+02  0.31953660604E+02 -0.82901969457E+02  0.10516269349E+03  0.00000000000E+00 0. -1.
<scales pt_clust_5="13000.00000" pt_clust_6="13000.00000" pt_clust_7="13000.00000" pt_clust_8="13000.00000" pt_clust_9="64.70282"></scales>
<clustering>
<clus scale="   64.703">  1  9  2 -1</clus>
<clus scale="   93.308">  5  6 -1 -1</clus>
<clus scale="   95.807">  7  8 -1 -1</clus>
<clus scale="   98.099">  2  5  1 -1</clus>
<clus scale="   64.703">  1  5  2 -1</clus>
</clustering>
</event>
<event>
 9    1  0.1464797E-005  0.2704076E+03  0.7546771E-02  0.1141998E+00
         -4   -1    0    0    0  501 -0.00000000000E+00  0.00000000000E+00  0.43868467958E+03  0.43868467958E+03  0.00000000000E+00 0.  1.
         21   -1    0    0  501  502  0.00000000000E+00 -0.00000000000E+00 -0.28395517295E+03  0.28395517295E+03  0.00000000000E+00 0.  1.
         23    2    1    2    0    0 -0.29636980489E+02 -0.15337405857E+02  0.82915116118E+02  0.12787045265E+03  0.91445883175E+02 0.  0.
         23    2    1    2    0    0  0.19916282598E+03 -0.17219663069E+03  0.16731396144E+03  0.32453210563E+03  0.89496452547E+02 0.  0.
        -11    1    4    4    0    0  0.14876995676E+03 -0.12545791726E+03  0.16599875325E+03  0.25578853594E+03  0.00000000000E+00 0.  1.
         11    1    4    4    0    0  0.50392869225E+02 -0.46738713426E+02  0.13152081907E+01  0.68743569692E+02  0.00000000000E+00 0. -1.
        -11    1    3    3    0    0 -0.75197892334E+01 -0.28494637220E+02  0.94980666941E+02  0.99447567457E+02  0.00000000000E+00 0.  1.
         11    1    3    3    0    0 -0.22117191255E+02  0.13157231363E+02 -0.12065550824E+02  0.28422885195E+02  0.00000000000E+00 0. -1.
         -4    1    1    2    0  502 -0.16952584550E+03  0.18753403654E+03 -0.95499570927E+02  0.27023729424E+03  0.00000000000E+00 0.  1.
<scales pt_clust_5="13000.00000" pt_clust_6="13000.00000" pt_clust_7="13000.00000" pt_clust_8="13000.00000" pt_clust_9="255.16793"></scales>
<clustering>
<clus scale="   89.496">  5  6 -1 -1</clus>
<clus scale="   91.446">  7  8 -1 -1</clus>
<clus scale="   97.344">  1  7  2 -1</clus>
<clus scale="  255.168">  2  9  1 -1</clus>
<clus scale="  255.168">  2  5  1 -1</clus>
</clustering>
</event>
<event>
 9    1  0.1464797E-005  0.2030435E+03  0.7546771E-02  0.1147300E+00
         21   -1    0    0  501  502  0.00000000000E+00  0.00000000000E+00  0.54461132887E+02  0.54461132887E+02  0.00000000000E+00 0.  1.
         -1   -1    0    0    0  501 -0.00000000000E+00 -0.00000000000E+00 -0.11162971216E+04  0.11162971216E+04  0.00000000000E+00 0.  1.
         23    2    1    2    0    0 -0.16756257635E+03 -0.39083655405E+02 -0.54029558034E+03  0.57410496607E+03  0.89846807473E+02 0.  0.
         23    2    1    2    0    0  0.19770694267E+03  0.41500777628E+02 -0.29937247674E+03  0.37243661833E+03  0.90965955833E+02 0.  0.
        -13    1    4    4    0    0  0.16868640082E+03  0.44290766466E+02 -0.29535961465E+03  0.34300739902E+03  0.00000000000E+00 0.  1.
         13    1    4    4    0    0  0.29020541848E+02 -0.27899888377E+01 -0.40128620852E+01  0.29429219307E+02  0.00000000000E+00 0. -1.
        -13    1    3    3    0    0 -0.12777370577E+03  0.11575321262E+02 -0.32600325572E+03  0.35034016426E+03  0.00000000000E+00 0. -1.
         13    1    3    3    0    0 -0.39788870577E+02 -0.50658976667E+02 -0.21429232462E+03  0.22376480181E+03  0.00000000000E+00 0.  1.
         -1    1    1    2    0  502 -0.30144366316E+02 -0.24171222232E+01 -0.22216793159E+03  0.22421667005E+03  0.00000000000E+00 0.  1.
<scales pt_clust_5="13000.00000" pt_clust_6="13000.00000" pt_clust_7="13000.00000" pt_clust_8="13000.00000" pt_clust_9="30.24113"></scales>
<clustering>
<clus scale="   30.241">  1  9  2 -1</clus>
<clus scale="   89.847">  7  8 -1 -1</clus>
<clus scale="   90.966">  5  6 -1 -1</clus>
<clus scale="  202.545">  2  7  1 -1</clus>
<clus scale="   30.241">  1  5  2 -1</clus>
</clustering>
</event>
<event>
 9    1  0.1464797E-005  0.2881008E+03  0.7546771E-02  0.1092304E+00
         21   -1    0    0  501  502  0.00000000000E+00  0.00000000000E+00  0.44520595715E+03  0.44520595715E+03  0.00000000000E+00 0.  1.
          2   -1    0    0  502    0 -0.00000000000E+00 -0.00000000000E+00 -0.31234765840E+03  0.31234765840E+03  0.00000000000E+00 0. -1.
         23    2    1    2    0    0  0.15531742634E+03  0.23688078981E+03 -0.11222396290E+03  0.31157381664E+03  0.65176789260E+02 0.  0.
         23    2    1    2    0    0 -0.11725700687E+03 -0.22679831799E+03  0.89580703611E+02  0.28557098892E+03  0.91320340282E+02 0.  0.
        -13    1    4    4    0    0 -0.76152593188E+02 -0.14489667604E+03  0.10234122686E+03  0.19304919293E+03  0.00000000000E+00 0.  1.
         13    1    4    4    0    0 -0.41104413683E+02 -0.81901641948E+02 -0.12760523254E+02  0.92521795982E+02  0.00000000000E+00 0. -1.
        -13    1    3    3    0    0  0.14360843228E+03  0.20739016921E+03 -0.11932869223E+03  0.27905806009E+03  0.00000000000E+00 0. -1.
         13    1    3    3    0    0  0.11708994059E+02  0.29490620602E+02  0.71047293344E+01  0.32515756554E+02  0.00000000000E+00 0.  1.
          2    1    1    2  501    0 -0.38060419472E+02 -0.10082471830E+02  0.15550155804E+03  0.16040880999E+03  0.00000000000E+00 0. -1.
<scales pt_clust_5="13000.00000" pt_clust_6="13000.00000" pt_clust_7="13000.00000" pt_clust_8="13000.00000" pt_clust_9="39.37324"></scales>
<clustering>
<clus scale="   39.373">  1  9  2 -1</clus>
<clus scale="   65.177">  7  8 -1 -1</clus>
<clus scale="   91.320">  5  6 -1 -1</clus>
<clus scale="  280.910">  2  7  1 -1</clus>
<clus scale="   39.373">  1  5  2 -1</clus>
</clustering>
</event>
<event>
 9    1  0.1464797E-005  0.1940035E+03  0.7546771E-02  0.1155070E+00
         21   -1    0    0  501  502  0.00000000000E+00  0.00000000000E+00  0.10752996199E+03  0.10752996199E+03  0.00000000000E+00 0. -1.
         -2   -1    0    0    0  501 -0.00000000000E+00 -0.00000000000E+00 -0.53229577197E+03  0.53229577197E+03  0.00000000000E+00 0.  1.
         23    2    1    2    0    0 -0.23324542540E+02 -0.16426111584E+03 -0.21120365106E+03  0.28409274206E+03  0.92606454477E+02 0.  0.
         23    2    1    2    0    0  0.68925691165E+02  0.16407801147E+03 -0.23228549376E+03  0.30643733742E+03  0.90966732390E+02 0.  0.
        -11    1    3    3    0    0 -0.32347271768E+01 -0.16620702483E+03 -0.16768751833E+03  0.23612357435E+03  0.00000000000E+00 0.  1.
         11    1    3    3    0    0 -0.20089815364E+02  0.19459089878E+01 -0.43516132725E+02  0.47969167707E+02  0.00000000000E+00 0. -1.
        -11    1    4    4    0    0  0.47048193222E+02  0.13486027844E+03 -0.11430146671E+03  0.18293619784E+03  0.00000000000E+00 0. -1.
         11    1    4    4    0    0  0.21877497943E+02  0.29217733030E+02 -0.11798402704E+03  0.12350113958E+03  0.00000000000E+00 0.  1.
         -2    1    1    2    0  502 -0.45601148625E+02  0.18310436489E+00  0.18723334832E+02  0.49295654477E+02  0.00000000000E+00 0.  1.
<scales pt_clust_5="13000.00000" pt_clust_6="13000.00000" pt_clust_7="13000.00000" pt_clust_8="13000.00000" pt_clust_9="45.60152"></scales>
<clustering>
<clus scale="   45.602">  1  9  2 -1</clus>
<clus scale="   90.967">  7  8 -1 -1</clus>
<clus scale="   92.606">  5  6 -1 -1</clus>
<clus scale="  193.226">  1  7  2 -1</clus>
<clus scale="   45.602">  1  5  2 -1</clus>
</clustering>
</event>
<event>
 9    1  0.1464797E-005  0.1091525E+03  0.7546771E-02  0.1262186E+00
         21   -1    0    0  501  502  0.00000000000E+00  0.00000000000E+00  0.25707512415E+03  0.25707512415E+03  0.00000000000E+00 0. -1.
          1   -1    0    0  502    0 -0.00000000000E+00 -0.00000000000E+00 -0.31283398535E+03  0.31283398535E+03  0.00000000000E+00 0. -1.
         23    2    1    2    0    0  0.85416925467E+00 -0.40310523544E+02 -0.13420524210E+03  0.16664195080E+03  0.90182175888E+02 0.  0.
         23    2    1    2    0    0  0.97816693657E+01  0.97450416494E+02 -0.13044664257E+03  0.18643915386E+03  0.90282704906E+02 0.  0.
        -11    1    4    4    0    0 -0.11770745655E+02  0.72424247943E+02 -0.13445129750E+03  0.15316975401E+03  0.00000000000E+00 0. -1.
         11    1    4    4    0    0  0.21552415020E+02  0.25026168551E+02  0.40046549313E+01  0.33269399854E+02  0.00000000000E+00 0.  1.
        -13    1    3    3    0    0 -0.41928230705E+02 -0.20115718964E+02 -0.92682827995E+02  0.10369534842E+03  0.00000000000E+00 0. -1.
         13    1    3    3    0    0  0.42782399960E+02 -0.20194804580E+02 -0.41522414101E+02  0.62946602379E+02  0.00000000000E+00 0.  1.
          1    1    1    2  501    0 -0.10635838620E+02 -0.57139892950E+02  0.20889302347E+03  0.21682800484E+03  0.00000000000E+00 0. -1.
<scales pt_clust_5="13000.00000" pt_clust_6="13000.00000" pt_clust_7="13000.00000" pt_clust_8="13000.00000" pt_clust_9="58.12133"></scales>
<clustering>
<clus scale="   58.121">  1  9  2 -1</clus>
<clus scale="   90.182">  7  8 -1 -1</clus>
<clus scale="   90.283">  5  6 -1 -1</clus>
<clus scale="  109.069">  2  7  1 -1</clus>
<clus scale="   58.121">  1  5  2 -1</clus>
</clustering>
</event>
<event>
 9    1  0.1464797E-005  0.1101217E+03  0.7546771E-02  0.1261471E+00
         21   -1    0    0  501  502  0.00000000000E+00  0.00000000000E+00  0.61625519842E+02  0.61625519842E+02  0.00000000000E+00 0. -1.
          1   -1    0    0  502    0 -0.00000000000E+00 -0.00000000000E+00 -0.79689893639E+03  0.79689893639E+03  0.00000000000E+00 0. -1.
         23    2    1    2    0    0 -0.69347721244E+02  0.22876337669E+02 -0.58269370913E+03  0.59451887741E+03  0.92673101119E+02 0.  0.
         23    2    1    2    0    0  0.35066798556E+02  0.49924070140E+01 -0.18536216378E+03  0.20899159846E+03  0.89798396298E+02 0.  0.
        -13    1    3    3    0    0 -0.79195066117E+02  0.45314730810E+02 -0.50054947165E+03  0.50879765811E+03  0.00000000000E+00 0. -1.
         13    1    3    3    0    0  0.98473448731E+01 -0.22438393141E+02 -0.82144237480E+02  0.85721219304E+02  0.00000000000E+00 0.  1.
        -13    1    4    4    0    0  0.23676281388E+02  0.23694588581E+02 -0.18402967018E+03  0.18705325267E+03  0.00000000000E+00 0.  1.
         13    1    4    4    0    0  0.11390517168E+02 -0.18702181567E+02 -0.13324935973E+01  0.21938345788E+02  0.00000000000E+00 0. -1.
          1    1    1    2  501    0  0.34280922688E+02 -0.27868744683E+02  0.32782456359E+02  0.55013980364E+02  0.00000000000E+00 0. -1.
<scales pt_clust_5="13000.00000" pt_clust_6="13000.00000" pt_clust_7="13000.00000" pt_clust_8="13000.00000" pt_clust_9="44.17973"></scales>
<clustering>
<clus scale="   44.180">  1  9  2 -1</clus>
<clus scale="   89.798">  7  8 -1 -1</clus>
<clus scale="   92.673">  5  6 -1 -1</clus>
<clus scale="  107.714">  1  7  2 -1</clus>
<clus scale="   44.180">  1  5  2 -1</clus>
</clustering>
</event>
<event>
 9    1  0.1464797E-005  0.1014959E+03  0.7546771E-02  0.1279399E+00
         21   -1    0    0  501  502  0.00000000000E+00  0.00000000000E+00  0.37549942853E+02  0.37549942853E+02  0.00000000000E+00 0. -1.
         -1   -1    0    0    0  501 -0.00000000000E+00 -0.00000000000E+00 -0.37525151931E+03  0.37525151931E+03  0.00000000000E+00 0.  1.
         23    2    1    2    0    0 -0.27755666866E+02 -0.37995000414E+02 -0.18791186581E+03  0.21362890919E+03  0.90069109180E+02 0.  0.
         23    2    1    2    0    0  0.11538774690E+02  0.22343419625E+02 -0.14679565594E+03  0.17643659166E+03  0.94596694197E+02 0.  0.
        -11    1    3    3    0    0 -0.20443582987E+01 -0.48492089696E+02 -0.39319142859E+02  0.62463246466E+02  0.00000000000E+00 0. -1.
         11    1    3    3    0    0 -0.25711308567E+02  0.10497089282E+02 -0.14859272295E+03  0.15116566272E+03  0.00000000000E+00 0.  1.
        -13    1    4    4    0    0 -0.31913891229E+02 -0.92670969561E+01 -0.20151979884E+02  0.38864866301E+02  0.00000000000E+00 0.  1.
         13    1    4    4    0    0  0.43452665919E+02  0.31610516581E+02 -0.12664367606E+03  0.13757172536E+03  0.00000000000E+00 0. -1.
         -1    1    1    2    0  502  0.16216892176E+02  0.15651580789E+02 -0.29940546999E+01  0.22735961307E+02  0.00000000000E+00 0.  1.
<scales pt_clust_5="13000.00000" pt_clust_6="13000.00000" pt_clust_7="13000.00000" pt_clust_8="13000.00000" pt_clust_9="22.53796"></scales>
<clustering>
<clus scale="   22.538">  1  9  2 -1</clus>
<clus scale="   90.069">  5  6 -1 -1</clus>
<clus scale="   94.597">  7  8 -1 -1</clus>
<clus scale="   97.290">  2  5  1 -1</clus>
<clus scale="   22.538">  1  5  2 -1</clus>
</clustering>
</event>
<event>
 9    1  0.1464797E-005  0.1325052E+03  0.7546771E-02  0.1223990E+00
         -2   -1    0    0    0  501 -0.00000000000E+00  0.00000000000E+00  0.61174516180E+03  0.61174516180E+03  0.00000000000E+00 0.  1.
         21   -1    0    0  501  502  0.00000000000E+00 -0.00000000000E+00 -0.48796527347E+02  0.48796527347E+02  0.00000000000E+00 0. -1.
         23    2    1    2    0    0  0.66076152000E+02 -0.98079412179E+02  0.37515423363E+03  0.40389212289E+03  0.91665254962E+02 0.  0.
         23    2    1    2    0    0 -0.54318902595E+02  0.40261184634E+02  0.14387419598E+03  0.18309574417E+03  0.90844708688E+02 0.  0.
        -11    1    3    3    0    0 -0.13340486100E+02 -0.48461322719E+02  0.18820340385E+03  0.19479987061E+03  0.00000000000E+00 0.  1.
         11    1    3    3    0    0  0.79416638101E+02 -0.49618089460E+02  0.18695082978E+03  0.20909225228E+03  0.00000000000E+00 0. -1.
        -13    1    4    4    0    0 -0.52281393564E+02 -0.15295771091E+02  0.49713225470E+02  0.73747606828E+02  0.00000000000E+00 0.  1.
         13    1    4    4    0    0 -0.20375090315E+01  0.55556955724E+02  0.94160970515E+02  0.10934813734E+03  0.00000000000E+00 0. -1.
         -2    1    1    2    0  502 -0.11757249405E+02  0.57818227545E+02  0.43920204838E+02  0.73553822083E+02  0.00000000000E+00 0.  1.
<scales pt_clust_5="13000.00000" pt_clust_6="13000.00000" pt_clust_7="13000.00000" pt_clust_8="13000.00000" pt_clust_9="59.00153"></scales>
<clustering>
<clus scale="   59.002">  2  9  1 -1</clus>
<clus scale="   90.845">  7  8 -1 -1</clus>
<clus scale="   91.665">  5  6 -1 -1</clus>
<clus scale="  131.939">  2  7  1 -1</clus>
<clus scale="   59.002">  2  5  1 -1</clus>
</clustering>
</event>
<event>
 9    1  0.1464797E-005  0.9455289E+02  0.7546771E-02  0.1295161E+00
         21   -1    0    0  501  502  0.00000000000E+00  0.00000000000E+00  0.21594227520E+03  0.21594227520E+03  0.00000000000E+00 0.  1.
         -1   -1    0    0    0  501 -0.00000000000E+00 -0.00000000000E+00 -0.39174285353E+03  0.39174285353E+03  0.00000000000E+00 0.  1.
         23    2    1    2    0    0 -0.99977921668E+01 -0.27949374209E+02 -0.32311438394E+03  0.33709696645E+03  0.91380174641E+02 0.  0.
         23    2    1    2    0    0  0.34274457574E+01 -0.65674610662E+00 -0.29711233179E+02  0.91146405907E+02  0.86097219658E+02 0.  0.
        -11    1    4    4    0    0  0.58390194630E+00  0.35451171827E+02  0.10548515519E+02  0.36991859984E+02  0.00000000000E+00 0. -1.
         11    1    4    4    0    0  0.28435438111E+01 -0.36107917934E+02 -0.40259748698E+02  0.54154545923E+02  0.00000000000E+00 0.  1.
        -13    1    3    3    0    0  0.28054465483E+02 -0.40220717450E+02 -0.23880017091E+03  0.24378326598E+03  0.00000000000E+00 0.  1.
         13    1    3    3    0    0 -0.38052257650E+02  0.12271343242E+02 -0.84314213025E+02  0.93313700469E+02  0.00000000000E+00 0. -1.
         -1    1    1    2    0  502  0.65703464094E+01  0.28606120315E+02  0.17702503879E+03  0.17944175637E+03  0.00000000000E+00 0.  1.
<scales pt_clust_5="13000.00000" pt_clust_6="13000.00000" pt_clust_7="13000.00000" pt_clust_8="13000.00000" pt_clust_9="29.35097"></scales>
<clustering>
<clus scale="   29.351">  1  9  2 -1</clus>
<clus scale="   86.097">  5  6 -1 -1</clus>
<clus scale="   89.457">  1  5  2 -1</clus>
<clus scale="   91.380">  7  8 -1 -1</clus>
<clus scale="   29.351">  1  5  2 -1</clus>
</clustering>
</event>
<event>
 9    1  0.1464797E-005  0.2067024E+03  0.7546771E-02  0.1144788E+00
          1   -1    0    0  502    0 -0.00000000000E+00  0.00000000000E+00  0.66333165362E+03  0.66333165362E+03  0.00000000000E+00 0. -1.
         21   -1    0    0  501  502  0.00000000000E+00 -0.00000000000E+00 -0.12807178713E+03  0.12807178713E+03  0.00000000000E+00 0.  1.
         23    2    1    2    0    0  0.71946606968E+02  0.15902697498E+03  0.42993098030E+03  0.47171281909E+03  0.84890770068E+02 0.  0.
         23    2    1    2    0    0 -0.84700596052E+02 -0.21043103531E+03  0.10630634504E+03  0.26671895866E+03  0.91556279526E+02 0.  0.
        -13    1    3    3    0    0  0.10645109059E+02  0.51429840236E+02  0.51584276469E+02  0.73615789016E+02  0.00000000000E+00 0.  1.
         13    1    3    3    0    0  0.61301497909E+02  0.10759713475E+03  0.37834670383E+03  0.39809703007E+03  0.00000000000E+00 0. -1.
        -13    1    4    4    0    0 -0.54500441906E+02 -0.17926212877E+03  0.11843332239E+03  0.22165662822E+03  0.00000000000E+00 0.  1.
         13    1    4    4    0    0 -0.30200154146E+02 -0.31168906535E+02 -0.12126977354E+02  0.45062330441E+02  0.00000000000E+00 0. -1.
          1    1    1    2  501    0  0.12753989085E+02  0.51404060325E+02 -0.97745884486E+00  0.52971663002E+02  0.00000000000E+00 0. -1.
<scales pt_clust_5="13000.00000" pt_clust_6="13000.00000" pt_clust_7="13000.00000" pt_clust_8="13000.00000" pt_clust_9="52.96264"></scales>
<clustering>
<clus scale="   52.963">  2  9  1 -1</clus>
<clus scale="   84.891">  5  6 -1 -1</clus>
<clus scale="   91.556">  7  8 -1 -1</clus>
<clus scale="  203.838">  1  5  2 -1</clus>
<clus scale="   52.963">  2  5  1 -1</clus>
</clustering>
</event>
<event>
 9    1  0.1464797E-005  0.9665024E+02  0.7546771E-02  0.1287841E+00
         21   -1    0    0  501  502  0.00000000000E+00  0.00000000000E+00  0.99967476197E+02  0.99967476197E+02  0.00000000000E+00 0.  1.
          3   -1    0    0  502    0 -0.00000000000E+00 -0.00000000000E+00 -0.14106454690E+03  0.14106454690E+03  0.00000000000E+00 0. -1.
         23    2    1    2    0    0 -0.18852761364E+02 -0.15914752809E+01 -0.11607038567E+02  0.94763995703E+02  0.92127803256E+02 0.  0.
         23    2    1    2    0    0  0.41822948016E+02 -0.12546070879E+02  0.61686203284E+01  0.10155741141E+03  0.91483840430E+02 0.  0.
        -11    1    3    3    0    0 -0.24945712392E+02  0.37773680339E+02  0.14031638353E+02  0.47392260634E+02  0.00000000000E+00 0.  1.
         11    1    3    3    0    0  0.60929510279E+01 -0.39365155620E+02 -0.25638676920E+02  0.47371735069E+02  0.00000000000E+00 0. -1.
        -13    1    4    4    0    0 -0.18319461398E+02 -0.12607853960E+02 -0.25295964059E+02  0.33681544577E+02  0.00000000000E+00 0. -1.
         13    1    4    4    0    0  0.60142409415E+02  0.61783081008E-01  0.31464584387E+02  0.67875866831E+02  0.00000000000E+00 0.  1.
          3    1    1    2  501    0 -0.22970186653E+02  0.14137546160E+02 -0.35658652462E+02  0.44710615985E+02  0.00000000000E+00 0. -1.
<scales pt_clust_5="13000.00000" pt_clust_6="13000.00000" pt_clust_7="13000.00000" pt_clust_8="13000.00000" pt_clust_9="26.97222"></scales>
<clustering>
<clus scale="   26.972">  1  9  2 -1</clus>
<clus scale="   91.484">  7  8 -1 -1</clus>
<clus scale="   92.128">  5  6 -1 -1</clus>
<clus scale="   96.037">  1  7  2 -1</clus>
<clus scale="   26.972">  1  5  2 -1</clus>
</clustering>
</event>
<event>
 9    1  0.1464797E-005  0.9330933E+02  0.7546771E-02  0.1295190E+00
         21   -1    0    0  501  502  0.00000000000E+00  0.00000000000E+00  0.29939697988E+03  0.29939697988E+03  0.00000000000E+00 0. -1.
         -3   -1    0    0    0  501 -0.00000000000E+00 -0.00000000000E+00 -0.46794528536E+02  0.46794528536E+02  0.00000000000E+00 0.  1.
         23    2    1    2    0    0 -0.32853238724E+01  0.83854626713E+01  0.73262001593E+02  0.11783135799E+03  0.91846604242E+02 0.  0.
         23    2    1    2    0    0 -0.27430861829E+02 -0.21082495370E+02  0.16509305550E+03  0.19219819602E+03  0.92127660277E+02 0.  0.
        -11    1    4    4    0    0 -0.16421146377E+02  0.33618112059E+02  0.98216541490E+02  0.10510147729E+03  0.00000000000E+00 0.  1.
         11    1    4    4    0    0 -0.11009715452E+02 -0.54700607429E+02  0.66876514008E+02  0.87096718729E+02  0.00000000000E+00 0. -1.
        -11    1    3    3    0    0 -0.44378416199E+02  0.14333098867E+02  0.55971323524E+02  0.72853761773E+02  0.00000000000E+00 0. -1.
         11    1    3    3    0    0  0.41093092326E+02 -0.59476361953E+01  0.17290678070E+02  0.44977596216E+02  0.00000000000E+00 0.  1.
         -3    1    1    2    0  502  0.30716185702E+02  0.12697032699E+02  0.14247394251E+02  0.36161954405E+02  0.00000000000E+00 0.  1.
<scales pt_clust_5="13000.00000" pt_clust_6="13000.00000" pt_clust_7="13000.00000" pt_clust_8="13000.00000" pt_clust_9="33.23702"></scales>
<clustering>
<clus scale="   33.237">  1  9  2 -1</clus>
<clus scale="   91.847">  7  8 -1 -1</clus>
<clus scale="   92.128">  5  6 -1 -1</clus>
<clus scale="   93.032">  2  7  1 -1</clus>
<clus scale="   33.237">  1  5  2 -1</clus>
</clustering>
</event>
<event>
 9    1  0.1464797E-005  0.1136579E+03  0.7546771E-02  0.1261650E+00
         -1   -1    0    0    0  501 -0.00000000000E+00  0.00000000000E+00  0.42150573681E+03  0.42150573681E+03  0.00000000000E+00 0.  1.
         21   -1    0    0  501  502  0.00000000000E+00 -0.00000000000E+00 -0.30743500322E+03  0.30743500322E+03  0.00000000000E+00 0. -1.
         23    2    1    2    0    0 -0.38526742966E+02  0.27696331359E+02  0.27523379122E+03  0.29461013075E+03  0.93755493792E+02 0.  0.
         23    2    1    2    0    0 -0.35940916401E+02 -0.54002742093E+00  0.10506683592E+03  0.15655146435E+03  0.11035071309E+03 0.  0.
        -11    1    3    3    0    0  0.22587167757E+02 -0.12615389668E+02  0.35368424226E+02  0.43820698716E+02  0.00000000000E+00 0.  1.
         11    1    3    3    0    0 -0.61113910723E+02  0.40311721027E+02  0.23986536700E+03  0.25078943204E+03  0.00000000000E+00 0. -1.
        -13    1    4    4    0    0 -0.67287188633E+01 -0.29392122333E+02  0.11103974707E+03  0.11506084453E+03  0.00000000000E+00 0.  1.
         13    1    4    4    0    0 -0.29212197538E+02  0.28852094912E+02 -0.59729111545E+01  0.41490619825E+02  0.00000000000E+00 0. -1.
         -1    1    1    2    0  502  0.74467659368E+02 -0.27156303938E+02 -0.26622989355E+03  0.27777914493E+03  0.00000000000E+00 0.  1.
<scales pt_clust_5="13000.00000" pt_clust_6="13000.00000" pt_clust_7="13000.00000" pt_clust_8="13000.00000" pt_clust_9="79.26473"></scales>
<clustering>
<clus scale="   79.265">  2  9  1 -1</clus>
<clus scale="   93.755">  5  6 -1 -1</clus>
<clus scale="   97.626">  1  5  2 -1</clus>
<clus scale="  110.351">  7  8 -1 -1</clus>
<clus scale="   79.265">  2  5  1 -1</clus>
</clustering>
</event>
<event>
 9    1  0.1464797E-005  0.1025130E+03  0.7546771E-02  0.1276094E+00
         -3   -1    0    0    0  501 -0.00000000000E+00  0.00000000000E+00  0.10848388527E+03  0.10848388527E+03  0.00000000000E+00 0.  1.
         21   -1    0    0  501  502  0.00000000000E+00 -0.00000000000E+00 -0.18832863460E+03  0.18832863460E+03  0.00000000000E+00 0. -1.
         23    2    1    2    0    0 -0.38613850142E+02  0.46259353974E+01  0.30623707953E+02  0.10835877865E+03  0.96391829123E+02 0.  0.
         23    2    1    2    0    0  0.10980466459E+02 -0.22480382684E+01 -0.30232769610E+02  0.10355954905E+03  0.98412069999E+02 0.  0.
        -11    1    3    3    0    0 -0.44915379805E+02  0.41794946169E+02  0.34622259416E+02  0.70447922009E+02  0.00000000000E+00 0.  1.
         11    1    3    3    0    0  0.63015296634E+01 -0.37169010772E+02 -0.39985514621E+01  0.37910856646E+02  0.00000000000E+00 0. -1.
        -11    1    4    4    0    0 -0.38236450164E+02  0.85669028675E+01  0.83862593535E+01  0.40071776749E+02  0.00000000000E+00 0.  1.
         11    1    4    4    0    0  0.49216916623E+02 -0.10814941136E+02 -0.38619028963E+02  0.63487772301E+02  0.00000000000E+00 0. -1.
         -3    1    1    2    0  502  0.27633383683E+02 -0.23778971289E+01 -0.80235687671E+02  0.84894192172E+02  0.00000000000E+00 0.  1.
<scales pt_clust_5="13000.00000" pt_clust_6="13000.00000" pt_clust_7="13000.00000" pt_clust_8="13000.00000" pt_clust_9="27.73551"></scales>
<clustering>
<clus scale="   27.736">  2  9  1 -1</clus>
<clus scale="   96.392">  5  6 -1 -1</clus>
<clus scale="   98.412">  7  8 -1 -1</clus>
<clus scale="  100.575">  1  5  2 -1</clus>
<clus scale="   27.736">  2  5  1 -1</clus>
</clustering>
</event>
<event>
 9    1  0.1464797E-005  0.1952295E+03  0.7546771E-02  0.1153852E+00
         21   -1    0    0  501  502  0.00000000000E+00  0.00000000000E+00  0.20559246369E+03  0.20559246369E+03  0.00000000000E+00 0. -1.
          2   -1    0    0  502    0 -0.00000000000E+00 -0.00000000000E+00 -0.38655076251E+03  0.38655076251E+03  0.00000000000E+00 0. -1.
         23    2    1    2    0    0 -0.11349891308E+03  0.12114159486E+03 -0.17452494273E+03  0.25746686952E+03  0.90955725434E+02 0.  0.
         23    2    1    2    0    0  0.10769537827E+03 -0.14883862635E+03 -0.10633784316E+03  0.23084132837E+03  0.90712462204E+02 0.  0.
        -11    1    3    3    0    0 -0.28696562584E+02 -0.12266730428E+02 -0.29004634412E+02  0.42605565328E+02  0.00000000000E+00 0. -1.
         11    1    3    3    0    0 -0.84802350497E+02  0.13340832528E+03 -0.14552030832E+03  0.21486130419E+03  0.00000000000E+00 0.  1.
        -13    1    4    4    0    0 -0.17097753993E+01 -0.44426607071E+02  0.24789447734E+01  0.44528551682E+02  0.00000000000E+00 0.  1.
         13    1    4    4    0    0  0.10940515367E+03 -0.10441201928E+03 -0.10881678793E+03  0.18631277668E+03  0.00000000000E+00 0. -1.
          2    1    1    2  501    0  0.58035348137E+01  0.27697031495E+02  0.99904487071E+02  0.10383502832E+03  0.00000000000E+00 0. -1.
<scales pt_clust_5="13000.00000" pt_clust_6="13000.00000" pt_clust_7="13000.00000" pt_clust_8="13000.00000" pt_clust_9="28.29853"></scales>
<clustering>
<clus scale="   28.299">  1  9  2 -1</clus>
<clus scale="   90.712">  7  8 -1 -1</clus>
<clus scale="   90.956">  5  6 -1 -1</clus>
<clus scale="  195.116">  1  7  2 -1</clus>
<clus scale="   28.299">  1  5  2 -1</clus>
</clustering>
</event>
<event>
 9    1  0.1464797E-005  0.9194348E+02  0.7546771E-02  0.1298890E+00
         21   -1    0    0  501  502  0.00000000000E+00  0.00000000000E+00  0.25859030002E+02  0.25859030002E+02  0.00000000000E+00 0. -1.
          1   -1    0    0  502    0 -0.00000000000E+00 -0.00000000000E+00 -0.57152352877E+03  0.57152352877E+03  0.00000000000E+00 0. -1.
         23    2    1    2    0    0 -0.15112932515E+02  0.22026418145E+02 -0.34492890878E+03  0.35723890835E+03  0.89051230780E+02 0.  0.
         23    2    1    2    0    0 -0.13931233142E+02 -0.82799424867E+01 -0.17972993871E+03  0.20175398336E+03  0.90217416422E+02 0.  0.
        -11    1    3    3    0    0 -0.40151447218E+02  0.38576528221E+02 -0.28293358892E+03  0.28836036999E+03  0.00000000000E+00 0. -1.
         11    1    3    3    0    0  0.25038514703E+02 -0.16550110077E+02 -0.61995319860E+02  0.68878538360E+02  0.00000000000E+00 0.  1.
        -13    1    4    4    0    0 -0.16723004139E+02  0.39971609218E+02 -0.84682194412E+02  0.95123406485E+02  0.00000000000E+00 0.  1.
         13    1    4    4    0    0  0.27917709969E+01 -0.48251551704E+02 -0.95047744300E+02  0.10663057687E+03  0.00000000000E+00 0. -1.
          1    1    1    2  501    0  0.29044165657E+02 -0.13746475658E+02 -0.21005651275E+02  0.38389667063E+02  0.00000000000E+00 0. -1.
<scales pt_clust_5="13000.00000" pt_clust_6="13000.00000" pt_clust_7="13000.00000" pt_clust_8="13000.00000" pt_clust_9="32.13299"></scales>
<clustering>
<clus scale="   32.133">  1  9  2 -1</clus>
<clus scale="   89.051">  5  6 -1 -1</clus>
<clus scale="   90.217">  7  8 -1 -1</clus>
<clus scale="   90.799">  2  5  1 -1</clus>
<clus scale="   32.133">  1  5  2 -1</clus>
</clustering>
</event>
<event>
 9    1  0.1464797E-005  0.1803791E+03  0.7546771E-02  0.1167533E+00
         21   -1    0    0  501  502  0.00000000000E+00  0.00000000000E+00  0.13710907184E+03  0.13710907184E+03  0.00000000000E+00 0.  1.
         -1   -1    0    0    0  501 -0.00000000000E+00 -0.00000000000E+00 -0.57153320201E+03  0.57153320201E+03  0.00000000000E+00 0.  1.
         23    2    1    2    0    0  0.10083342732E+03  0.16665249132E+03 -0.40221109969E+03  0.45597931584E+03  0.90570054834E+02 0.  0.
         23    2    1    2    0    0 -0.75359279057E+02 -0.52538204298E+02 -0.39676035578E+02  0.13550196118E+03  0.91363613288E+02 0.  0.
        -11    1    3    3    0    0  0.85693318458E+02  0.12258491156E+03 -0.37068021521E+03  0.39971768452E+03  0.00000000000E+00 0.  1.
         11    1    3    3    0    0  0.15140108857E+02  0.44067579767E+02 -0.31530884477E+02  0.56261631319E+02  0.00000000000E+00 0. -1.
        -13    1    4    4    0    0 -0.19872855740E+02  0.24524941890E+02  0.23590833641E+01  0.31653885137E+02  0.00000000000E+00 0. -1.
         13    1    4    4    0    0 -0.55486423317E+02 -0.77063146187E+02 -0.42035118942E+02  0.10384807604E+03  0.00000000000E+00 0.  1.
         -1    1    1    2    0  502 -0.25474148259E+02 -0.11411428702E+03  0.74630050964E+01  0.11716099683E+03  0.00000000000E+00 0.  1.
<scales pt_clust_5="13000.00000" pt_clust_6="13000.00000" pt_clust_7="13000.00000" pt_clust_8="13000.00000" pt_clust_9="116.92306"></scales>
<clustering>
<clus scale="   90.570">  5  6 -1 -1</clus>
<clus scale="   91.364">  7  8 -1 -1</clus>
<clus scale="  116.923">  1  9  2 -1</clus>
<clus scale="  179.978">  2  5  1 -1</clus>
<clus scale="  116.923">  1  5  2 -1</clus>
</clustering>
</event>
<event>
 9    1  0.1464797E-005  0.1039764E+03  0.7546771E-02  0.1272934E+00
         -1   -1    0    0    0  501 -0.00000000000E+00  0.00000000000E+00  0.70340926357E+03  0.70340926357E+03  0.00000000000E+00 0.  1.
         21   -1    0    0  501  502  0.00000000000E+00 -0.00000000000E+00 -0.30961558665E+02  0.30961558665E+02  0.00000000000E+00 0. -1.
         23    2    1    2    0    0 -0.31560309722E+02 -0.13714468842E+02  0.36053017451E+03  0.37387688332E+03  0.92831984457E+02 0.  0.
         23    2    1    2    0    0  0.61342723008E+02  0.21936127931E+02  0.30992274102E+03  0.32953320566E+03  0.91081858000E+02 0.  0.
        -11    1    3    3    0    0  0.18409259225E+01 -0.49347732643E+02  0.20469723758E+03  0.21056957710E+03  0.00000000000E+00 0.  1.
         11    1    3    3    0    0 -0.33401235645E+02  0.35633263802E+02  0.15583293693E+03  0.16330730622E+03  0.00000000000E+00 0. -1.
        -11    1    4    4    0    0  0.70339421066E+02  0.47140517937E+02  0.24861115138E+03  0.26263542635E+03  0.00000000000E+00 0. -1.
         11    1    4    4    0    0 -0.89966980580E+01 -0.25204390006E+02  0.61311589645E+02  0.66897779308E+02  0.00000000000E+00 0.  1.
         -1    1    1    2    0  502 -0.29782413286E+02 -0.82216590896E+01  0.19947893724E+01  0.30960733260E+02  0.00000000000E+00 0.  1.
<scales pt_clust_5="13000.00000" pt_clust_6="13000.00000" pt_clust_7="13000.00000" pt_clust_8="13000.00000" pt_clust_9="30.89640"></scales>
<clustering>
<clus scale="   30.896">  2  9  1 -1</clus>
<clus scale="   91.082">  7  8 -1 -1</clus>
<clus scale="   92.832">  5  6 -1 -1</clus>
<clus scale="  102.417">  2  7  1 -1</clus>
<clus scale="   30.896">  2  5  1 -1</clus>
</clustering>
</event>
<event>
 9    1  0.1464797E-005  0.9111011E+02  0.7546771E-02  0.1300601E+00
         21   -1    0    0  501  502  0.00000000000E+00  0.00000000000E+00  0.21170054739E+03  0.21170054739E+03  0.00000000000E+00 0.  1.
         -1   -1    0    0    0  501 -0.00000000000E+00 -0.00000000000E+00 -0.16706694723E+03  0.16706694723E+03  0.00000000000E+00 0.  1.
         23    2    1    2    0    0  0.39598279098E+01  0.14421655007E+02 -0.11488773370E+03  0.14703110030E+03  0.90527834017E+02 0.  0.
         23    2    1    2    0    0  0.90161121189E+00  0.64197240428E+01  0.22199520419E+02  0.92756981759E+02  0.89827686147E+02 0.  0.
        -11    1    4    4    0    0 -0.21597301428E+02 -0.27206203294E+02  0.35983860748E+02  0.50014589482E+02  0.00000000000E+00 0. -1.
         11    1    4    4    0    0  0.22498912640E+02  0.33625927337E+02 -0.13784340328E+02  0.42742392277E+02  0.00000000000E+00 0.  1.
        -13    1    3    3    0    0 -0.42170338291E+02  0.12627066550E+02 -0.42588188139E+02  0.61249767430E+02  0.00000000000E+00 0.  1.
         13    1    3    3    0    0  0.46130166201E+02  0.17945884568E+01 -0.72299545559E+02  0.85781332873E+02  0.00000000000E+00 0. -1.
         -1    1    1    2    0  502 -0.48614391217E+01 -0.20841379050E+02  0.13732181343E+03  0.13897941256E+03  0.00000000000E+00 0.  1.
<scales pt_clust_5="13000.00000" pt_clust_6="13000.00000" pt_clust_7="13000.00000" pt_clust_8="13000.00000" pt_clust_9="21.40086"></scales>
<clustering>
<clus scale="   21.401">  1  9  2 -1</clus>
<clus scale="   89.828">  5  6 -1 -1</clus>
<clus scale="   90.414">  1  5  2 -1</clus>
<clus scale="   90.528">  7  8 -1 -1</clus>
<clus scale="   21.401">  1  5  2 -1</clus>
</clustering>
</event>
<event>
 9    1  0.1464797E-005  0.1459827E+03  0.7546771E-02  0.1205732E+00
         21   -1    0    0  501  502  0.00000000000E+00  0.00000000000E+00  0.55186587980E+02  0.55186587980E+02  0.00000000000E+00 0. -1.
         -1   -1    0    0    0  501 -0.00000000000E+00 -0.00000000000E+00 -0.84705425614E+03  0.84705425614E+03  0.00000000000E+00 0.  1.
         23    2    1    2    0    0 -0.85022142350E+02  0.75891075365E+02 -0.67406732344E+03  0.68929594313E+03  0.88169839993E+02 0.  0.
         23    2    1    2    0    0  0.78190503631E+02 -0.96325137687E+02 -0.11477272357E+03  0.19118740387E+03  0.89373140916E+02 0.  0.
        -11    1    4    4    0    0  0.39841195225E+02  0.89740213124E+01 -0.30806492087E+02  0.51155584741E+02  0.00000000000E+00 0.  1.
         11    1    4    4    0    0  0.38349308406E+02 -0.10529915900E+03 -0.83966231479E+02  0.14003181913E+03  0.00000000000E+00 0. -1.
        -13    1    3    3    0    0 -0.63706498108E+02  0.91049410960E+02 -0.61094900163E+03  0.62097278180E+03  0.00000000000E+00 0.  1.
         13    1    3    3    0    0 -0.21315644242E+02 -0.15158335596E+02 -0.63118321803E+02  0.68323161335E+02  0.00000000000E+00 0. -1.
         -1    1    1    2    0  502  0.68316387184E+01  0.20434062322E+02 -0.30276211524E+01  0.21757497108E+02  0.00000000000E+00 0.  1.
<scales pt_clust_5="13000.00000" pt_clust_6="13000.00000" pt_clust_7="13000.00000" pt_clust_8="13000.00000" pt_clust_9="21.54582"></scales>
<clustering>
<clus scale="   21.546">  1  9  2 -1</clus>
<clus scale="   88.170">  7  8 -1 -1</clus>
<clus scale="   89.373">  5  6 -1 -1</clus>
<clus scale="  145.249">  2  7  1 -1</clus>
<clus scale="   21.546">  1  5  2 -1</clus>
</clustering>
</event>
<event>
 9    1  0.1464797E-005  0.9697017E+02  0.7546771E-02  0.1288410E+00
         21   -1    0    0  501  502  0.00000000000E+00  0.00000000000E+00  0.43104993699E+03  0.43104993699E+03  0.00000000000E+00 0.  1.
          1   -1    0    0  502    0 -0.00000000000E+00 -0.00000000000E+00 -0.77478426374E+02  0.77478426374E+02  0.00000000000E+00 0. -1.
         23    2    1    2    0    0 -0.14466952184E+02  0.28346671607E+02 -0.29612563899E+02  0.97334129714E+02  0.87087326115E+02 0.  0.
         23    2    1    2    0    0  0.32404874497E+02 -0.59565241236E+02  0.27866923634E+03  0.30065139334E+03  0.90203232626E+02 0.  0.
        -11    1    4    4    0    0  0.15645646530E+02 -0.80993935537E+02  0.23645196594E+03  0.25042830520E+03  0.00000000000E+00 0.  1.
         11    1    4    4    0    0  0.16759227967E+02  0.21428694302E+02  0.42217270405E+02  0.50223088137E+02  0.00000000000E+00 0. -1.
        -13    1    3    3    0    0  0.16811410387E+02 -0.25254023247E+02 -0.13571190943E+02  0.33235018173E+02  0.00000000000E+00 0. -1.
         13    1    3    3    0    0 -0.31278362572E+02  0.53600694855E+02 -0.16041372956E+02  0.64099111541E+02  0.00000000000E+00 0.  1.
          1    1    1    2  501    0 -0.17937922313E+02  0.31218569628E+02  0.10451483818E+03  0.11054284032E+03  0.00000000000E+00 0. -1.
<scales pt_clust_5="13000.00000" pt_clust_6="13000.00000" pt_clust_7="13000.00000" pt_clust_8="13000.00000" pt_clust_9="36.00511"></scales>
<clustering>
<clus scale="   36.005">  1  9  2 -1</clus>
<clus scale="   87.087">  7  8 -1 -1</clus>
<clus scale="   90.203">  5  6 -1 -1</clus>
<clus scale="   94.079">  2  7  1 -1</clus>
<clus scale="   36.005">  1  5  2 -1</clus>
</clustering>
</event>
<event>
 9    1  0.1464797E-005  0.9321759E+02  0.7546771E-02  0.1296368E+00
          2   -1    0    0  502    0 -0.00000000000E+00  0.00000000000E+00  0.42796460358E+03  0.42796460358E+03  0.00000000000E+00 0. -1.
         21   -1    0    0  501  502  0.00000000000E+00 -0.00000000000E+00 -0.51962482575E+02  0.51962482575E+02  0.00000000000E+00 0.  1.
         23    2    1    2    0    0  0.96243409656E+01  0.62528057206E+01  0.29809337061E+03  0.31217159582E+03  0.91976747713E+02 0.  0.
         23    2    1    2    0    0 -0.32233303252E+02  0.20063209840E+02  0.88141167763E+02  0.13158367512E+03  0.90021552286E+02 0.  0.
        -11    1    4    4    0    0  0.26112164740E+02  0.50219392070E+01  0.22769200367E+01  0.26688000781E+02  0.00000000000E+00 0.  1.
         11    1    4    4    0    0 -0.58345467993E+02  0.15041270633E+02  0.85864247727E+02  0.10489567434E+03  0.00000000000E+00 0. -1.
        -13    1    3    3    0    0 -0.21510530893E+01 -0.34062041684E+02  0.49935532145E+02  0.60484767369E+02  0.00000000000E+00 0. -1.
         13    1    3    3    0    0  0.11775394055E+02  0.40314847405E+02  0.24815783846E+03  0.25168682845E+03  0.00000000000E+00 0.  1.
          2    1    1    2  501    0  0.22608962287E+02 -0.26316015561E+02 -0.10232417365E+02  0.36171815213E+02  0.00000000000E+00 0. -1.
<scales pt_clust_5="13000.00000" pt_clust_6="13000.00000" pt_clust_7="13000.00000" pt_clust_8="13000.00000" pt_clust_9="34.69435"></scales>
<clustering>
<clus scale="   34.694">  2  9  1 -1</clus>
<clus scale="   90.022">  5  6 -1 -1</clus>
<clus scale="   91.289">  2  5  1 -1</clus>
<clus scale="   91.977">  7  8 -1 -1</clus>
<clus scale="   34.694">  2  5  1 -1</clus>
</clustering>
</event>
<event>
 9    1  0.1464797E-005  0.1112462E+03  0.7546771E-02  0.1258841E+00
          2   -1    0    0  502    0 -0.00000000000E+00  0.00000000000E+00  0.23039225793E+03  0.23039225793E+03  0.00000000000E+00 0. -1.
         21   -1    0    0  501  502  0.00000000000E+00 -0.00000000000E+00 -0.14177766259E+03  0.14177766259E+03  0.00000000000E+00 0. -1.
         23    2    1    2    0    0  0.80244459796E+01 -0.71574151358E+02  0.14179269457E+03  0.18393231856E+03  0.92404971210E+02 0.  0.
         23    2    1    2    0    0  0.10246211128E+02  0.43554939602E+02  0.23980950617E+02  0.10413996756E+03  0.90928704187E+02 0.  0.
        -11    1    3    3    0    0 -0.38228027191E+02 -0.10389146494E+02  0.59062847033E+02  0.71117763797E+02  0.00000000000E+00 0.  1.
         11    1    3    3    0    0  0.46252473171E+02 -0.61185004864E+02  0.82729847532E+02  0.11281455477E+03  0.00000000000E+00 0. -1.
        -13    1    4    4    0    0  0.59610740881E+01 -0.28511305399E+02  0.59618976906E+01  0.29731686193E+02  0.00000000000E+00 0.  1.
         13    1    4    4    0    0  0.42851370396E+01  0.72066245000E+02  0.18019052927E+02  0.74408281369E+02  0.00000000000E+00 0. -1.
          2    1    1    2  501    0 -0.18270657107E+02  0.28019211757E+02 -0.77159049844E+02  0.84097634399E+02  0.00000000000E+00 0. -1.
<scales pt_clust_5="13000.00000" pt_clust_6="13000.00000" pt_clust_7="13000.00000" pt_clust_8="13000.00000" pt_clust_9="33.44986"></scales>
<clustering>
<clus scale="   33.450">  2  9  1 -1</clus>
<clus scale="   90.929">  7  8 -1 -1</clus>
<clus scale="   92.405">  5  6 -1 -1</clus>
<clus scale="  110.023">  2  7  1 -1</clus>
<clus scale="   33.450">  2  5  1 -1</clus>
</clustering>
</event>
<event>
 9    1  0.1464797E-005  0.1166633E+03  0.7546771E-02  0.1249102E+00
         -1   -1    0    0    0  501 -0.00000000000E+00  0.00000000000E+00  0.18774554140E+03  0.18774554140E+03  0.00000000000E+00 0.  1.
         21   -1    0    0  501  502  0.00000000000E+00 -0.00000000000E+00 -0.17498975268E+03  0.17498975268E+03  0.00000000000E+00 0.  1.
         23    2    1    2    0    0 -0.36227875618E+02  0.58061726062E+02  0.11714374132E+03  0.16276320151E+03  0.89919856706E+02 0.  0.
         23    2    1    2    0    0  0.36684448419E+02 -0.84021563270E+02 -0.47964336736E+02  0.13786133638E+03  0.91103230571E+02 0.  0.
        -11    1    3    3    0    0 -0.53957558314E+02  0.23822459127E+02  0.10812317405E+03  0.12316472070E+03  0.00000000000E+00 0.  1.
         11    1    3    3    0    0  0.17729682696E+02  0.34239266934E+02  0.90205672726E+01  0.39598480812E+02  0.00000000000E+00 0. -1.
        -13    1    4    4    0    0  0.28884516835E+02 -0.52526157470E+02 -0.74728724400E+02  0.95800285918E+02  0.00000000000E+00 0. -1.
         13    1    4    4    0    0  0.77999315835E+01 -0.31495405799E+02  0.26764387664E+02  0.42061050464E+02  0.00000000000E+00 0.  1.
         -1    1    1    2    0  502 -0.45657280135E+00  0.25959837208E+02 -0.56423615869E+02  0.62110756188E+02  0.00000000000E+00 0.  1.
<scales pt_clust_5="13000.00000" pt_clust_6="13000.00000" pt_clust_7="13000.00000" pt_clust_8="13000.00000" pt_clust_9="25.96385"></scales>
<clustering>
<clus scale="   25.964">  2  9  1 -1</clus>
<clus scale="   89.920">  5  6 -1 -1</clus>
<clus scale="   91.103">  7  8 -1 -1</clus>
<clus scale="  115.742">  1  5  2 -1</clus>
<clus scale="   25.964">  2  5  1 -1</clus>
</clustering>
</event>
<event>
 9    1  0.1464797E-005  0.1185838E+03  0.7546771E-02  0.1245939E+00
         21   -1    0    0  501  502  0.00000000000E+00  0.00000000000E+00  0.48314794300E+03  0.48314794300E+03  0.00000000000E+00 0. -1.
         -4   -1    0    0    0  501 -0.00000000000E+00 -0.00000000000E+00 -0.65670980372E+02  0.65670980372E+02  0.00000000000E+00 0.  1.
         23    2    1    2    0    0 -0.66488497223E+02 -0.94875454317E+01  0.27230666964E+02  0.11676336048E+03  0.91550201230E+02 0.  0.
         23    2    1    2    0    0  0.10912415149E+03  0.13653024316E+02  0.28677662841E+03  0.32006841064E+03  0.90047028679E+02 0.  0.
        -11    1    3    3    0    0 -0.77476868168E+02 -0.34894592668E+02  0.26729813782E+02  0.89077385702E+02  0.00000000000E+00 0.  1.
         11    1    3    3    0    0  0.10988370946E+02  0.25407047237E+02  0.50085318242E+00  0.27685974775E+02  0.00000000000E+00 0. -1.
        -13    1    4    4    0    0  0.93448169479E+02 -0.28058015732E+02  0.19527825779E+03  0.21829661150E+03  0.00000000000E+00 0. -1.
         13    1    4    4    0    0  0.15675982012E+02  0.41711040048E+02  0.91498370620E+02  0.10177179914E+03  0.00000000000E+00 0.  1.
         -4    1    1    2    0  502 -0.42635654269E+02 -0.41654788846E+01  0.10346966725E+03  0.11198715225E+03  0.00000000000E+00 0.  1.
<scales pt_clust_5="13000.00000" pt_clust_6="13000.00000" pt_clust_7="13000.00000" pt_clust_8="13000.00000" pt_clust_9="42.83865"></scales>
<clustering>
<clus scale="   42.839">  1  9  2 -1</clus>
<clus scale="   90.047">  7  8 -1 -1</clus>
<clus scale="   91.550">  5  6 -1 -1</clus>
<clus scale="  117.427">  1  7  2 -1</clus>
<clus scale="   42.839">  1  5  2 -1</clus>
</clustering>
</event>
<event>
 9    1  0.1464797E-005  0.1009138E+03  0.7546771E-02  0.1281379E+00
         21   -1    0    0  501  502  0.00000000000E+00  0.00000000000E+00  0.78167014815E+02  0.78167014815E+02  0.00000000000E+00 0.  1.
          1   -1    0    0  502    0 -0.00000000000E+00 -0.00000000000E+00 -0.42409404125E+03  0.42409404125E+03  0.00000000000E+00 0. -1.
         23    2    1    2    0    0 -0.31068410067E+01 -0.26017822149E+02 -0.30221013322E+03  0.31687954349E+03  0.91624783368E+02 0.  0.
         23    2    1    2    0    0  0.33983015282E+02  0.18385114094E+02 -0.83815518303E+02  0.13420049945E+03  0.97426255175E+02 0.  0.
        -13    1    3    3    0    0  0.29573427185E+02  0.16828962186E+02 -0.18186187778E+03  0.18501768606E+03  0.00000000000E+00 0.  1.
         13    1    3    3    0    0 -0.32680268191E+02 -0.42846784335E+02 -0.12034825544E+03  0.13186185743E+03  0.00000000000E+00 0. -1.
        -13    1    4    4    0    0  0.12631389008E+02  0.36967525747E+02  0.64555183632E+01  0.39595753124E+02  0.00000000000E+00 0.  1.
         13    1    4    4    0    0  0.21351626274E+02 -0.18582411653E+02 -0.90271036666E+02  0.94604746330E+02  0.00000000000E+00 0. -1.
          1    1    1    2  501    0 -0.30876174275E+02  0.76327080544E+01  0.40098625092E+02  0.51181013123E+02  0.00000000000E+00 0. -1.
<scales pt_clust_5="13000.00000" pt_clust_6="13000.00000" pt_clust_7="13000.00000" pt_clust_8="13000.00000" pt_clust_9="31.80560"></scales>
<clustering>
<clus scale="   31.806">  1  9  2 -1</clus>
<clus scale="   91.625">  5  6 -1 -1</clus>
<clus scale="   95.325">  2  5  1 -1</clus>
<clus scale="   97.426">  7  8 -1 -1</clus>
<clus scale="   31.806">  1  5  2 -1</clus>
</clustering>
</event>
<event>
 9    1  0.1464797E-005  0.2127877E+03  0.7546771E-02  0.1139407E+00
         21   -1    0    0  501  502  0.00000000000E+00  0.00000000000E+00  0.63029496590E+02  0.63029496590E+02  0.00000000000E+00 0. -1.
          3   -1    0    0  502    0 -0.00000000000E+00 -0.00000000000E+00 -0.12261849545E+04  0.12261849545E+04  0.00000000000E+00 0. -1.
         23    2    1    2    0    0 -0.94519926423E+02 -0.17670045949E+03 -0.92994866789E+03  0.95561309445E+03  0.90745757422E+02 0.  0.
         23    2    1    2    0    0  0.83072875782E+02  0.14879648259E+03 -0.23394530254E+03  0.30343163180E+03  0.91098049789E+02 0.  0.
        -13    1    4    4    0    0  0.97730653528E+02  0.13450748207E+03 -0.22787093714E+03  0.28207925724E+03  0.00000000000E+00 0.  1.
         13    1    4    4    0    0 -0.14657777746E+02  0.14289000527E+02 -0.60743653989E+01  0.21352374564E+02  0.00000000000E+00 0. -1.
        -13    1    3    3    0    0 -0.71412997042E+02 -0.42751275662E+02 -0.39408164061E+03  0.40277515710E+03  0.00000000000E+00 0.  1.
         13    1    3    3    0    0 -0.23106929381E+02 -0.13394918383E+03 -0.53586702728E+03  0.55283793734E+03  0.00000000000E+00 0. -1.
          3    1    1    2  501    0  0.11447050641E+02  0.27903976902E+02  0.73851253623E+00  0.30169724826E+02  0.00000000000E+00 0. -1.
<scales pt_clust_5="13000.00000" pt_clust_6="13000.00000" pt_clust_7="13000.00000" pt_clust_8="13000.00000" pt_clust_9="30.16068"></scales>
<clustering>
<clus scale="   30.161">  1  9  2 -1</clus>
<clus scale="   90.746">  7  8 -1 -1</clus>
<clus scale="   91.098">  5  6 -1 -1</clus>
<clus scale="  212.637">  2  7  1 -1</clus>
<clus scale="   30.161">  1  5  2 -1</clus>
</clustering>
</event>
<event>
 9    1  0.1464797E-005  0.9647429E+02  0.7546771E-02  0.1291459E+00
         21   -1    0    0  501  502  0.00000000000E+00  0.00000000000E+00  0.34191688052E+02  0.34191688052E+02  0.00000000000E+00 0. -1.
          2   -1    0    0  502    0 -0.00000000000E+00 -0.00000000000E+00 -0.69074283107E+03  0.69074283107E+03  0.00000000000E+00 0. -1.
         23    2    1    2    0    0  0.38715359014E+02  0.23889808988E+02 -0.33487861225E+03  0.34919849162E+03  0.87899372057E+02 0.  0.
         23    2    1    2    0    0  0.29679971903E+02 -0.12464468552E+02 -0.27408581883E+03  0.29163516634E+03  0.94296184733E+02 0.  0.
        -11    1    3    3    0    0  0.41530115120E+02  0.47485805830E+02 -0.30265874104E+03  0.30916333182E+03  0.00000000000E+00 0. -1.
         11    1    3    3    0    0 -0.28147561067E+01 -0.23595996841E+02 -0.32219871217E+02  0.40035159798E+02  0.00000000000E+00 0.  1.
        -13    1    4    4    0    0  0.27748257317E+01 -0.41064114620E+02 -0.22521064819E+03  0.22894059759E+03  0.00000000000E+00 0.  1.
         13    1    4    4    0    0  0.26905146171E+02  0.28599646069E+02 -0.48875170641E+02  0.62694568752E+02  0.00000000000E+00 0. -1.
          2    1    1    2  501    0 -0.68395330917E+02 -0.11425340437E+02 -0.47586711935E+02  0.84100861161E+02  0.00000000000E+00 0. -1.
<scales pt_clust_5="13000.00000" pt_clust_6="13000.00000" pt_clust_7="13000.00000" pt_clust_8="13000.00000" pt_clust_9="69.34306"></scales>
<clustering>
<clus scale="   69.343">  1  9  2 -1</clus>
<clus scale="   87.899">  5  6 -1 -1</clus>
<clus scale="   90.232">  2  5  1 -1</clus>
<clus scale="   94.296">  7  8 -1 -1</clus>
<clus scale="   69.343">  1  5  2 -1</clus>
</clustering>
</event>
<event>
 9    1  0.1464797E-005  0.2192045E+03  0.7546771E-02  0.1134512E+00
         21   -1    0    0  501  502  0.00000000000E+00  0.00000000000E+00  0.31206360525E+03  0.31206360525E+03  0.00000000000E+00 0. -1.
          1   -1    0    0  502    0 -0.00000000000E+00 -0.00000000000E+00 -0.20465055086E+03  0.20465055086E+03  0.00000000000E+00 0. -1.
         23    2    1    2    0    0 -0.20145014837E+03 -0.34852495519E+01 -0.41967120364E+02  0.22499741818E+03  0.90930136659E+02 0.  0.
         23    2    1    2    0    0  0.19488759348E+03 -0.29542966041E+02  0.12946752013E+03  0.25259584881E+03  0.90492337416E+02 0.  0.
        -11    1    4    4    0    0  0.30943712633E+02 -0.28071860121E+02  0.63195656926E+02  0.75757730540E+02  0.00000000000E+00 0.  1.
         11    1    4    4    0    0  0.16394388085E+03 -0.14711059203E+01  0.66271863202E+02  0.17683811827E+03  0.00000000000E+00 0. -1.
        -13    1    3    3    0    0 -0.13896000747E+03 -0.39047324512E+02 -0.56668053218E+01  0.14445307165E+03  0.00000000000E+00 0.  1.
         13    1    3    3    0    0 -0.62490140901E+02  0.35562074960E+02 -0.36300315042E+02  0.80544346527E+02  0.00000000000E+00 0. -1.
          1    1    1    2  501    0  0.65625548867E+01  0.33028215593E+02  0.19912654625E+02  0.39120889127E+02  0.00000000000E+00 0. -1.
<scales pt_clust_5="13000.00000" pt_clust_6="13000.00000" pt_clust_7="13000.00000" pt_clust_8="13000.00000" pt_clust_9="33.67388"></scales>
<clustering>
<clus scale="   33.674">  1  9  2 -1</clus>
<clus scale="   90.492">  5  6 -1 -1</clus>
<clus scale="   90.930">  7  8 -1 -1</clus>
<clus scale="  219.023">  1  5  2 -1</clus>
<clus scale="   33.674">  1  5  2 -1</clus>
</clustering>
</event>
<event>
 9    1  0.1464797E-005  0.1070839E+03  0.7546771E-02  0.1267165E+00
          2   -1    0    0  502    0 -0.00000000000E+00  0.00000000000E+00  0.17175026376E+03  0.17175026376E+03  0.00000000000E+00 0. -1.
         21   -1    0    0  501  502  0.00000000000E+00 -0.00000000000E+00 -0.11818467732E+03  0.11818467732E+03  0.00000000000E+00 0.  1.
         23    2    1    2    0    0 -0.59063821179E+02  0.48746498907E+00  0.62600664509E+02  0.12563644540E+03  0.91525409709E+02 0.  0.
         23    2    1    2    0    0  0.30118924126E+02  0.15128788301E+02 -0.49996838390E+02  0.11176716940E+03  0.94107313643E+02 0.  0.
        -11    1    3    3    0    0  0.50605613941E+01  0.35503518075E+02  0.20030597565E+02  0.41077170255E+02  0.00000000000E+00 0.  1.
         11    1    3    3    0    0 -0.64124382573E+02 -0.35016053086E+02  0.42570066944E+02  0.84559275149E+02  0.00000000000E+00 0. -1.
        -13    1    4    4    0    0  0.61801598165E+02  0.24211087632E+02 -0.27410471732E+02  0.71811894980E+02  0.00000000000E+00 0. -1.
         13    1    4    4    0    0 -0.31682674038E+02 -0.90822993312E+01 -0.22586366658E+02  0.39955274422E+02  0.00000000000E+00 0.  1.
          2    1    1    2  501    0  0.28944897053E+02 -0.15616253290E+02  0.40961760322E+02  0.52531326281E+02  0.00000000000E+00 0. -1.
<scales pt_clust_5="13000.00000" pt_clust_6="13000.00000" pt_clust_7="13000.00000" pt_clust_8="13000.00000" pt_clust_9="32.88884"></scales>
<clustering>
<clus scale="   32.889">  2  9  1 -1</clus>
<clus scale="   91.525">  5  6 -1 -1</clus>
<clus scale="   94.107">  7  8 -1 -1</clus>
<clus scale="  104.822">  1  5  2 -1</clus>
<clus scale="   32.889">  2  5  1 -1</clus>
</clustering>
</event>
<event>
 9    1  0.1464797E-005  0.3845521E+03  0.7546771E-02  0.1049325E+00
          1   -1    0    0  502    0 -0.00000000000E+00  0.00000000000E+00  0.25314316737E+04  0.25314316737E+04  0.00000000000E+00 0. -1.
         21   -1    0    0  501  502  0.00000000000E+00 -0.00000000000E+00 -0.10146503234E+03  0.10146503234E+03  0.00000000000E+00 0.  1.
         23    2    1    2    0    0  0.17264634627E+03  0.38759217527E+03  0.17470115702E+04  0.18003422300E+04  0.95646555564E+02 0.  0.
         23    2    1    2    0    0 -0.18595093530E+03 -0.21256487683E+03  0.38093380007E+03  0.48322881781E+03  0.92940589237E+02 0.  0.
        -11    1    4    4    0    0 -0.19558201331E+02 -0.82934998119E+02  0.90738438217E+02  0.12447570575E+03  0.00000000000E+00 0.  1.
         11    1    4    4    0    0 -0.16639273396E+03 -0.12962987871E+03  0.29019536186E+03  0.35875311206E+03  0.00000000000E+00 0. -1.
        -13    1    3    3    0    0  0.40703780808E+02  0.13555580245E+03  0.76373033423E+03  0.77673431544E+03  0.00000000000E+00 0. -1.
         13    1    3    3    0    0  0.13194256546E+03  0.25203637282E+03  0.98328123598E+03  0.10236079146E+04  0.00000000000E+00 0.  1.
          1    1    1    2  501    0  0.13304589023E+02 -0.17502729844E+03  0.30202127109E+03  0.34932565820E+03  0.00000000000E+00 0. -1.
<scales pt_clust_5="13000.00000" pt_clust_6="13000.00000" pt_clust_7="13000.00000" pt_clust_8="13000.00000" pt_clust_9="175.53224"></scales>
<clustering>
<clus scale="   92.941">  5  6 -1 -1</clus>
<clus scale="   95.647">  7  8 -1 -1</clus>
<clus scale="  175.532">  2  9  1 -1</clus>
<clus scale="  383.888">  2  5  1 -1</clus>
<clus scale="  175.532">  2  5  1 -1</clus>
</clustering>
</event>
<event>
 9    1  0.1464797E-005  0.1278726E+03  0.7546771E-02  0.1232173E+00
         21   -1    0    0  501  502  0.00000000000E+00  0.00000000000E+00  0.33812967889E+03  0.33812967889E+03  0.00000000000E+00 0.  1.
         -3   -1    0    0    0  501 -0.00000000000E+00 -0.00000000000E+00 -0.25868571547E+03  0.25868571547E+03  0.00000000000E+00 0.  1.
         23    2    1    2    0    0 -0.69904427487E+02  0.40372239758E+02 -0.16970150267E+03  0.20877910709E+03  0.90959160190E+02 0.  0.
         23    2    1    2    0    0  0.11610810734E+03 -0.69069327737E+02  0.30417261144E+02  0.16264700065E+03  0.85306344550E+02 0.  0.
        -11    1    3    3    0    0 -0.26870072364E+02  0.65237433440E+02 -0.11456783680E+03  0.13455003805E+03  0.00000000000E+00 0.  1.
         11    1    3    3    0    0 -0.43034355123E+02 -0.24865193682E+02 -0.55133665871E+02  0.74229069037E+02  0.00000000000E+00 0. -1.
        -13    1    4    4    0    0  0.69861333677E+02 -0.20379081999E+02 -0.23558011747E+02  0.76491129183E+02  0.00000000000E+00 0.  1.
         13    1    4    4    0    0  0.46246773659E+02 -0.48690245737E+02  0.53975272891E+02  0.86155871463E+02  0.00000000000E+00 0. -1.
         -3    1    1    2    0  502 -0.46203679849E+02  0.28697087979E+02  0.21872820494E+03  0.22538928663E+03  0.00000000000E+00 0.  1.
<scales pt_clust_5="13000.00000" pt_clust_6="13000.00000" pt_clust_7="13000.00000" pt_clust_8="13000.00000" pt_clust_9="54.39028"></scales>
<clustering>
<clus scale="   54.390">  1  9  2 -1</clus>
<clus scale="   85.306">  7  8 -1 -1</clus>
<clus scale="   90.959">  5  6 -1 -1</clus>
<clus scale="  123.915">  1  7  2 -1</clus>
<clus scale="   54.390">  1  5  2 -1</clus>
</clustering>
</event>
<event>
 9    1  0.1464797E-005  0.1045672E+03  0.7546771E-02  0.1278848E+00
          1   -1    0    0  502    0 -0.00000000000E+00  0.00000000000E+00  0.27907241240E+03  0.27907241240E+03  0.00000000000E+00 0. -1.
         21   -1    0    0  501  502  0.00000000000E+00 -0.00000000000E+00 -0.16579363422E+03  0.16579363422E+03  0.00000000000E+00 0. -1.
         23    2    1    2    0    0 -0.16629518342E+02  0.31031552323E+02  0.22905700600E+03  0.24640502751E+03  0.83718740199E+02 0.  0.
         23    2    1    2    0    0  0.31452478208E+02  0.47998634005E+01 -0.36972925449E+02  0.11063228706E+03  0.99298583317E+02 0.  0.
        -11    1    4    4    0    0  0.40516312576E+02 -0.27437896034E+02 -0.54160328618E+02  0.72991444153E+02  0.00000000000E+00 0.  1.
         11    1    4    4    0    0 -0.90638343680E+01  0.32237759434E+02  0.17187403168E+02  0.37640842903E+02  0.00000000000E+00 0. -1.
        -11    1    3    3    0    0 -0.41903176169E+02  0.39821384312E+01  0.59684141330E+02  0.73033761547E+02  0.00000000000E+00 0.  1.
         11    1    3    3    0    0  0.25273657827E+02  0.27049413892E+02  0.16937286467E+03  0.17337126596E+03  0.00000000000E+00 0. -1.
          1    1    1    2  501    0 -0.14822959866E+02 -0.35831415724E+02 -0.78805302380E+02  0.87828732059E+02  0.00000000000E+00 0. -1.
<scales pt_clust_5="13000.00000" pt_clust_6="13000.00000" pt_clust_7="13000.00000" pt_clust_8="13000.00000" pt_clust_9="38.77642"></scales>
<clustering>
<clus scale="   38.776">  2  9  1 -1</clus>
<clus scale="   83.719">  7  8 -1 -1</clus>
<clus scale="   89.905">  1  7  2 -1</clus>
<clus scale="   99.299">  5  6 -1 -1</clus>
<clus scale="   38.776">  2  5  1 -1</clus>
</clustering>
</event>
<event>
 9    1  0.1464797E-005  0.1112189E+03  0.7546771E-02  0.1261472E+00
         21   -1    0    0  501  502  0.00000000000E+00  0.00000000000E+00  0.16012428537E+03  0.16012428537E+03  0.00000000000E+00 0.  1.
          2   -1    0    0  502    0 -0.00000000000E+00 -0.00000000000E+00 -0.19418615448E+03  0.19418615448E+03  0.00000000000E+00 0. -1.
         23    2    1    2    0    0 -0.29803348960E+02  0.33868476072E+02 -0.10246558981E+03  0.14345481865E+03  0.89692667574E+02 0.  0.
         23    2    1    2    0    0  0.72090735592E+02 -0.70155443146E+02  0.66764700178E+02  0.15510929006E+03  0.97378161375E+02 0.  0.
        -11    1    4    4    0    0  0.20112437296E+02 -0.83797405909E+02  0.38422940774E+02  0.94354850160E+02  0.00000000000E+00 0.  1.
         11    1    4    4    0    0  0.51978298296E+02  0.13641962763E+02  0.28341759404E+02  0.60754439903E+02  0.00000000000E+00 0. -1.
        -13    1    3    3    0    0 -0.45081098371E+02  0.56120580774E+01 -0.11325279134E+02  0.46819467892E+02  0.00000000000E+00 0.  1.
         13    1    3    3    0    0  0.15277749411E+02  0.28256417995E+02 -0.91140310678E+02  0.96635350754E+02  0.00000000000E+00 0. -1.
          2    1    1    2  501    0 -0.42287386632E+02  0.36286967073E+02  0.16390205261E+01  0.55746331143E+02  0.00000000000E+00 0. -1.
<scales pt_clust_5="13000.00000" pt_clust_6="13000.00000" pt_clust_7="13000.00000" pt_clust_8="13000.00000" pt_clust_9="55.72223"></scales>
<clustering>
<clus scale="   55.722">  1  9  2 -1</clus>
<clus scale="   89.693">  7  8 -1 -1</clus>
<clus scale="   97.378">  5  6 -1 -1</clus>
<clus scale="  104.556">  2  7  1 -1</clus>
<clus scale="   55.722">  1  5  2 -1</clus>
</clustering>
</event>
<event>
 9    1  0.1464797E-005  0.9161898E+02  0.7546771E-02  0.1304339E+00
          1   -1    0    0  502    0 -0.00000000000E+00  0.00000000000E+00  0.15318591729E+03  0.15318591729E+03  0.00000000000E+00 0. -1.
         21   -1    0    0  501  502  0.00000000000E+00 -0.00000000000E+00 -0.81630540246E+02  0.81630540246E+02  0.00000000000E+00 0.  1.
         23    2    1    2    0    0  0.90558817410E+00  0.64505853427E+01  0.52453178657E+02  0.98116179653E+02  0.82662074842E+02 0.  0.
         23    2    1    2    0    0  0.13815447565E+02  0.24840783745E+02  0.30375985846E+02  0.10032780262E+03  0.91296420163E+02 0.  0.
        -11    1    3    3    0    0 -0.31384390106E+02  0.28127053561E+02  0.16843589665E+02  0.45385213419E+02  0.00000000000E+00 0. -1.
         11    1    3    3    0    0  0.32289978280E+02 -0.21676468218E+02  0.35609588992E+02  0.52730966234E+02  0.00000000000E+00 0.  1.
        -11    1    4    4    0    0 -0.30935526698E+02 -0.42490759022E+01 -0.10666603489E+02  0.32997543667E+02  0.00000000000E+00 0.  1.
         11    1    4    4    0    0  0.44750974262E+02  0.29089859647E+02  0.41042589334E+02  0.67330258956E+02  0.00000000000E+00 0. -1.
          1    1    1    2  501    0 -0.14721035739E+02 -0.31291369088E+02 -0.11273787462E+02  0.36372475257E+02  0.00000000000E+00 0. -1.
<scales pt_clust_5="13000.00000" pt_clust_6="13000.00000" pt_clust_7="13000.00000" pt_clust_8="13000.00000" pt_clust_9="34.58119"></scales>
<clustering>
<clus scale="   34.581">  2  9  1 -1</clus>
<clus scale="   82.662">  5  6 -1 -1</clus>
<clus scale="   83.018">  1  5  2 -1</clus>
<clus scale="   91.296">  7  8 -1 -1</clus>
<clus scale="   34.581">  2  5  1 -1</clus>
</clustering>
</event>
<event>
 9    1  0.1576050E-005  0.1232515E+03  0.7546771E-02  0.1237912E+00
         21   -1    0    0  501  502  0.00000000000E+00  0.00000000000E+00  0.28687833547E+03  0.28687833547E+03  0.00000000000E+00 0. -1.
          2   -1    0    0  502    0 -0.00000000000E+00 -0.00000000000E+00 -0.35306193461E+03  0.35306193461E+03  0.00000000000E+00 0. -1.
         23    2    1    2    0    0 -0.26838157649E+02 -0.88032983736E+02 -0.27952585157E+03  0.30817385585E+03  0.91467648953E+02 0.  0.
         23    2    1    2    0    0  0.14553689932E+02  0.49138732584E+02 -0.96803301705E+01  0.10504468330E+03  0.91182518979E+02 0.  0.
        -11    1    4    4    0    0  0.95542838401E+01  0.73229989524E+02  0.86601139374E+01  0.74356662639E+02  0.00000000000E+00 0.  1.
         11    1    4    4    0    0  0.49994060917E+01 -0.24091256940E+02 -0.18340444108E+02  0.30688020664E+02  0.00000000000E+00 0. -1.
        -13    1    3    3    0    0 -0.16965539625E+02  0.16106826645E+02 -0.33771297159E+02  0.41082355229E+02  0.00000000000E+00 0.  1.
         13    1    3    3    0    0 -0.98726180241E+01 -0.10413981038E+03 -0.24575455441E+03  0.26709150062E+03  0.00000000000E+00 0. -1.
          2    1    1    2  501    0  0.12284467717E+02  0.38894251152E+02  0.22302258260E+03  0.22672173091E+03  0.00000000000E+00 0. -1.
<scales pt_clust_5="13000.00000" pt_clust_6="13000.00000" pt_clust_7="13000.00000" pt_clust_8="13000.00000" pt_clust_9="40.78812"></scales>
<clustering>
<clus scale="   40.788">  1  9  2 -1</clus>
<clus scale="   91.183">  5  6 -1 -1</clus>
<clus scale="   91.468">  7  8 -1 -1</clus>
<clus scale="  123.040">  1  5  2 -1</clus>
<clus scale="   40.788">  1  5  2 -1</clus>
</clustering>
</event>
<event>
 9    1  0.1464797E-005  0.1972004E+03  0.7546771E-02  0.1152538E+00
         -1   -1    0    0    0  501 -0.00000000000E+00  0.00000000000E+00  0.11386274197E+03  0.11386274197E+03  0.00000000000E+00 0.  1.
         21   -1    0    0  501  502  0.00000000000E+00 -0.00000000000E+00 -0.56390041912E+03  0.56390041912E+03  0.00000000000E+00 0. -1.
         23    2    1    2    0    0 -0.56976223766E+02 -0.14069757736E+03 -0.11196509642E+03  0.20781743953E+03  0.87234207766E+02 0.  0.
         23    2    1    2    0    0  0.12129693666E+03  0.17039319285E+03 -0.16132857799E+03  0.27953189279E+03  0.91456995346E+02 0.  0.
        -11    1    3    3    0    0  0.15962098187E+02 -0.53253645111E+02 -0.13335686262E+02  0.57171494857E+02  0.00000000000E+00 0.  1.
         11    1    3    3    0    0 -0.72938321953E+02 -0.87443932250E+02 -0.98629410163E+02  0.15064594467E+03  0.00000000000E+00 0. -1.
        -13    1    4    4    0    0  0.10302137051E+03  0.68081062227E+02 -0.99641674206E+02  0.15867229454E+03  0.00000000000E+00 0.  1.
         13    1    4    4    0    0  0.18275566149E+02  0.10231213062E+03 -0.61686903783E+02  0.12085959825E+03  0.00000000000E+00 0. -1.
         -1    1    1    2    0  502 -0.64320712892E+02 -0.29695615491E+02 -0.17674400274E+03  0.19041382878E+03  0.00000000000E+00 0.  1.
<scales pt_clust_5="13000.00000" pt_clust_6="13000.00000" pt_clust_7="13000.00000" pt_clust_8="13000.00000" pt_clust_9="70.84479"></scales>
<clustering>
<clus scale="   70.845">  2  9  1 -1</clus>
<clus scale="   87.234">  5  6 -1 -1</clus>
<clus scale="   91.457">  7  8 -1 -1</clus>
<clus scale="  195.278">  1  5  2 -1</clus>
<clus scale="   70.845">  2  5  1 -1</clus>
</clustering>
</event>
<event>
 9    1  0.1464797E-005  0.9162948E+02  0.7546771E-02  0.1299093E+00
         21   -1    0    0  501  502  0.00000000000E+00  0.00000000000E+00  0.50840247583E+03  0.50840247583E+03  0.00000000000E+00 0.  1.
          2   -1    0    0  502    0 -0.00000000000E+00 -0.00000000000E+00 -0.25153885214E+02  0.25153885214E+02  0.00000000000E+00 0. -1.
         23    2    1    2    0    0 -0.13179857133E+02 -0.26292358531E+01  0.12456826933E+03  0.15481033728E+03  0.90930552001E+02 0.  0.
         23    2    1    2    0    0  0.32514253304E+01 -0.22132304860E+02  0.30169664843E+03  0.31582665769E+03  0.90692884757E+02 0.  0.
        -11    1    3    3    0    0 -0.40077501005E+01  0.30593874692E+02  0.11496198139E+03  0.11903068678E+03  0.00000000000E+00 0.  1.
         11    1    3    3    0    0 -0.91721070329E+01 -0.33223110545E+02  0.96062879446E+01  0.35779650499E+02  0.00000000000E+00 0. -1.
        -13    1    4    4    0    0 -0.36631482063E+02  0.67043699987E+01  0.19224811228E+03  0.19582173202E+03  0.00000000000E+00 0. -1.
         13    1    4    4    0    0  0.39882907393E+02 -0.28836674859E+02  0.10944853615E+03  0.12000492567E+03  0.00000000000E+00 0.  1.
          2    1    1    2  501    0  0.99284318030E+01  0.24761540713E+02  0.56983672850E+02  0.62919366081E+02  0.00000000000E+00 0. -1.
<scales pt_clust_5="13000.00000" pt_clust_6="13000.00000" pt_clust_7="13000.00000" pt_clust_8="13000.00000" pt_clust_9="26.67786"></scales>
<clustering>
<clus scale="   26.678">  1  9  2 -1</clus>
<clus scale="   90.693">  7  8 -1 -1</clus>
<clus scale="   90.931">  5  6 -1 -1</clus>
<clus scale="   91.394">  1  7  2 -1</clus>
<clus scale="   26.678">  1  5  2 -1</clus>
</clustering>
</event>
<event>
 9    1  0.1464797E-005  0.1260737E+03  0.7546771E-02  0.1233790E+00
         -3   -1    0    0    0  501 -0.00000000000E+00  0.00000000000E+00  0.90509832571E+02  0.90509832571E+02  0.00000000000E+00 0.  1.
         21   -1    0    0  501  502  0.00000000000E+00 -0.00000000000E+00 -0.34651157822E+03  0.34651157822E+03  0.00000000000E+00 0.  1.
         23    2    1    2    0    0 -0.47916962494E+02 -0.42219355750E+02 -0.73839902838E+02  0.13418281666E+03  0.92055351510E+02 0.  0.
         23    2    1    2    0    0  0.30853807100E+02  0.11158096371E+03 -0.55026391404E+02  0.15701127524E+03  0.90677273487E+02 0.  0.
        -11    1    4    4    0    0  0.66499063171E+01  0.47112854107E+02  0.23081160684E+02  0.52882721703E+02  0.00000000000E+00 0. -1.
         11    1    4    4    0    0  0.24203900783E+02  0.64468109598E+02 -0.78107552088E+02  0.10412855354E+03  0.00000000000E+00 0.  1.
        -13    1    3    3    0    0  0.21248322443E+02 -0.26377847723E-01  0.42359965983E+01  0.21666461862E+02  0.00000000000E+00 0. -1.
         13    1    3    3    0    0 -0.69165284937E+02 -0.42192977902E+02 -0.78075899436E+02  0.11251635480E+03  0.00000000000E+00 0.  1.
         -3    1    1    2    0  502  0.17063155394E+02 -0.69361607955E+02 -0.12713545140E+03  0.14582731889E+03  0.00000000000E+00 0.  1.
<scales pt_clust_5="13000.00000" pt_clust_6="13000.00000" pt_clust_7="13000.00000" pt_clust_8="13000.00000" pt_clust_9="71.42957"></scales>
<clustering>
<clus scale="   71.430">  2  9  1 -1</clus>
<clus scale="   90.677">  5  6 -1 -1</clus>
<clus scale="   92.055">  7  8 -1 -1</clus>
<clus scale="  125.071">  2  5  1 -1</clus>
<clus scale="   71.430">  2  5  1 -1</clus>
</clustering>
</event>
<event>
 9    1  0.1464797E-005  0.9885264E+02  0.7546771E-02  0.1283934E+00
          1   -1    0    0  502    0 -0.00000000000E+00  0.00000000000E+00  0.13339851272E+03  0.13339851272E+03  0.00000000000E+00 0. -1.
         21   -1    0    0  501  502  0.00000000000E+00 -0.00000000000E+00 -0.14896384672E+03  0.14896384672E+03  0.00000000000E+00 0.  1.
         23    2    1    2    0    0  0.57447157637E+01 -0.10114550793E+02  0.15438904962E+02  0.91544553828E+02  0.89480386969E+02 0.  0.
         23    2    1    2    0    0 -0.14709756590E+02  0.70301025550E+02  0.10595520150E+02  0.11710672327E+03  0.91886388853E+02 0.  0.
        -11    1    4    4    0    0 -0.37123488132E+02  0.26943600482E+02 -0.28990078004E+02  0.54263575267E+02  0.00000000000E+00 0.  1.
         11    1    4    4    0    0  0.22413731542E+02  0.43357425067E+02  0.39585598155E+02  0.62843148007E+02  0.00000000000E+00 0. -1.
        -13    1    3    3    0    0  0.72098669514E+01 -0.40017509767E+02  0.36739753944E+02  0.54801394045E+02  0.00000000000E+00 0. -1.
         13    1    3    3    0    0 -0.14651511878E+01  0.29902958974E+02 -0.21300848982E+02  0.36743159782E+02  0.00000000000E+00 0.  1.
          1    1    1    2  501    0  0.89650408262E+01 -0.60186474757E+02 -0.41599759120E+02  0.73711082339E+02  0.00000000000E+00 0. -1.
<scales pt_clust_5="13000.00000" pt_clust_6="13000.00000" pt_clust_7="13000.00000" pt_clust_8="13000.00000" pt_clust_9="60.85050"></scales>
<clustering>
<clus scale="   60.851">  2  9  1 -1</clus>
<clus scale="   89.480">  7  8 -1 -1</clus>
<clus scale="   91.886">  5  6 -1 -1</clus>
<clus scale="   96.620">  1  7  2 -1</clus>
<clus scale="   60.851">  2  5  1 -1</clus>
</clustering>
</event>
<event>
 9    1  0.1464797E-005  0.1596869E+03  0.7546771E-02  0.1189167E+00
         21   -1    0    0  501  502  0.00000000000E+00  0.00000000000E+00  0.16757547877E+03  0.16757547877E+03  0.00000000000E+00 0.  1.
         -1   -1    0    0    0  501 -0.00000000000E+00 -0.00000000000E+00 -0.32260844444E+03  0.32260844444E+03  0.00000000000E+00 0.  1.
         23    2    1    2    0    0 -0.31040355399E+02  0.13161255685E+03 -0.24221782780E+03  0.29236469613E+03  0.92316145155E+02 0.  0.
         23    2    1    2    0    0  0.42253593417E+02 -0.10220213958E+03  0.57929627757E+02  0.15484739807E+03  0.91603664909E+02 0.  0.
        -11    1    3    3    0    0 -0.44848375651E+02  0.10037437727E+03 -0.23197562648E+03  0.25670816834E+03  0.00000000000E+00 0.  1.
         11    1    3    3    0    0  0.13808020252E+02  0.31238179571E+02 -0.10242201322E+02  0.35656527791E+02  0.00000000000E+00 0. -1.
        -13    1    4    4    0    0  0.36001209496E+02 -0.60663978570E+01 -0.89251647349E+01  0.37583864006E+02  0.00000000000E+00 0.  1.
         13    1    4    4    0    0  0.62523839216E+01 -0.96135741725E+02  0.66854792492E+02  0.11726353406E+03  0.00000000000E+00 0. -1.
         -1    1    1    2    0  502 -0.11213238018E+02 -0.29410417265E+02  0.29255234373E+02  0.42971829014E+02  0.00000000000E+00 0.  1.
<scales pt_clust_5="13000.00000" pt_clust_6="13000.00000" pt_clust_7="13000.00000" pt_clust_8="13000.00000" pt_clust_9="31.47554"></scales>
<clustering>
<clus scale="   31.476">  1  9  2 -1</clus>
<clus scale="   91.604">  7  8 -1 -1</clus>
<clus scale="   92.316">  5  6 -1 -1</clus>
<clus scale="  159.276">  1  7  2 -1</clus>
<clus scale="   31.476">  1  5  2 -1</clus>
</clustering>
</event>
<event>
 9    1  0.1464797E-005  0.1044674E+03  0.7546771E-02  0.1271934E+00
          2   -1    0    0  502    0 -0.00000000000E+00  0.00000000000E+00  0.70988065809E+03  0.70988065809E+03  0.00000000000E+00 0. -1.
         21   -1    0    0  501  502  0.00000000000E+00 -0.00000000000E+00 -0.12323184402E+03  0.12323184402E+03  0.00000000000E+00 0. -1.
         23    2    1    2    0    0  0.38133229279E+02  0.36906974149E+02  0.52458521352E+03  0.53447225955E+03  0.87491039911E+02 0.  0.
         23    2    1    2    0    0 -0.72338413519E+02 -0.34266900699E+01  0.15566490211E+03  0.19351114238E+03  0.89277165051E+02 0.  0.
        -11    1    3    3    0    0 -0.23967372142E+02  0.29444539434E+02  0.15176845137E+03  0.15644512987E+03  0.00000000000E+00 0.  1.
         11    1    3    3    0    0  0.62100601421E+02  0.74624347147E+01  0.37281676216E+03  0.37802712968E+03  0.00000000000E+00 0. -1.
        -11    1    4    4    0    0 -0.63860575346E+02  0.23870384789E+02  0.14944161027E+03  0.16425822120E+03  0.00000000000E+00 0. -1.
         11    1    4    4    0    0 -0.84778381733E+01 -0.27297074859E+02  0.62232918467E+01  0.29252921177E+02  0.00000000000E+00 0.  1.
          2    1    1    2  501    0  0.34205184240E+02 -0.33480284079E+02 -0.93601301563E+02  0.10512910018E+03  0.00000000000E+00 0. -1.
<scales pt_clust_5="13000.00000" pt_clust_6="13000.00000" pt_clust_7="13000.00000" pt_clust_8="13000.00000" pt_clust_9="47.86360"></scales>
<clustering>
<clus scale="   47.864">  2  9  1 -1</clus>
<clus scale="   87.491">  5  6 -1 -1</clus>
<clus scale="   89.277">  7  8 -1 -1</clus>
<clus scale="  102.945">  1  5  2 -1</clus>
<clus scale="   47.864">  2  5  1 -1</clus>
</clustering>
</event>
<event>
 9    1  0.1464797E-005  0.2583687E+03  0.7546771E-02  0.1108230E+00
          1   -1    0    0  502    0 -0.00000000000E+00  0.00000000000E+00  0.59638839614E+03  0.59638839614E+03  0.00000000000E+00 0. -1.
         21   -1    0    0  501  502  0.00000000000E+00 -0.00000000000E+00 -0.15328846288E+03  0.15328846288E+03  0.00000000000E+00 0. -1.
         23    2    1    2    0    0  0.18288632629E+03  0.17884100130E+03  0.37116856520E+03  0.46009297833E+03  0.92129977892E+02 0.  0.
         23    2    1    2    0    0 -0.14769349401E+03 -0.14900048280E+03  0.36198927846E+02  0.23122465460E+03  0.90221762723E+02 0.  0.
        -11    1    3    3    0    0  0.15100516776E+03  0.11407325858E+03  0.31941235334E+03  0.37126745141E+03  0.00000000000E+00 0. -1.
         11    1    3    3    0    0  0.31881158529E+02  0.64767742713E+02  0.51756211858E+02  0.88825526912E+02  0.00000000000E+00 0.  1.
        -13    1    4    4    0    0 -0.78206632386E+02 -0.13701381972E+03  0.21886148098E+02  0.15927356222E+03  0.00000000000E+00 0. -1.
         13    1    4    4    0    0 -0.69486861622E+02 -0.11986663078E+02  0.14312779748E+02  0.71951092374E+02  0.00000000000E+00 0.  1.
          1    1    1    2  501    0 -0.35192832280E+02 -0.29840518495E+02  0.35732440211E+02  0.58359226103E+02  0.00000000000E+00 0. -1.
<scales pt_clust_5="13000.00000" pt_clust_6="13000.00000" pt_clust_7="13000.00000" pt_clust_8="13000.00000" pt_clust_9="46.14102"></scales>
<clustering>
<clus scale="   46.141">  2  9  1 -1</clus>
<clus scale="   90.222">  7  8 -1 -1</clus>
<clus scale="   92.130">  5  6 -1 -1</clus>
<clus scale="  257.694">  2  7  1 -1</clus>
<clus scale="   46.141">  2  5  1 -1</clus>
</clustering>
</event>
<event>
 9    1  0.1464797E-005  0.1223136E+03  0.7546771E-02  0.1245548E+00
         21   -1    0    0  501  502  0.00000000000E+00  0.00000000000E+00  0.24990829154E+03  0.24990829154E+03  0.00000000000E+00 0. -1.
          1   -1    0    0  502    0 -0.00000000000E+00 -0.00000000000E+00 -0.43680608983E+03  0.43680608983E+03  0.00000000000E+00 0. -1.
         23    2    1    2    0    0 -0.51552165360E+02 -0.75109859570E+02 -0.31017421460E+03  0.33558099786E+03  0.90041356967E+02 0.  0.
         23    2    1    2    0    0 -0.40311827826E+02  0.87265063221E+02 -0.69462911527E+02  0.13727550847E+03  0.69132007248E+02 0.  0.
        -13    1    3    3    0    0 -0.30543892519E+02  0.16072965789E+02 -0.84344030342E+02  0.91132788028E+02  0.00000000000E+00 0.  1.
         13    1    3    3    0    0 -0.21008272842E+02 -0.91182825359E+02 -0.22583018426E+03  0.24444820983E+03  0.00000000000E+00 0. -1.
        -13    1    4    4    0    0  0.68386257390E+00  0.75536636308E+02 -0.40312295833E+02  0.85623199474E+02  0.00000000000E+00 0.  1.
         13    1    4    4    0    0 -0.40995690400E+02  0.11728426912E+02 -0.29150615695E+02  0.51652308996E+02  0.00000000000E+00 0. -1.
          1    1    1    2  501    0  0.91863993187E+02 -0.12155203651E+02  0.19273932784E+03  0.21385787504E+03  0.00000000000E+00 0. -1.
<scales pt_clust_5="13000.00000" pt_clust_6="13000.00000" pt_clust_7="13000.00000" pt_clust_8="13000.00000" pt_clust_9="92.66468"></scales>
<clustering>
<clus scale="   69.132">  7  8 -1 -1</clus>
<clus scale="   90.041">  5  6 -1 -1</clus>
<clus scale="   92.665">  1  9  2 -1</clus>
<clus scale="  107.854">  1  7  2 -1</clus>
<clus scale="   92.665">  1  5  2 -1</clus>
</clustering>
</event>
<event>
 9    1  0.1464797E-005  0.9442443E+02  0.7546771E-02  0.1292896E+00
          1   -1    0    0  502    0 -0.00000000000E+00  0.00000000000E+00  0.36005180728E+03  0.36005180728E+03  0.00000000000E+00 0. -1.
         21   -1    0    0  501  502  0.00000000000E+00 -0.00000000000E+00 -0.94946685385E+02  0.94946685385E+02  0.00000000000E+00 0.  1.
         23    2    1    2    0    0  0.44208754178E+01  0.11866902162E+02  0.30730548849E+03  0.32124218879E+03  0.92733559688E+02 0.  0.
         23    2    1    2    0    0  0.12721416485E+02 -0.23141026789E+02 -0.12898460074E+02  0.97985285119E+02  0.93474083410E+02 0.  0.
        -11    1    4    4    0    0  0.27152058133E+02  0.29347954172E+02 -0.16889436178E+02  0.43402646571E+02  0.00000000000E+00 0.  1.
         11    1    4    4    0    0 -0.14430641648E+02 -0.52488980961E+02  0.39909761038E+01  0.54582638549E+02  0.00000000000E+00 0. -1.
        -13    1    3    3    0    0 -0.14520584798E+02  0.45482016359E+02  0.22927518372E+03  0.23419344795E+03  0.00000000000E+00 0. -1.
         13    1    3    3    0    0  0.18941460215E+02 -0.33615114197E+02  0.78030304775E+02  0.87048740835E+02  0.00000000000E+00 0.  1.
          1    1    1    2  501    0 -0.17142291903E+02  0.11274124627E+02 -0.29301906519E+02  0.35771018764E+02  0.00000000000E+00 0. -1.
<scales pt_clust_5="13000.00000" pt_clust_6="13000.00000" pt_clust_7="13000.00000" pt_clust_8="13000.00000" pt_clust_9="20.51741"></scales>
<clustering>
<clus scale="   20.517">  2  9  1 -1</clus>
<clus scale="   92.734">  7  8 -1 -1</clus>
<clus scale="   93.474">  5  6 -1 -1</clus>
<clus scale="   93.691">  1  7  2 -1</clus>
<clus scale="   20.517">  2  5  1 -1</clus>
</clustering>
</event>
<event>
 9    1  0.1464797E-005  0.1170733E+03  0.7546771E-02  0.1248158E+00
          1   -1    0    0  502    0 -0.00000000000E+00  0.00000000000E+00  0.67973771473E+03  0.67973771473E+03  0.00000000000E+00 0. -1.
         21   -1    0    0  501  502  0.00000000000E+00 -0.00000000000E+00 -0.42124189517E+02  0.42124189517E+02  0.00000000000E+00 0. -1.
         23    2    1    2    0    0  0.65464229420E+02 -0.35106323798E+02  0.25399606440E+03  0.27973097411E+03  0.90649863980E+02 0.  0.
         23    2    1    2    0    0 -0.82830133657E+02 -0.47119052299E+02  0.27339675443E+03  0.30352648859E+03  0.91112610581E+02 0.  0.
        -11    1    4    4    0    0 -0.70832274908E+01  0.23510097473E+02  0.85752833534E+02  0.89198908368E+02  0.00000000000E+00 0.  1.
         11    1    4    4    0    0 -0.75746906166E+02 -0.70629149772E+02  0.18764392090E+03  0.21432758022E+03  0.00000000000E+00 0. -1.
        -13    1    3    3    0    0  0.35336836853E+02  0.28523591992E+02  0.79301165711E+02  0.91383599306E+02  0.00000000000E+00 0.  1.
         13    1    3    3    0    0  0.30127392567E+02 -0.63629915791E+02  0.17469489869E+03  0.18834737480E+03  0.00000000000E+00 0. -1.
          1    1    1    2  501    0  0.17365904237E+02  0.82225376097E+02  0.11022070638E+03  0.13860444156E+03  0.00000000000E+00 0. -1.
<scales pt_clust_5="13000.00000" pt_clust_6="13000.00000" pt_clust_7="13000.00000" pt_clust_8="13000.00000" pt_clust_9="84.03920"></scales>
<clustering>
<clus scale="   84.039">  2  9  1 -1</clus>
<clus scale="   90.650">  7  8 -1 -1</clus>
<clus scale="   91.113">  5  6 -1 -1</clus>
<clus scale="  116.714">  1  7  2 -1</clus>
<clus scale="   84.039">  2  5  1 -1</clus>
</clustering>
</event>
<event>
 9    1  0.1464797E-005  0.1022294E+03  0.7546771E-02  0.1277379E+00
          1   -1    0    0  502    0 -0.00000000000E+00  0.00000000000E+00  0.11069960501E+03  0.11069960501E+03  0.00000000000E+00 0. -1.
         21   -1    0    0  501  502  0.00000000000E+00 -0.00000000000E+00 -0.23950685777E+03  0.23950685777E+03  0.00000000000E+00 0.  1.
         23    2    1    2    0    0  0.40949820220E+02 -0.30359964099E+02  0.30734335564E+02  0.11031120639E+03  0.92872749913E+02 0.  0.
         23    2    1    2    0    0 -0.68789603506E+01  0.36214315243E+02 -0.23301794809E+02  0.99337872179E+02  0.89253809351E+02 0.  0.
        -13    1    4    4    0    0  0.31091700702E+02 -0.38572154894E+01 -0.30429782744E+02  0.43675435221E+02  0.00000000000E+00 0.  1.
         13    1    4    4    0    0 -0.37970661053E+02  0.40071530733E+02  0.71279879353E+01  0.55662436958E+02  0.00000000000E+00 0. -1.
        -13    1    3    3    0    0 -0.18889275025E+02  0.10704664396E+02  0.30865430016E+02  0.37736843017E+02  0.00000000000E+00 0.  1.
         13    1    3    3    0    0  0.59839095245E+02 -0.41064628495E+02 -0.13109445120E+00  0.72574363373E+02  0.00000000000E+00 0. -1.
          1    1    1    2  501    0 -0.34070859869E+02 -0.58543511439E+01 -0.13623979352E+03  0.14055738421E+03  0.00000000000E+00 0. -1.
<scales pt_clust_5="13000.00000" pt_clust_6="13000.00000" pt_clust_7="13000.00000" pt_clust_8="13000.00000" pt_clust_9="34.57017"></scales>
<clustering>
<clus scale="   34.570">  2  9  1 -1</clus>
<clus scale="   89.254">  5  6 -1 -1</clus>
<clus scale="   92.873">  7  8 -1 -1</clus>
<clus scale="   98.953">  2  5  1 -1</clus>
<clus scale="   34.570">  2  5  1 -1</clus>
</clustering>
</event>
<event>
 9    1  0.1464797E-005  0.9404027E+02  0.7546771E-02  0.1294479E+00
         21   -1    0    0  501  502  0.00000000000E+00  0.00000000000E+00  0.24357516233E+03  0.24357516233E+03  0.00000000000E+00 0.  1.
          2   -1    0    0  502    0 -0.00000000000E+00 -0.00000000000E+00 -0.98194116646E+02  0.98194116646E+02  0.00000000000E+00 0. -1.
         23    2    1    2    0    0 -0.66543319063E+01 -0.24880080501E+02 -0.15374168872E+02  0.94916872964E+02  0.90053035295E+02 0.  0.
         23    2    1    2    0    0  0.46735639168E+02 -0.36231966105E+02  0.12291509200E+03  0.16455375288E+03  0.92048044027E+02 0.  0.
        -11    1    3    3    0    0  0.19140013385E+02 -0.52274088968E+02 -0.50339916623E+01  0.55895094255E+02  0.00000000000E+00 0. -1.
         11    1    3    3    0    0 -0.25794345291E+02  0.27394008466E+02 -0.10340177210E+02  0.39021778709E+02  0.00000000000E+00 0.  1.
        -13    1    4    4    0    0  0.31861441010E+02 -0.58429907871E+02  0.12058540413E+03  0.13773178735E+03  0.00000000000E+00 0.  1.
         13    1    4    4    0    0  0.14874198158E+02  0.22197941766E+02  0.23296878728E+01  0.26821965534E+02  0.00000000000E+00 0. -1.
          2    1    1    2  501    0 -0.40081307262E+02  0.61112046606E+02  0.37840122555E+02  0.82298653131E+02  0.00000000000E+00 0. -1.
<scales pt_clust_5="13000.00000" pt_clust_6="13000.00000" pt_clust_7="13000.00000" pt_clust_8="13000.00000" pt_clust_9="73.08347"></scales>
<clustering>
<clus scale="   73.083">  1  9  2 -1</clus>
<clus scale="   90.053">  5  6 -1 -1</clus>
<clus scale="   92.048">  7  8 -1 -1</clus>
<clus scale="   92.088">  2  5  1 -1</clus>
<clus scale="   73.083">  1  5  2 -1</clus>
</clustering>
</event>
<event>
 9    1  0.1464797E-005  0.9984526E+02  0.7546771E-02  0.1280932E+00
         -3   -1    0    0    0  501 -0.00000000000E+00  0.00000000000E+00  0.19194623446E+03  0.19194623446E+03  0.00000000000E+00 0.  1.
         21   -1    0    0  501  502  0.00000000000E+00 -0.00000000000E+00 -0.85462916442E+02  0.85462916442E+02  0.00000000000E+00 0.  1.
         23    2    1    2    0    0 -0.16793886704E+02 -0.42139714849E+02  0.11159304316E+03  0.15120984660E+03  0.91398141284E+02 0.  0.
         23    2    1    2    0    0  0.23517925746E+02  0.12732542211E+02 -0.58908968962E+01  0.96023076359E+02  0.92035417447E+02 0.  0.
        -11    1    4    4    0    0 -0.42283146711E+01 -0.19776742687E+02  0.32693521194E+02  0.38443003580E+02  0.00000000000E+00 0.  1.
         11    1    4    4    0    0  0.27746240417E+02  0.32509284897E+02 -0.38584418090E+02  0.57580072778E+02  0.00000000000E+00 0. -1.
        -13    1    3    3    0    0  0.29711182912E+02 -0.36732504611E+02  0.26712071151E+02  0.54273069106E+02  0.00000000000E+00 0.  1.
         13    1    3    3    0    0 -0.46505069616E+02 -0.54072102384E+01  0.84880972006E+02  0.96936777495E+02  0.00000000000E+00 0. -1.
         -3    1    1    2    0  502 -0.67240390424E+01  0.29407172638E+02  0.78117175987E+00  0.30176227944E+02  0.00000000000E+00 0.  1.
<scales pt_clust_5="13000.00000" pt_clust_6="13000.00000" pt_clust_7="13000.00000" pt_clust_8="13000.00000" pt_clust_9="30.16612"></scales>
<clustering>
<clus scale="   30.166">  2  9  1 -1</clus>
<clus scale="   91.398">  7  8 -1 -1</clus>
<clus scale="   92.035">  5  6 -1 -1</clus>
<clus scale="   99.258">  1  7  2 -1</clus>
<clus scale="   30.166">  2  5  1 -1</clus>
</clustering>
</event>
<event>
 9    1  0.1464797E-005  0.9311960E+02  0.7546771E-02  0.1304883E+00
         21   -1    0    0  501  502  0.00000000000E+00  0.00000000000E+00  0.15488699740E+03  0.15488699740E+03  0.00000000000E+00 0. -1.
          2   -1    0    0  502    0 -0.00000000000E+00 -0.00000000000E+00 -0.11316085552E+03  0.11316085552E+03  0.00000000000E+00 0. -1.
         23    2    1    2    0    0 -0.27421451323E+02  0.15959272251E+02 -0.52977114186E+02  0.10997675163E+03  0.91003719206E+02 0.  0.
         23    2    1    2    0    0 -0.77800980278E+01 -0.60634594159E+01  0.26821654667E+02  0.80967353014E+02  0.75756291024E+02 0.  0.
        -11    1    4    4    0    0 -0.14614452025E+02  0.27993386394E+02 -0.71530813615E+01  0.32378672962E+02  0.00000000000E+00 0. -1.
         11    1    4    4    0    0  0.68343539976E+01 -0.34056845810E+02  0.33974736028E+02  0.48588680053E+02  0.00000000000E+00 0.  1.
        -11    1    3    3    0    0  0.52478711156E+01  0.48417646561E+02 -0.37247062535E+02  0.61311926387E+02  0.00000000000E+00 0. -1.
         11    1    3    3    0    0 -0.32669322438E+02 -0.32458374311E+02 -0.15730051651E+02  0.48664825248E+02  0.00000000000E+00 0.  1.
          2    1    1    2  501    0  0.35201549350E+02 -0.98958128349E+01  0.67881601399E+02  0.77103748267E+02  0.00000000000E+00 0. -1.
<scales pt_clust_5="13000.00000" pt_clust_6="13000.00000" pt_clust_7="13000.00000" pt_clust_8="13000.00000" pt_clust_9="36.56605"></scales>
<clustering>
<clus scale="   36.566">  1  9  2 -1</clus>
<clus scale="   75.756">  5  6 -1 -1</clus>
<clus scale="   78.285">  1  5  2 -1</clus>
<clus scale="   91.004">  7  8 -1 -1</clus>
<clus scale="   36.566">  1  5  2 -1</clus>
</clustering>
</event>
<event>
 9    1  0.1464797E-005  0.9931821E+02  0.7546771E-02  0.1284209E+00
         21   -1    0    0  501  502  0.00000000000E+00  0.00000000000E+00  0.32835263716E+03  0.32835263716E+03  0.00000000000E+00 0. -1.
          1   -1    0    0  502    0 -0.00000000000E+00 -0.00000000000E+00 -0.27786195513E+03  0.27786195513E+03  0.00000000000E+00 0. -1.
         23    2    1    2    0    0  0.17284224703E+02 -0.11308573343E+02 -0.24105656220E+03  0.25885230547E+03  0.92030547159E+02 0.  0.
         23    2    1    2    0    0 -0.50223708986E+02  0.92540375617E+01  0.85843132471E+02  0.13902743055E+03  0.96703282765E+02 0.  0.
        -11    1    3    3    0    0  0.47244204867E+02  0.13618435252E+02 -0.86899315444E+02  0.99844717922E+02  0.00000000000E+00 0. -1.
         11    1    3    3    0    0 -0.29959980165E+02 -0.24927008595E+02 -0.15415724676E+03  0.15900758755E+03  0.00000000000E+00 0.  1.
        -13    1    4    4    0    0 -0.18485425126E+02 -0.28453831659E+02  0.82989242988E+02  0.89657938466E+02  0.00000000000E+00 0.  1.
         13    1    4    4    0    0 -0.31738283860E+02  0.37707869220E+02  0.28538894832E+01  0.49369492085E+02  0.00000000000E+00 0. -1.
          1    1    1    2  501    0  0.32939484283E+02  0.20545357812E+01  0.20570411176E+03  0.20833485627E+03  0.00000000000E+00 0. -1.
<scales pt_clust_5="13000.00000" pt_clust_6="13000.00000" pt_clust_7="13000.00000" pt_clust_8="13000.00000" pt_clust_9="33.00350"></scales>
<clustering>
<clus scale="   33.003">  1  9  2 -1</clus>
<clus scale="   92.031">  5  6 -1 -1</clus>
<clus scale="   94.774">  2  5  1 -1</clus>
<clus scale="   96.703">  7  8 -1 -1</clus>
<clus scale="   33.003">  1  5  2 -1</clus>
</clustering>
</event>
<event>
 9    1  0.1464797E-005  0.9673934E+02  0.7546771E-02  0.1287453E+00
          1   -1    0    0  502    0 -0.00000000000E+00  0.00000000000E+00  0.62674048382E+03  0.62674048382E+03  0.00000000000E+00 0. -1.
         21   -1    0    0  501  502  0.00000000000E+00 -0.00000000000E+00 -0.14785282124E+03  0.14785282124E+03  0.00000000000E+00 0. -1.
         23    2    1    2    0    0 -0.29760360824E+02  0.14322560780E+02  0.47607810592E+03  0.48577952041E+03  0.90777556121E+02 0.  0.
         23    2    1    2    0    0  0.48492720727E+02  0.40704875383E+02  0.11686815024E+03  0.16079705601E+03  0.90493634231E+02 0.  0.
        -11    1    4    4    0    0  0.67431375907E+02  0.21153709838E+02  0.44588682758E+02  0.83562075888E+02  0.00000000000E+00 0. -1.
         11    1    4    4    0    0 -0.18938655181E+02  0.19551165545E+02  0.72279467487E+02  0.77234980122E+02  0.00000000000E+00 0.  1.
        -11    1    3    3    0    0  0.20633097546E+02  0.35964977279E+02  0.18649185866E+03  0.19104559051E+03  0.00000000000E+00 0.  1.
         11    1    3    3    0    0 -0.50393458370E+02 -0.21642416499E+02  0.28958624725E+03  0.29473392990E+03  0.00000000000E+00 0. -1.
          1    1    1    2  501    0 -0.18732359902E+02 -0.55027436163E+02 -0.11405859359E+03  0.12801672863E+03  0.00000000000E+00 0. -1.
<scales pt_clust_5="13000.00000" pt_clust_6="13000.00000" pt_clust_7="13000.00000" pt_clust_8="13000.00000" pt_clust_9="58.12848"></scales>
<clustering>
<clus scale="   58.128">  2  9  1 -1</clus>
<clus scale="   90.494">  5  6 -1 -1</clus>
<clus scale="   90.778">  7  8 -1 -1</clus>
<clus scale="   96.473">  2  5  1 -1</clus>
<clus scale="   58.128">  2  5  1 -1</clus>
</clustering>
</event>
<event>
 9    1  0.1464797E-005  0.9260574E+02  0.7546771E-02  0.1297210E+00
         21   -1    0    0  501  502  0.00000000000E+00  0.00000000000E+00  0.78440087844E+02  0.78440087844E+02  0.00000000000E+00 0. -1.
          1   -1    0    0  502    0 -0.00000000000E+00 -0.00000000000E+00 -0.58262627286E+03  0.58262627286E+03  0.00000000000E+00 0. -1.
         23    2    1    2    0    0  0.14058112731E+02  0.14181563682E+02 -0.39936434994E+03  0.41021909673E+03  0.91591899428E+02 0.  0.
         23    2    1    2    0    0 -0.58434520390E+01  0.72878268260E+01 -0.16385868758E+03  0.18749297972E+03  0.90645957424E+02 0.  0.
        -13    1    4    4    0    0  0.97355542303E+01 -0.31801515844E+02 -0.22880395123E+02  0.40368674825E+02  0.00000000000E+00 0.  1.
         13    1    4    4    0    0 -0.15579006269E+02  0.39089342670E+02 -0.14097829246E+03  0.14712430490E+03  0.00000000000E+00 0. -1.
        -13    1    3    3    0    0  0.23490956442E+02 -0.35095199650E+02 -0.14857368469E+03  0.15445917860E+03  0.00000000000E+00 0.  1.
         13    1    3    3    0    0 -0.94328437112E+01  0.49276763332E+02 -0.25079066525E+03  0.25575991813E+03  0.00000000000E+00 0. -1.
          1    1    1    2  501    0 -0.82146606917E+01 -0.21469390508E+02  0.59036852504E+02  0.63354284249E+02  0.00000000000E+00 0. -1.
<scales pt_clust_5="13000.00000" pt_clust_6="13000.00000" pt_clust_7="13000.00000" pt_clust_8="13000.00000" pt_clust_9="22.98729"></scales>
<clustering>
<clus scale="   22.987">  1  9  2 -1</clus>
<clus scale="   90.646">  5  6 -1 -1</clus>
<clus scale="   91.592">  7  8 -1 -1</clus>
<clus scale="   91.670">  1  5  2 -1</clus>
<clus scale="   22.987">  1  5  2 -1</clus>
</clustering>
</event>
<event>
 9    1  0.1464797E-005  0.1161922E+03  0.7546771E-02  0.1250578E+00
         21   -1    0    0  501  502  0.00000000000E+00  0.00000000000E+00  0.91602737571E+02  0.91602737571E+02  0.00000000000E+00 0. -1.
         -1   -1    0    0    0  501 -0.00000000000E+00 -0.00000000000E+00 -0.45930121291E+03  0.45930121291E+03  0.00000000000E+00 0.  1.
         23    2    1    2    0    0 -0.48055721001E+02 -0.62941542564E+02 -0.31198609380E+03  0.33463186110E+03  0.91499560850E+02 0.  0.
         23    2    1    2    0    0  0.34877140621E+02  0.45979496437E+02 -0.11327627537E+03  0.15483115951E+03  0.88377849956E+02 0.  0.
        -11    1    3    3    0    0 -0.75374282106E+02 -0.51750986066E+02 -0.23134231751E+03  0.24875432626E+03  0.00000000000E+00 0.  1.
         11    1    3    3    0    0  0.27318561105E+02 -0.11190556497E+02 -0.80643776293E+02  0.85877534840E+02  0.00000000000E+00 0. -1.
        -11    1    4    4    0    0  0.21660481502E+02  0.18592239311E+02 -0.12028383167E+03  0.12362462531E+03  0.00000000000E+00 0.  1.
         11    1    4    4    0    0  0.13216659120E+02  0.27387257126E+02  0.70075563059E+01  0.31206534197E+02  0.00000000000E+00 0. -1.
         -1    1    1    2    0  502  0.13178580380E+02  0.16962046126E+02  0.57563893836E+02  0.61440929869E+02  0.00000000000E+00 0.  1.
<scales pt_clust_5="13000.00000" pt_clust_6="13000.00000" pt_clust_7="13000.00000" pt_clust_8="13000.00000" pt_clust_9="21.47990"></scales>
<clustering>
<clus scale="   21.480">  1  9  2 -1</clus>
<clus scale="   88.378">  7  8 -1 -1</clus>
<clus scale="   91.500">  5  6 -1 -1</clus>
<clus scale="  113.750">  1  7  2 -1</clus>
<clus scale="   21.480">  1  5  2 -1</clus>
</clustering>
</event>
<event>
 9    1  0.1464797E-005  0.1086834E+03  0.7546771E-02  0.1268394E+00
          4   -1    0    0  502    0 -0.00000000000E+00  0.00000000000E+00  0.11834492966E+03  0.11834492966E+03  0.00000000000E+00 0. -1.
         21   -1    0    0  501  502  0.00000000000E+00 -0.00000000000E+00 -0.18731727252E+03  0.18731727252E+03  0.00000000000E+00 0. -1.
         23    2    1    2    0    0  0.28648672313E+02 -0.25202176672E+02  0.33147602201E+02  0.11627701493E+03  0.10471716448E+03 0.  0.
         23    2    1    2    0    0 -0.13115248574E+02  0.11566331089E+02 -0.10745704674E+02  0.95702342792E+02  0.93475550209E+02 0.  0.
        -11    1    4    4    0    0  0.33738365269E+02  0.29373634421E+02 -0.84623280113E+01  0.45526900680E+02  0.00000000000E+00 0. -1.
         11    1    4    4    0    0 -0.46853613843E+02 -0.17807303332E+02 -0.22833766630E+01  0.50175442112E+02  0.00000000000E+00 0.  1.
        -11    1    3    3    0    0  0.41800928689E+01  0.33193033034E+02 -0.15070070069E+02  0.36692746289E+02  0.00000000000E+00 0.  1.
         11    1    3    3    0    0  0.24468579444E+02 -0.58395209706E+02  0.48217672270E+02  0.79584268645E+02  0.00000000000E+00 0. -1.
          4    1    1    2  501    0 -0.15533423739E+02  0.13635845582E+02 -0.91374240392E+02  0.93682844455E+02  0.00000000000E+00 0. -1.
<scales pt_clust_5="13000.00000" pt_clust_6="13000.00000" pt_clust_7="13000.00000" pt_clust_8="13000.00000" pt_clust_9="20.66939"></scales>
<clustering>
<clus scale="   20.669">  2  9  1 -1</clus>
<clus scale="   93.476">  5  6 -1 -1</clus>
<clus scale="   97.898">  2  5  1 -1</clus>
<clus scale="  104.717">  7  8 -1 -1</clus>
<clus scale="   20.669">  2  5  1 -1</clus>
</clustering>
</event>
<event>
 9    1  0.1464797E-005  0.9363095E+02  0.7546771E-02  0.1294577E+00
          1   -1    0    0  502    0 -0.00000000000E+00  0.00000000000E+00  0.12202928634E+03  0.12202928634E+03  0.00000000000E+00 0. -1.
         21   -1    0    0  501  502  0.00000000000E+00 -0.00000000000E+00 -0.17692413343E+03  0.17692413343E+03  0.00000000000E+00 0. -1.
         23    2    1    2    0    0  0.17773474473E+02  0.25798046112E+02  0.27649797257E+02  0.10025691710E+03  0.91134530007E+02 0.  0.
         23    2    1    2    0    0 -0.10353814449E+02 -0.65457452725E+01  0.20409405660E+02  0.93695365264E+02  0.90621351666E+02 0.  0.
        -11    1    4    4    0    0 -0.10712399092E+02 -0.48121679822E+02  0.58644920324E+01  0.49647193576E+02  0.00000000000E+00 0. -1.
         11    1    4    4    0    0  0.35858464281E+00  0.41575934550E+02  0.14544913628E+02  0.44048171688E+02  0.00000000000E+00 0.  1.
        -13    1    3    3    0    0  0.52854176720E+02  0.14679479713E+00  0.16870564643E+02  0.55481541947E+02  0.00000000000E+00 0.  1.
         13    1    3    3    0    0 -0.35080702247E+02  0.25651251315E+02  0.10779232615E+02  0.44775375151E+02  0.00000000000E+00 0. -1.
          1    1    1    2  501    0 -0.74196600242E+01 -0.19252300839E+02 -0.10295405001E+03  0.10500113740E+03  0.00000000000E+00 0. -1.
<scales pt_clust_5="13000.00000" pt_clust_6="13000.00000" pt_clust_7="13000.00000" pt_clust_8="13000.00000" pt_clust_9="20.63256"></scales>
<clustering>
<clus scale="   20.633">  2  9  1 -1</clus>
<clus scale="   90.621">  5  6 -1 -1</clus>
<clus scale="   91.135">  7  8 -1 -1</clus>
<clus scale="   93.132">  2  5  1 -1</clus>
<clus scale="   20.633">  2  5  1 -1</clus>
</clustering>
</event>
<event>
 9    1  0.1464797E-005  0.9443957E+02  0.7546771E-02  0.1293893E+00
          1   -1    0    0  502    0 -0.00000000000E+00  0.00000000000E+00  0.28528805285E+03  0.28528805285E+03  0.00000000000E+00 0. -1.
         21   -1    0    0  501  502  0.00000000000E+00 -0.00000000000E+00 -0.10009942649E+03  0.10009942649E+03  0.00000000000E+00 0.  1.
         23    2    1    2    0    0  0.14167877517E+02  0.34284714539E+01  0.13782245826E+03  0.16591730791E+03  0.91219734116E+02 0.  0.
         23    2    1    2    0    0  0.73538336901E+02 -0.27228018000E+02  0.38569859457E+02  0.12816752356E+03  0.93755149610E+02 0.  0.
        -11    1    3    3    0    0 -0.19235063364E+02  0.24805200955E+02  0.11358626747E+02  0.33381193188E+02  0.00000000000E+00 0.  1.
         11    1    3    3    0    0  0.33402940882E+02 -0.21376729501E+02  0.12646383152E+03  0.13253611472E+03  0.00000000000E+00 0. -1.
        -11    1    4    4    0    0 -0.79366749202E+01 -0.20559185490E+02  0.40820039486E+02  0.46389077814E+02  0.00000000000E+00 0. -1.
         11    1    4    4    0    0  0.81475011821E+02 -0.66688325093E+01 -0.22501800288E+01  0.81778445745E+02  0.00000000000E+00 0.  1.
          1    1    1    2  501    0 -0.87706214418E+02  0.23799546546E+02  0.87963086323E+01  0.91302647875E+02  0.00000000000E+00 0. -1.
<scales pt_clust_5="13000.00000" pt_clust_6="13000.00000" pt_clust_7="13000.00000" pt_clust_8="13000.00000" pt_clust_9="90.87793"></scales>
<clustering>
<clus scale="   90.878">  2  9  1 -1</clus>
<clus scale="   91.220">  5  6 -1 -1</clus>
<clus scale="   91.923">  1  5  2 -1</clus>
<clus scale="   93.755">  7  8 -1 -1</clus>
<clus scale="   90.878">  2  5  1 -1</clus>
</clustering>
</event>
<event>
 9    1  0.1464797E-005  0.9501938E+02  0.7546771E-02  0.1291179E+00
         21   -1    0    0  501  502  0.00000000000E+00  0.00000000000E+00  0.49484849033E+02  0.49484849033E+02  0.00000000000E+00 0.  1.
         -1   -1    0    0    0  501 -0.00000000000E+00 -0.00000000000E+00 -0.44171042583E+03  0.44171042583E+03  0.00000000000E+00 0.  1.
         23    2    1    2    0    0 -0.34338752960E+02 -0.41043684124E+01 -0.26251996237E+03  0.28020164814E+03  0.91652807820E+02 0.  0.
         23    2    1    2    0    0  0.11356207239E+02 -0.81185228705E+00 -0.15250646128E+03  0.17824847057E+03  0.91567865430E+02 0.  0.
        -11    1    3    3    0    0 -0.51009783894E+02 -0.16636019719E+02 -0.25039176921E+03  0.25607575694E+03  0.00000000000E+00 0. -1.
         11    1    3    3    0    0  0.16671030934E+02  0.12531651306E+02 -0.12128193168E+02  0.24125891204E+02  0.00000000000E+00 0.  1.
        -11    1    4    4    0    0 -0.30013931637E+02  0.25102113454E+01 -0.13188101638E+02  0.32879526732E+02  0.00000000000E+00 0. -1.
         11    1    4    4    0    0  0.41370138876E+02 -0.33220636324E+01 -0.13931835965E+03  0.14536894384E+03  0.00000000000E+00 0.  1.
         -1    1    1    2    0  502  0.22982545721E+02  0.49162206995E+01  0.22800846863E+02  0.32745156153E+02  0.00000000000E+00 0.  1.
<scales pt_clust_5="13000.00000" pt_clust_6="13000.00000" pt_clust_7="13000.00000" pt_clust_8="13000.00000" pt_clust_9="23.50248"></scales>
<clustering>
<clus scale="   23.502">  1  9  2 -1</clus>
<clus scale="   91.568">  7  8 -1 -1</clus>
<clus scale="   91.653">  5  6 -1 -1</clus>
<clus scale="   94.937">  1  7  2 -1</clus>
<clus scale="   23.502">  1  5  2 -1</clus>
</clustering>
</event>
<event>
 9    1  0.1464797E-005  0.9516506E+02  0.7546771E-02  0.1291194E+00
         -2   -1    0    0    0  501 -0.00000000000E+00  0.00000000000E+00  0.20868228572E+03  0.20868228572E+03  0.00000000000E+00 0.  1.
         21   -1    0    0  501  502  0.00000000000E+00 -0.00000000000E+00 -0.88743174143E+02  0.88743174143E+02  0.00000000000E+00 0. -1.
         23    2    1    2    0    0  0.18596837662E+02 -0.77130788546E+01  0.12881462270E+03  0.15886605196E+03  0.90773792960E+02 0.  0.
         23    2    1    2    0    0 -0.44998967054E+02  0.41020281282E+01  0.14556976608E+02  0.10307428982E+03  0.91491365622E+02 0.  0.
        -13    1    4    4    0    0  0.17991442183E+02  0.12053149028E+02 -0.21117742316E+02  0.30247800480E+02  0.00000000000E+00 0.  1.
         13    1    4    4    0    0 -0.62990409237E+02 -0.79511208996E+01  0.35674718925E+02  0.72826489341E+02  0.00000000000E+00 0. -1.
        -13    1    3    3    0    0  0.21544095365E+02  0.38897615153E+02  0.78481297383E+02  0.90202475291E+02  0.00000000000E+00 0.  1.
         13    1    3    3    0    0 -0.29472577031E+01 -0.46610694008E+02  0.50333325317E+02  0.68663576672E+02  0.00000000000E+00 0. -1.
         -2    1    1    2    0  502  0.26402129392E+02  0.36110507263E+01 -0.23432487732E+02  0.35485118080E+02  0.00000000000E+00 0.  1.
<scales pt_clust_5="13000.00000" pt_clust_6="13000.00000" pt_clust_7="13000.00000" pt_clust_8="13000.00000" pt_clust_9="26.64793"></scales>
<clustering>
<clus scale="   26.648">  2  9  1 -1</clus>
<clus scale="   90.774">  7  8 -1 -1</clus>
<clus scale="   91.491">  5  6 -1 -1</clus>
<clus scale="   94.475">  1  7  2 -1</clus>
<clus scale="   26.648">  2  5  1 -1</clus>
</clustering>
</event>
<event>
 9    1  0.1464797E-005  0.1646226E+03  0.7546771E-02  0.1188823E+00
         21   -1    0    0  501  502  0.00000000000E+00  0.00000000000E+00  0.95306923784E+02  0.95306923784E+02  0.00000000000E+00 0.  1.
         -1   -1    0    0    0  501 -0.00000000000E+00 -0.00000000000E+00 -0.39607068497E+03  0.39607068497E+03  0.00000000000E+00 0.  1.
         23    2    1    2    0    0 -0.14888794743E+03  0.16953613402E+01 -0.26015276295E+03  0.31498039888E+03  0.96761027642E+02 0.  0.
         23    2    1    2    0    0  0.10855906760E+03  0.96227685545E+01 -0.48119684799E+02  0.13384255106E+03  0.60997176789E+02 0.  0.
        -13    1    4    4    0    0  0.60839395171E+02 -0.15153845201E+02 -0.15611338233E+01  0.62717686246E+02  0.00000000000E+00 0. -1.
         13    1    4    4    0    0  0.47719672430E+02  0.24776613755E+02 -0.46558550976E+02  0.71124864816E+02  0.00000000000E+00 0.  1.
        -13    1    3    3    0    0 -0.82385847900E+02  0.34949199779E+02 -0.20081172618E+03  0.21985045797E+03  0.00000000000E+00 0.  1.
         13    1    3    3    0    0 -0.66502099534E+02 -0.33253838439E+02 -0.59341036773E+02  0.95129940916E+02  0.00000000000E+00 0. -1.
         -1    1    1    2    0  502  0.40328879832E+02 -0.11318129895E+02  0.75086865590E+01  0.42554658812E+02  0.00000000000E+00 0.  1.
<scales pt_clust_5="13000.00000" pt_clust_6="13000.00000" pt_clust_7="13000.00000" pt_clust_8="13000.00000" pt_clust_9="41.88697"></scales>
<clustering>
<clus scale="   41.887">  1  9  2 -1</clus>
<clus scale="   60.997">  5  6 -1 -1</clus>
<clus scale="   96.761">  7  8 -1 -1</clus>
<clus scale="  146.487">  1  5  2 -1</clus>
<clus scale="   41.887">  1  5  2 -1</clus>
</clustering>
</event>
<event>
 9    1  0.1464797E-005  0.1046917E+03  0.7546771E-02  0.1276125E+00
         21   -1    0    0  501  502  0.00000000000E+00  0.00000000000E+00  0.36401181254E+02  0.36401181254E+02  0.00000000000E+00 0.  1.
          2   -1    0    0  502    0 -0.00000000000E+00 -0.00000000000E+00 -0.43406884622E+03  0.43406884622E+03  0.00000000000E+00 0. -1.
         23    2    1    2    0    0 -0.19106648111E+02  0.92763540387E+01 -0.25807127652E+03  0.27788853607E+03  0.10084711186E+03 0.  0.
         23    2    1    2    0    0  0.26428231152E+02 -0.30948780834E+02 -0.13786243895E+03  0.16964012609E+03  0.90085747314E+02 0.  0.
        -13    1    3    3    0    0  0.23864745190E+02 -0.19834575515E+02 -0.27231394268E+02  0.41285412468E+02  0.00000000000E+00 0.  1.
         13    1    3    3    0    0 -0.42971393302E+02  0.29110929554E+02 -0.23083988225E+03  0.23660312360E+03  0.00000000000E+00 0. -1.
        -13    1    4    4    0    0  0.57556327875E+02 -0.26125112712E+02 -0.11313331307E+03  0.12959320552E+03  0.00000000000E+00 0.  1.
         13    1    4    4    0    0 -0.31128096723E+02 -0.48236681219E+01 -0.24729125887E+02  0.40046920567E+02  0.00000000000E+00 0. -1.
          2    1    1    2  501    0 -0.73215830406E+01  0.21672426795E+02 -0.17339494924E+01  0.22941365309E+02  0.00000000000E+00 0. -1.
<scales pt_clust_5="13000.00000" pt_clust_6="13000.00000" pt_clust_7="13000.00000" pt_clust_8="13000.00000" pt_clust_9="22.87574"></scales>
<clustering>
<clus scale="   22.876">  1  9  2 -1</clus>
<clus scale="   90.086">  7  8 -1 -1</clus>
<clus scale="   94.370">  1  7  2 -1</clus>
<clus scale="  100.847">  5  6 -1 -1</clus>
<clus scale="   22.876">  1  5  2 -1</clus>
</clustering>
</event>
<event>
 9    1  0.1464797E-005  0.9984386E+02  0.7546771E-02  0.1281708E+00
         21   -1    0    0  501  502  0.00000000000E+00  0.00000000000E+00  0.62696237721E+02  0.62696237721E+02  0.00000000000E+00 0. -1.
         -3   -1    0    0    0  501 -0.00000000000E+00 -0.00000000000E+00 -0.24869463204E+03  0.24869463204E+03  0.00000000000E+00 0.  1.
         23    2    1    2    0    0 -0.12121708816E+02  0.42558552588E+02 -0.15706730398E+03  0.18761757025E+03  0.92585357720E+02 0.  0.
         23    2    1    2    0    0 -0.15946880303E+01 -0.23836740588E+02 -0.34926837632E+02  0.99802592967E+02  0.90387722309E+02 0.  0.
        -11    1    4    4    0    0  0.22804256573E+02 -0.40753648588E+02  0.82296720891E+01  0.47419631945E+02  0.00000000000E+00 0.  1.
         11    1    4    4    0    0 -0.24398944604E+02  0.16916908000E+02 -0.43156509721E+02  0.52382961022E+02  0.00000000000E+00 0. -1.
        -11    1    3    3    0    0 -0.36177692883E+02 -0.12534562118E+02 -0.36518741545E+02  0.52910860831E+02  0.00000000000E+00 0. -1.
         11    1    3    3    0    0  0.24055984068E+02  0.55093114706E+02 -0.12054856243E+03  0.13470670942E+03  0.00000000000E+00 0.  1.
         -3    1    1    2    0  502  0.13716396846E+02 -0.18721812000E+02  0.59957472862E+01  0.23970706550E+02  0.00000000000E+00 0.  1.
<scales pt_clust_5="13000.00000" pt_clust_6="13000.00000" pt_clust_7="13000.00000" pt_clust_8="13000.00000" pt_clust_9="23.20874"></scales>
<clustering>
<clus scale="   23.209">  1  9  2 -1</clus>
<clus scale="   90.388">  5  6 -1 -1</clus>
<clus scale="   92.585">  7  8 -1 -1</clus>
<clus scale="   97.809">  1  5  2 -1</clus>
<clus scale="   23.209">  1  5  2 -1</clus>
</clustering>
</event>
<event>
 9    1  0.1464797E-005  0.9367244E+02  0.7546771E-02  0.1294300E+00
         21   -1    0    0  501  502  0.00000000000E+00  0.00000000000E+00  0.36086772415E+02  0.36086772415E+02  0.00000000000E+00 0.  1.
          1   -1    0    0  502    0 -0.00000000000E+00 -0.00000000000E+00 -0.73066362178E+03  0.73066362178E+03  0.00000000000E+00 0. -1.
         23    2    1    2    0    0 -0.96740804665E+01  0.11492246987E+02 -0.40677502983E+03  0.41725773000E+03  0.91719293412E+02 0.  0.
         23    2    1    2    0    0 -0.18402743223E+02 -0.30167288399E+02 -0.29842361504E+03  0.31413891277E+03  0.91530739416E+02 0.  0.
        -11    1    3    3    0    0  0.24834742370E+02 -0.29860760649E+02 -0.15573650350E+03  0.16050634871E+03  0.00000000000E+00 0.  1.
         11    1    3    3    0    0 -0.34508822836E+02  0.41353007636E+02 -0.25103852633E+03  0.25675138129E+03  0.00000000000E+00 0. -1.
        -11    1    4    4    0    0  0.27045471006E+02 -0.36589197609E+02 -0.91533850533E+02  0.10221874915E+03  0.00000000000E+00 0.  1.
         11    1    4    4    0    0 -0.45448214229E+02  0.64219092102E+01 -0.20688976450E+03  0.21192016362E+03  0.00000000000E+00 0. -1.
          1    1    1    2  501    0  0.28076823689E+02  0.18675041412E+02  0.10621795495E+02  0.35353751424E+02  0.00000000000E+00 0. -1.
<scales pt_clust_5="13000.00000" pt_clust_6="13000.00000" pt_clust_7="13000.00000" pt_clust_8="13000.00000" pt_clust_9="33.72040"></scales>
<clustering>
<clus scale="   33.720">  1  9  2 -1</clus>
<clus scale="   91.531">  7  8 -1 -1</clus>
<clus scale="   91.719">  5  6 -1 -1</clus>
<clus scale="   93.488">  1  7  2 -1</clus>
<clus scale="   33.720">  1  5  2 -1</clus>
</clustering>
</event>
<event>
 9    1  0.1464797E-005  0.1014181E+03  0.7546771E-02  0.1277829E+00
         21   -1    0    0  501  502  0.00000000000E+00  0.00000000000E+00  0.44256067975E+03  0.44256067975E+03  0.00000000000E+00 0.  1.
         -1   -1    0    0    0  501 -0.00000000000E+00 -0.00000000000E+00 -0.54097281792E+02  0.54097281792E+02  0.00000000000E+00 0.  1.
         23    2    1    2    0    0 -0.16219242201E+02  0.33636931165E+02  0.40189382531E+02  0.10667410832E+03  0.91485911270E+02 0.  0.
         23    2    1    2    0    0 -0.11891284793E+02 -0.64652971903E+02  0.14858362872E+03  0.18595334802E+03  0.90444145673E+02 0.  0.
        -11    1    3    3    0    0 -0.52605859474E+02  0.15550538354E+02  0.93148491908E+01  0.55641370485E+02  0.00000000000E+00 0.  1.
         11    1    3    3    0    0  0.36386617273E+02  0.18086392811E+02  0.30874533340E+02  0.51032737830E+02  0.00000000000E+00 0. -1.
        -13    1    4    4    0    0  0.36495913469E+02 -0.48032278946E+02  0.73317029870E+02  0.94944396305E+02  0.00000000000E+00 0. -1.
         13    1    4    4    0    0 -0.48387198262E+02 -0.16620692958E+02  0.75266598852E+02  0.91008951718E+02  0.00000000000E+00 0.  1.
         -1    1    1    2    0  502  0.28110526994E+02  0.31016040739E+02  0.19969038670E+03  0.20403050520E+03  0.00000000000E+00 0.  1.
<scales pt_clust_5="13000.00000" pt_clust_6="13000.00000" pt_clust_7="13000.00000" pt_clust_8="13000.00000" pt_clust_9="41.85925"></scales>
<clustering>
<clus scale="   41.859">  1  9  2 -1</clus>
<clus scale="   90.444">  7  8 -1 -1</clus>
<clus scale="   91.486">  5  6 -1 -1</clus>
<clus scale="  100.479">  1  7  2 -1</clus>
<clus scale="   41.859">  1  5  2 -1</clus>
</clustering>
</event>
<event>
 9    1  0.1464797E-005  0.9249185E+02  0.7546771E-02  0.1300519E+00
         21   -1    0    0  501  502  0.00000000000E+00  0.00000000000E+00  0.10458824448E+03  0.10458824448E+03  0.00000000000E+00 0. -1.
          1   -1    0    0  502    0 -0.00000000000E+00 -0.00000000000E+00 -0.21357913378E+03  0.21357913378E+03  0.00000000000E+00 0. -1.
         23    2    1    2    0    0 -0.11827599441E+02 -0.19761522961E+02 -0.16373766724E+03  0.18845331071E+03  0.90411375096E+02 0.  0.
         23    2    1    2    0    0  0.16460543077E+02 -0.10654655021E+02  0.36607176554E+02  0.93997780104E+02  0.84326900437E+02 0.  0.
        -11    1    4    4    0    0  0.19158280308E+02  0.30714903467E+02  0.38045040257E+02  0.52515427138E+02  0.00000000000E+00 0.  1.
         11    1    4    4    0    0 -0.26977372316E+01 -0.41369558487E+02 -0.14378637029E+01  0.41482352967E+02  0.00000000000E+00 0. -1.
        -11    1    3    3    0    0 -0.83989516680E+01  0.21701237089E+02 -0.42834340247E+01  0.23660809102E+02  0.00000000000E+00 0.  1.
         11    1    3    3    0    0 -0.34286477728E+01 -0.41462760050E+02 -0.15945423321E+03  0.16479250161E+03  0.00000000000E+00 0. -1.
          1    1    1    2  501    0 -0.46329436360E+01  0.30416177982E+02  0.18139601386E+02  0.35716287435E+02  0.00000000000E+00 0. -1.
<scales pt_clust_5="13000.00000" pt_clust_6="13000.00000" pt_clust_7="13000.00000" pt_clust_8="13000.00000" pt_clust_9="30.76700"></scales>
<clustering>
<clus scale="   30.767">  1  9  2 -1</clus>
<clus scale="   84.327">  5  6 -1 -1</clus>
<clus scale="   86.554">  1  5  2 -1</clus>
<clus scale="   90.411">  7  8 -1 -1</clus>
<clus scale="   30.767">  1  5  2 -1</clus>
</clustering>
</event>
<event>
 9    1  0.1464797E-005  0.1672117E+03  0.7546771E-02  0.1181103E+00
         21   -1    0    0  501  502  0.00000000000E+00  0.00000000000E+00  0.17823050321E+03  0.17823050321E+03  0.00000000000E+00 0. -1.
          1   -1    0    0  502    0 -0.00000000000E+00 -0.00000000000E+00 -0.26388129769E+03  0.26388129769E+03  0.00000000000E+00 0. -1.
         23    2    1    2    0    0 -0.14009823431E+03 -0.52055120702E+02 -0.16053719393E+03  0.23813534382E+03  0.92730795845E+02 0.  0.
         23    2    1    2    0    0  0.11064616447E+03  0.17410207708E+02  0.60971684660E+02  0.15642318483E+03  0.90581330180E+02 0.  0.
        -11    1    3    3    0    0 -0.97576638597E+02 -0.30854367952E+01 -0.13888103459E+03  0.16976060228E+03  0.00000000000E+00 0.  1.
         11    1    3    3    0    0 -0.42521595708E+02 -0.48969683906E+02 -0.21656159341E+02  0.68374741542E+02  0.00000000000E+00 0. -1.
        -13    1    4    4    0    0  0.49226113342E+02 -0.20229279679E+02  0.65319893790E+02  0.84256290660E+02  0.00000000000E+00 0. -1.
         13    1    4    4    0    0  0.61420051125E+02  0.37639487388E+02 -0.43482091295E+01  0.72166894166E+02  0.00000000000E+00 0.  1.
          1    1    1    2  501    0  0.29452069839E+02  0.34644912993E+02  0.13914714789E+02  0.47553272251E+02  0.00000000000E+00 0. -1.
<scales pt_clust_5="13000.00000" pt_clust_6="13000.00000" pt_clust_7="13000.00000" pt_clust_8="13000.00000" pt_clust_9="45.47191"></scales>
<clustering>
<clus scale="   45.472">  1  9  2 -1</clus>
<clus scale="   90.581">  7  8 -1 -1</clus>
<clus scale="   92.731">  5  6 -1 -1</clus>
<clus scale="  166.029">  1  7  2 -1</clus>
<clus scale="   45.472">  1  5  2 -1</clus>
</clustering>
</event>
<event>
 9    1  0.1464797E-005  0.1408864E+03  0.7546771E-02  0.1212441E+00
          1   -1    0    0  502    0 -0.00000000000E+00  0.00000000000E+00  0.14484022725E+03  0.14484022725E+03  0.00000000000E+00 0. -1.
         21   -1    0    0  501  502  0.00000000000E+00 -0.00000000000E+00 -0.16182461962E+03  0.16182461962E+03  0.00000000000E+00 0.  1.
         23    2    1    2    0    0 -0.11244824406E+02 -0.11450011040E+03  0.10092942182E+01  0.14626790941E+03  0.90313682746E+02 0.  0.
         23    2    1    2    0    0 -0.71323539831E+01  0.99222745004E+02 -0.12447809025E+02  0.13586378975E+03  0.91695135183E+02 0.  0.
        -13    1    4    4    0    0  0.14971606854E+02  0.48851296610E+02  0.36048375262E+02  0.62530660890E+02  0.00000000000E+00 0.  1.
         13    1    4    4    0    0 -0.22103960837E+02  0.50371448394E+02 -0.48496184287E+02  0.73333128860E+02  0.00000000000E+00 0. -1.
        -13    1    3    3    0    0  0.18199533740E+02 -0.77384895855E+02 -0.34900889157E+02  0.86820027636E+02  0.00000000000E+00 0.  1.
         13    1    3    3    0    0 -0.29444358146E+02 -0.37115214542E+02  0.35910183375E+02  0.59447881772E+02  0.00000000000E+00 0. -1.
          1    1    1    2  501    0  0.18377178389E+02  0.15277365393E+02 -0.55458775571E+01  0.24533147714E+02  0.00000000000E+00 0. -1.
<scales pt_clust_5="13000.00000" pt_clust_6="13000.00000" pt_clust_7="13000.00000" pt_clust_8="13000.00000" pt_clust_9="23.89809"></scales>
<clustering>
<clus scale="   23.898">  2  9  1 -1</clus>
<clus scale="   90.314">  7  8 -1 -1</clus>
<clus scale="   91.695">  5  6 -1 -1</clus>
<clus scale="  139.991">  1  7  2 -1</clus>
<clus scale="   23.898">  2  5  1 -1</clus>
</clustering>
</event>
<event>
 9    1  0.1464797E-005  0.1135885E+03  0.7546771E-02  0.1255611E+00
         21   -1    0    0  501  502  0.00000000000E+00  0.00000000000E+00  0.22155187488E+03  0.22155187488E+03  0.00000000000E+00 0. -1.
          2   -1    0    0  502    0 -0.00000000000E+00 -0.00000000000E+00 -0.24750710698E+03  0.24750710698E+03  0.00000000000E+00 0. -1.
         23    2    1    2    0    0  0.10124811992E+02 -0.68110399112E+02 -0.13522603425E+03  0.17688832125E+03  0.90894771971E+02 0.  0.
         23    2    1    2    0    0 -0.37592323357E+02  0.59780266216E+02 -0.55618411524E+02  0.12480188191E+03  0.86575048502E+02 0.  0.
        -11    1    3    3    0    0 -0.40234486549E+02 -0.22883110777E+02 -0.57714167842E+02  0.73982267040E+02  0.00000000000E+00 0.  1.
         11    1    3    3    0    0  0.50359298541E+02 -0.45227288335E+02 -0.77511866408E+02  0.10290605421E+03  0.00000000000E+00 0. -1.
        -11    1    4    4    0    0 -0.64197754198E+02  0.28565797590E+02 -0.29706902843E+02  0.76287984064E+02  0.00000000000E+00 0.  1.
         11    1    4    4    0    0  0.26605430842E+02  0.31214468627E+02 -0.25911508681E+02  0.48513897844E+02  0.00000000000E+00 0. -1.
          2    1    1    2  501    0  0.27467511365E+02  0.83301328955E+01  0.16488921368E+03  0.16736877870E+03  0.00000000000E+00 0. -1.
<scales pt_clust_5="13000.00000" pt_clust_6="13000.00000" pt_clust_7="13000.00000" pt_clust_8="13000.00000" pt_clust_9="28.70288"></scales>
<clustering>
<clus scale="   28.703">  1  9  2 -1</clus>
<clus scale="   86.575">  7  8 -1 -1</clus>
<clus scale="   90.895">  5  6 -1 -1</clus>
<clus scale="  110.162">  1  7  2 -1</clus>
<clus scale="   28.703">  1  5  2 -1</clus>
</clustering>
</event>
<event>
 9    1  0.1464797E-005  0.9078980E+02  0.7546771E-02  0.1301733E+00
         21   -1    0    0  501  502  0.00000000000E+00  0.00000000000E+00  0.45526567288E+02  0.45526567288E+02  0.00000000000E+00 0.  1.
          3   -1    0    0  502    0 -0.00000000000E+00 -0.00000000000E+00 -0.26836657287E+03  0.26836657287E+03  0.00000000000E+00 0. -1.
         23    2    1    2    0    0 -0.14541493655E+01 -0.67511261491E+01 -0.86775007258E+02  0.12568849759E+03  0.90664239299E+02 0.  0.
         23    2    1    2    0    0 -0.53229710039E+01 -0.18269900548E+02 -0.63822420729E+02  0.11145198036E+03  0.89365089678E+02 0.  0.
        -11    1    4    4    0    0 -0.35266954780E+02  0.16871825995E+02 -0.49573009165E+02  0.63133983317E+02  0.00000000000E+00 0.  1.
         11    1    4    4    0    0  0.29943983776E+02 -0.35141726543E+02 -0.14249411564E+02  0.48317997048E+02  0.00000000000E+00 0. -1.
        -11    1    3    3    0    0 -0.40009004697E+02 -0.20054803325E+02 -0.23878804854E+02  0.50725860412E+02  0.00000000000E+00 0.  1.
         11    1    3    3    0    0  0.38554855332E+02  0.13303677176E+02 -0.62896202405E+02  0.74962637180E+02  0.00000000000E+00 0. -1.
          3    1    1    2  501    0  0.67771203695E+01  0.25021026697E+02 -0.72242577591E+02  0.76752662198E+02  0.00000000000E+00 0. -1.
<scales pt_clust_5="13000.00000" pt_clust_6="13000.00000" pt_clust_7="13000.00000" pt_clust_8="13000.00000" pt_clust_9="25.92261"></scales>
<clustering>
<clus scale="   25.923">  1  9  2 -1</clus>
<clus scale="   89.365">  5  6 -1 -1</clus>
<clus scale="   89.492">  1  5  2 -1</clus>
<clus scale="   90.664">  7  8 -1 -1</clus>
<clus scale="   25.923">  1  5  2 -1</clus>
</clustering>
</event>
<event>
 9    1  0.1464797E-005  0.9825434E+02  0.7546771E-02  0.1287365E+00
          1   -1    0    0  502    0 -0.00000000000E+00  0.00000000000E+00  0.17451753514E+03  0.17451753514E+03  0.00000000000E+00 0. -1.
         21   -1    0    0  501  502  0.00000000000E+00 -0.00000000000E+00 -0.80701211378E+02  0.80701211378E+02  0.00000000000E+00 0.  1.
         23    2    1    2    0    0  0.30582964007E+01 -0.27772644197E+02  0.93825490052E+02  0.13544801836E+03  0.93606998410E+02 0.  0.
         23    2    1    2    0    0  0.19103360040E+02  0.34316889820E+02 -0.60547901525E+01  0.95885256955E+02  0.87262447397E+02 0.  0.
        -11    1    3    3    0    0 -0.20122963919E+02 -0.25330931143E+00 -0.12165579468E+02  0.23515934306E+02  0.00000000000E+00 0.  1.
         11    1    3    3    0    0  0.23181260319E+02 -0.27519334886E+02  0.10599106952E+03  0.11193208405E+03  0.00000000000E+00 0. -1.
        -11    1    4    4    0    0 -0.20191197766E+02  0.48316763703E+02 -0.12072142503E+02  0.53739471030E+02  0.00000000000E+00 0.  1.
         11    1    4    4    0    0  0.39294557806E+02 -0.13999873883E+02  0.60173523503E+01  0.42145785925E+02  0.00000000000E+00 0. -1.
          1    1    1    2  501    0 -0.22161656441E+02 -0.65442456227E+01  0.60456238674E+01  0.23885471210E+02  0.00000000000E+00 0. -1.
<scales pt_clust_5="13000.00000" pt_clust_6="13000.00000" pt_clust_7="13000.00000" pt_clust_8="13000.00000" pt_clust_9="23.10771"></scales>
<clustering>
<clus scale="   23.108">  2  9  1 -1</clus>
<clus scale="   87.262">  7  8 -1 -1</clus>
<clus scale="   92.230">  2  7  1 -1</clus>
<clus scale="   93.607">  5  6 -1 -1</clus>
<clus scale="   23.108">  2  5  1 -1</clus>
</clustering>
</event>
<event>
 9    1  0.1464797E-005  0.2875981E+03  0.7546771E-02  0.1115693E+00
         -2   -1    0    0    0  501 -0.00000000000E+00  0.00000000000E+00  0.15994024556E+03  0.15994024556E+03  0.00000000000E+00 0.  1.
         21   -1    0    0  501  502  0.00000000000E+00 -0.00000000000E+00 -0.12670329338E+04  0.12670329338E+04  0.00000000000E+00 0.  1.
         23    2    1    2    0    0 -0.12587977647E+03 -0.16908342924E+01  0.44727459648E+01  0.15466338244E+03  0.89733936532E+02 0.  0.
         23    2    1    2    0    0  0.22180475609E+03 -0.23731691222E+03 -0.44797341486E+03  0.56049474177E+03  0.89204867979E+02 0.  0.
        -13    1    4    4    0    0  0.13648895108E+03 -0.15929748258E+03 -0.35409806165E+03  0.41157060024E+03  0.00000000000E+00 0.  1.
         13    1    4    4    0    0  0.85315805009E+02 -0.78019429645E+02 -0.93875353217E+02  0.14892414152E+03  0.00000000000E+00 0. -1.
        -13    1    3    3    0    0 -0.41613745120E+02 -0.40275733941E+02 -0.15296674645E+02  0.59898470620E+02  0.00000000000E+00 0.  1.
         13    1    3    3    0    0 -0.84266031351E+02  0.38584899649E+02  0.19769420610E+02  0.94764911818E+02  0.00000000000E+00 0. -1.
         -2    1    1    2    0  502 -0.95924979617E+02  0.23900774652E+03 -0.66359201938E+03  0.71181505519E+03  0.00000000000E+00 0.  1.
<scales pt_clust_5="13000.00000" pt_clust_6="13000.00000" pt_clust_7="13000.00000" pt_clust_8="13000.00000" pt_clust_9="273.41389"></scales>
<clustering>
<clus scale="   89.205">  5  6 -1 -1</clus>
<clus scale="   89.734">  7  8 -1 -1</clus>
<clus scale="  154.599">  1  7  2 -1</clus>
<clus scale="  273.414">  2  9  1 -1</clus>
<clus scale="  273.414">  2  5  1 -1</clus>
</clustering>
</event>
<event>
 9    1  0.1464797E-005  0.1031306E+03  0.7546771E-02  0.1275161E+00
         21   -1    0    0  501  502  0.00000000000E+00  0.00000000000E+00  0.17598925116E+03  0.17598925116E+03  0.00000000000E+00 0. -1.
         -1   -1    0    0    0  501 -0.00000000000E+00 -0.00000000000E+00 -0.90658195213E+02  0.90658195213E+02  0.00000000000E+00 0.  1.
         23    2    1    2    0    0  0.26410191499E+02  0.41981446873E+02 -0.28666231053E+01  0.10189978332E+03  0.88968579938E+02 0.  0.
         23    2    1    2    0    0 -0.42096822855E+02 -0.20922511332E+02  0.41603490480E+02  0.11126338893E+03  0.91862926808E+02 0.  0.
        -13    1    3    3    0    0  0.19933231492E+02 -0.17814970228E+02 -0.26156884181E+02  0.37401730869E+02  0.00000000000E+00 0.  1.
         13    1    3    3    0    0  0.64769600076E+01  0.59796417101E+02  0.23290261075E+02  0.64498052451E+02  0.00000000000E+00 0. -1.
        -13    1    4    4    0    0  0.27134084092E+02 -0.19724368185E+02  0.18257789440E+02  0.38192356500E+02  0.00000000000E+00 0.  1.
         13    1    4    4    0    0 -0.69230906947E+02 -0.11981431466E+01  0.23345701040E+02  0.73071032433E+02  0.00000000000E+00 0. -1.
         -1    1    1    2    0  502  0.15686631356E+02 -0.21058935541E+02  0.46594188573E+02  0.53484274120E+02  0.00000000000E+00 0.  1.
<scales pt_clust_5="13000.00000" pt_clust_6="13000.00000" pt_clust_7="13000.00000" pt_clust_8="13000.00000" pt_clust_9="26.25927"></scales>
<clustering>
<clus scale="   26.259">  1  9  2 -1</clus>
<clus scale="   88.969">  5  6 -1 -1</clus>
<clus scale="   91.863">  7  8 -1 -1</clus>
<clus scale="  100.561">  2  5  1 -1</clus>
<clus scale="   26.259">  1  5  2 -1</clus>
</clustering>
</event>
<event>
 9    1  0.1464797E-005  0.1339015E+03  0.7546771E-02  0.1222326E+00
          2   -1    0    0  502    0 -0.00000000000E+00  0.00000000000E+00  0.40632642440E+03  0.40632642440E+03  0.00000000000E+00 0.  1.
         21   -1    0    0  501  502  0.00000000000E+00 -0.00000000000E+00 -0.14290076753E+03  0.14290076753E+03  0.00000000000E+00 0. -1.
         23    2    1    2    0    0  0.92620590668E+02  0.36918594806E+02  0.34375822484E+03  0.36928300077E+03  0.90877175627E+02 0.  0.
         23    2    1    2    0    0 -0.70083441140E+02 -0.59987229605E+02 -0.56479990277E+02  0.13983146896E+03  0.88615427389E+02 0.  0.
        -11    1    4    4    0    0  0.39039852068E+01 -0.45163223572E+02 -0.44325127025E+02  0.63400904960E+02  0.00000000000E+00 0. -1.
         11    1    4    4    0    0 -0.73987426347E+02 -0.14824006032E+02 -0.12154863252E+02  0.76430563997E+02  0.00000000000E+00 0.  1.
        -13    1    3    3    0    0  0.12087742731E+01 -0.24654796340E+02  0.64520138594E+02  0.69080883043E+02  0.00000000000E+00 0. -1.
         13    1    3    3    0    0  0.91411816395E+02  0.61573391146E+02  0.27923808625E+03  0.30020211772E+03  0.00000000000E+00 0.  1.
          2    1    1    2  501    0 -0.22537149528E+02  0.23068634799E+02 -0.23852577699E+02  0.40112722212E+02  0.00000000000E+00 0.  1.
<scales pt_clust_5="13000.00000" pt_clust_6="13000.00000" pt_clust_7="13000.00000" pt_clust_8="13000.00000" pt_clust_9="32.25035"></scales>
<clustering>
<clus scale="   32.250">  2  9  1 -1</clus>
<clus scale="   88.615">  5  6 -1 -1</clus>
<clus scale="   90.877">  7  8 -1 -1</clus>
<clus scale="  132.377">  2  5  1 -1</clus>
<clus scale="   32.250">  2  5  1 -1</clus>
</clustering>
</event>
<event>
 9    1  0.1464797E-005  0.1001819E+03  0.7546771E-02  0.1280012E+00
         21   -1    0    0  501  502  0.00000000000E+00  0.00000000000E+00  0.34526059193E+02  0.34526059193E+02  0.00000000000E+00 0. -1.
          1   -1    0    0  502    0 -0.00000000000E+00 -0.00000000000E+00 -0.41531713671E+03  0.41531713671E+03  0.00000000000E+00 0. -1.
         23    2    1    2    0    0 -0.21380366077E+02 -0.25054964906E+02 -0.14893859702E+03  0.17694079329E+03  0.89668652977E+02 0.  0.
         23    2    1    2    0    0  0.20076185858E+02  0.57517360093E+02 -0.15114563211E+03  0.18590180857E+03  0.89460496163E+02 0.  0.
        -11    1    4    4    0    0  0.13019582949E+02  0.81146133635E+02 -0.10264675734E+03  0.13149357907E+03  0.00000000000E+00 0. -1.
         11    1    4    4    0    0  0.70566029081E+01 -0.23628773542E+02 -0.48498874766E+02  0.54408229499E+02  0.00000000000E+00 0.  1.
        -11    1    3    3    0    0 -0.14503995955E+02 -0.55698416512E+02 -0.12445466617E+03  0.13711908486E+03  0.00000000000E+00 0. -1.
         11    1    3    3    0    0 -0.68763701218E+01  0.30643451606E+02 -0.24483930851E+02  0.39821708431E+02  0.00000000000E+00 0.  1.
          1    1    1    2  501    0  0.13041802191E+01 -0.32462395187E+02 -0.80706848381E+02  0.87000594038E+02  0.00000000000E+00 0. -1.
<scales pt_clust_5="13000.00000" pt_clust_6="13000.00000" pt_clust_7="13000.00000" pt_clust_8="13000.00000" pt_clust_9="32.48860"></scales>
<clustering>
<clus scale="   32.489">  1  9  2 -1</clus>
<clus scale="   89.460">  5  6 -1 -1</clus>
<clus scale="   89.669">  7  8 -1 -1</clus>
<clus scale="   99.996">  1  5  2 -1</clus>
<clus scale="   32.489">  1  5  2 -1</clus>
</clustering>
</event>
<event>
 9    1  0.1464797E-005  0.1231712E+03  0.7546771E-02  0.1238407E+00
          2   -1    0    0  502    0 -0.00000000000E+00  0.00000000000E+00  0.18227701225E+03  0.18227701225E+03  0.00000000000E+00 0. -1.
         21   -1    0    0  501  502  0.00000000000E+00 -0.00000000000E+00 -0.11440605399E+03  0.11440605399E+03  0.00000000000E+00 0.  1.
         23    2    1    2    0    0 -0.81265830429E+02  0.50612448303E+02  0.72564748641E+02  0.15084522885E+03  0.91229848201E+02 0.  0.
         23    2    1    2    0    0  0.56807058565E+02 -0.26243937848E+02 -0.13510558311E+02  0.11020370741E+03  0.89702484713E+02 0.  0.
        -11    1    4    4    0    0  0.16357247055E+02  0.16724706538E+02 -0.39352470308E+02  0.45780915886E+02  0.00000000000E+00 0.  1.
         11    1    4    4    0    0  0.40449811509E+02 -0.42968644386E+02  0.25841911998E+02  0.64422791520E+02  0.00000000000E+00 0. -1.
        -13    1    3    3    0    0 -0.16507357056E+02  0.27029873986E+02  0.75489575265E+02  0.81864417780E+02  0.00000000000E+00 0. -1.
         13    1    3    3    0    0 -0.64758473374E+02  0.23582574317E+02 -0.29248266244E+01  0.68980811070E+02  0.00000000000E+00 0.  1.
          2    1    1    2  501    0  0.24458771865E+02 -0.24368510455E+02  0.88167679267E+01  0.35634129982E+02  0.00000000000E+00 0. -1.
<scales pt_clust_5="13000.00000" pt_clust_6="13000.00000" pt_clust_7="13000.00000" pt_clust_8="13000.00000" pt_clust_9="34.52618"></scales>
<clustering>
<clus scale="   34.526">  2  9  1 -1</clus>
<clus scale="   89.702">  5  6 -1 -1</clus>
<clus scale="   91.230">  7  8 -1 -1</clus>
<clus scale="  122.044">  2  5  1 -1</clus>
<clus scale="   34.526">  2  5  1 -1</clus>
</clustering>
</event>
<event>
 9    1  0.3904722E-005  0.1027359E+03  0.7546771E-02  0.1281131E+00
         -4   -1    0    0    0  501 -0.00000000000E+00  0.00000000000E+00  0.20150712078E+03  0.20150712078E+03  0.00000000000E+00 0.  1.
         21   -1    0    0  501  502  0.00000000000E+00 -0.00000000000E+00 -0.26482530228E+03  0.26482530228E+03  0.00000000000E+00 0. -1.
         23    2    1    2    0    0  0.10470420144E+02 -0.78314838139E+01  0.16648036362E+03  0.19550348048E+03  0.10166089501E+03 0.  0.
         23    2    1    2    0    0 -0.46137294968E+02  0.36355634487E+01 -0.20075714226E+03  0.22464307041E+03  0.89550050851E+02 0.  0.
        -13    1    4    4    0    0  0.20495917933E+02 -0.46989554540E+00 -0.11046315625E+03  0.11234950976E+03  0.00000000000E+00 0.  1.
         13    1    4    4    0    0 -0.66633212902E+02  0.41054589941E+01 -0.90293986007E+02  0.11229356065E+03  0.00000000000E+00 0. -1.
        -13    1    3    3    0    0 -0.51708207227E+01  0.41140178252E+02  0.11708421634E+03  0.12420936104E+03  0.00000000000E+00 0. -1.
         13    1    3    3    0    0  0.15641240866E+02 -0.48971662066E+02  0.49396147278E+02  0.71294119444E+02  0.00000000000E+00 0.  1.
         -4    1    1    2    0  502  0.35666874825E+02  0.41959203652E+01 -0.29041402864E+02  0.46185872167E+02  0.00000000000E+00 0.  1.
<scales pt_clust_5="13000.00000" pt_clust_6="13000.00000" pt_clust_7="13000.00000" pt_clust_8="13000.00000" pt_clust_9="35.91283"></scales>
<clustering>
<clus scale="   35.913">  2  9  1 -1</clus>
<clus scale="   89.550">  5  6 -1 -1</clus>
<clus scale="   90.769">  2  5  1 -1</clus>
<clus scale="  101.661">  7  8 -1 -1</clus>
<clus scale="   35.913">  2  5  1 -1</clus>
</clustering>
</event>
<event>
 9    1  0.1464797E-005  0.1846777E+03  0.7546771E-02  0.1163718E+00
          1   -1    0    0  502    0 -0.00000000000E+00  0.00000000000E+00  0.91918408287E+03  0.91918408287E+03  0.00000000000E+00 0. -1.
         21   -1    0    0  501  502  0.00000000000E+00 -0.00000000000E+00 -0.58682589816E+02  0.58682589816E+02  0.00000000000E+00 0.  1.
         23    2    1    2    0    0  0.15809662575E+03  0.49439523756E+01  0.63376044635E+03  0.65912598262E+03  0.88180337204E+02 0.  0.
         23    2    1    2    0    0 -0.16569771746E+03 -0.33914253423E+02  0.20883841267E+03  0.28384714850E+03  0.91377299970E+02 0.  0.
        -13    1    3    3    0    0  0.13652512585E+03  0.24033551920E+02  0.59440200727E+03  0.61035274052E+03  0.00000000000E+00 0. -1.
         13    1    3    3    0    0  0.21571499902E+02 -0.19089599544E+02  0.39358439075E+02  0.48773242102E+02  0.00000000000E+00 0.  1.
        -13    1    4    4    0    0 -0.12326346134E+03 -0.57579156807E+02  0.11485518197E+03  0.17804761449E+03  0.00000000000E+00 0.  1.
         13    1    4    4    0    0 -0.42434256121E+02  0.23664903384E+02  0.93983230698E+02  0.10579953401E+03  0.00000000000E+00 0. -1.
          1    1    1    2  501    0  0.76010917028E+01  0.28970301047E+02  0.17902634046E+02  0.34893541574E+02  0.00000000000E+00 0. -1.
<scales pt_clust_5="13000.00000" pt_clust_6="13000.00000" pt_clust_7="13000.00000" pt_clust_8="13000.00000" pt_clust_9="29.95088"></scales>
<clustering>
<clus scale="   29.951">  2  9  1 -1</clus>
<clus scale="   88.180">  5  6 -1 -1</clus>
<clus scale="   91.377">  7  8 -1 -1</clus>
<clus scale="  183.117">  1  5  2 -1</clus>
<clus scale="   29.951">  2  5  1 -1</clus>
</clustering>
</event>
<event>
 9    1  0.1464797E-005  0.9171168E+02  0.7546771E-02  0.1301492E+00
          1   -1    0    0  502    0 -0.00000000000E+00  0.00000000000E+00  0.18978539832E+03  0.18978539832E+03  0.00000000000E+00 0. -1.
         21   -1    0    0  501  502  0.00000000000E+00 -0.00000000000E+00 -0.13830205141E+03  0.13830205141E+03  0.00000000000E+00 0. -1.
         23    2    1    2    0    0  0.17291075349E+02 -0.70639383660E+01  0.10751614370E+03  0.14179375769E+03  0.90536556437E+02 0.  0.
         23    2    1    2    0    0  0.41720541464E+02  0.37063486635E+02 -0.48381492834E+01  0.10260835432E+03  0.85969535686E+02 0.  0.
        -11    1    3    3    0    0 -0.11555006331E+02  0.25672020251E+02  0.27276922849E+01  0.28284467474E+02  0.00000000000E+00 0.  1.
         11    1    3    3    0    0  0.28846081680E+02 -0.32735958617E+02  0.10478845142E+03  0.11350929022E+03  0.00000000000E+00 0. -1.
        -13    1    4    4    0    0 -0.21382170284E+02  0.15890010987E+02 -0.21223857931E+02  0.34060854374E+02  0.00000000000E+00 0.  1.
         13    1    4    4    0    0  0.63102711747E+02  0.21173475648E+02  0.16385708648E+02  0.68547499945E+02  0.00000000000E+00 0. -1.
          1    1    1    2  501    0 -0.59011616812E+02 -0.29999548269E+02 -0.51194647508E+02  0.83685337716E+02  0.00000000000E+00 0. -1.
<scales pt_clust_5="13000.00000" pt_clust_6="13000.00000" pt_clust_7="13000.00000" pt_clust_8="13000.00000" pt_clust_9="66.19927"></scales>
<clustering>
<clus scale="   66.199">  2  9  1 -1</clus>
<clus scale="   85.970">  7  8 -1 -1</clus>
<clus scale="   87.206">  2  7  1 -1</clus>
<clus scale="   90.537">  5  6 -1 -1</clus>
<clus scale="   66.199">  2  5  1 -1</clus>
</clustering>
</event>
<event>
 9    1  0.1464797E-005  0.9948397E+02  0.7546771E-02  0.1283464E+00
         21   -1    0    0  501  502  0.00000000000E+00  0.00000000000E+00  0.24462413012E+03  0.24462413012E+03  0.00000000000E+00 0. -1.
         -3   -1    0    0    0  501 -0.00000000000E+00 -0.00000000000E+00 -0.97736000046E+02  0.97736000046E+02  0.00000000000E+00 0.  1.
         23    2    1    2    0    0  0.21850656449E+02  0.38679410389E+02 -0.33785141858E+02  0.10708890765E+03  0.91395023699E+02 0.  0.
         23    2    1    2    0    0 -0.25674752357E+01 -0.30014590710E+02  0.54099632511E+02  0.10694427143E+03  0.87194262250E+02 0.  0.
        -13    1    4    4    0    0 -0.22808491276E+02  0.21751943131E+02  0.37394399626E+02  0.48905167699E+02  0.00000000000E+00 0.  1.
         13    1    4    4    0    0  0.20241016040E+02 -0.51766533841E+02  0.16705232884E+02  0.58039103732E+02  0.00000000000E+00 0. -1.
        -13    1    3    3    0    0  0.28593994884E+02 -0.22279912858E+02 -0.27372970247E+02  0.45423458262E+02  0.00000000000E+00 0. -1.
         13    1    3    3    0    0 -0.67433384344E+01  0.60959323247E+02 -0.64121716108E+01  0.61665449392E+02  0.00000000000E+00 0.  1.
         -3    1    1    2    0  502 -0.19283181213E+02 -0.86648196787E+01  0.12657363942E+03  0.12832695108E+03  0.00000000000E+00 0.  1.
<scales pt_clust_5="13000.00000" pt_clust_6="13000.00000" pt_clust_7="13000.00000" pt_clust_8="13000.00000" pt_clust_9="21.14049"></scales>
<clustering>
<clus scale="   21.140">  1  9  2 -1</clus>
<clus scale="   87.194">  5  6 -1 -1</clus>
<clus scale="   91.395">  7  8 -1 -1</clus>
<clus scale="   95.639">  1  5  2 -1</clus>
<clus scale="   21.140">  1  5  2 -1</clus>
</clustering>
</event>
<event>
 9    1  0.1464797E-005  0.9597399E+02  0.7546771E-02  0.1289816E+00
         -1   -1    0    0    0  501 -0.00000000000E+00  0.00000000000E+00  0.13765354367E+03  0.13765354367E+03  0.00000000000E+00 0.  1.
         21   -1    0    0  501  502  0.00000000000E+00 -0.00000000000E+00 -0.16952929191E+03  0.16952929191E+03  0.00000000000E+00 0.  1.
         23    2    1    2    0    0  0.21005898813E+02  0.15134216919E+02  0.40398142614E+02  0.10212648397E+03  0.90152739810E+02 0.  0.
         23    2    1    2    0    0 -0.70352804670E+01 -0.35350766175E+02  0.27516200506E+02  0.10228500650E+03  0.91683746779E+02 0.  0.
        -11    1    4    4    0    0 -0.41038160385E+02 -0.42072005757E+02  0.32671485143E+02  0.67242919461E+02  0.00000000000E+00 0.  1.
         11    1    4    4    0    0  0.34002879918E+02  0.67212395818E+01 -0.51552846371E+01  0.35042087037E+02  0.00000000000E+00 0. -1.
        -13    1    3    3    0    0 -0.20671063781E+02 -0.24977048887E+02  0.15700119647E+01  0.32459371321E+02  0.00000000000E+00 0.  1.
         13    1    3    3    0    0  0.41676962594E+02  0.40111265806E+02  0.38828130649E+02  0.69667112652E+02  0.00000000000E+00 0. -1.
         -1    1    1    2    0  502 -0.13970618346E+02  0.20216549256E+02 -0.99790091361E+02  0.10277134510E+03  0.00000000000E+00 0.  1.
<scales pt_clust_5="13000.00000" pt_clust_6="13000.00000" pt_clust_7="13000.00000" pt_clust_8="13000.00000" pt_clust_9="24.57411"></scales>
<clustering>
<clus scale="   24.574">  2  9  1 -1</clus>
<clus scale="   90.153">  7  8 -1 -1</clus>
<clus scale="   91.684">  5  6 -1 -1</clus>
<clus scale="   94.513">  1  7  2 -1</clus>
<clus scale="   24.574">  2  5  1 -1</clus>
</clustering>
</event>
<event>
 9    1  0.1464797E-005  0.1860100E+03  0.7546771E-02  0.1165175E+00
          1   -1    0    0  502    0 -0.00000000000E+00  0.00000000000E+00  0.10612063015E+04  0.10612063015E+04  0.00000000000E+00 0. -1.
         21   -1    0    0  501  502  0.00000000000E+00 -0.00000000000E+00 -0.45446647546E+02  0.45446647546E+02  0.00000000000E+00 0. -1.
         23    2    1    2    0    0  0.64620116860E+02  0.14234863933E+03  0.64681906517E+03  0.67503521885E+03  0.11339642413E+03 0.  0.
         23    2    1    2    0    0 -0.99877362171E+02 -0.97245802166E+02  0.28357424744E+03  0.32883275317E+03  0.91018636755E+02 0.  0.
        -13    1    3    3    0    0  0.59630566631E+02  0.30865181601E+02  0.37891156794E+03  0.38481481290E+03  0.00000000000E+00 0. -1.
         13    1    3    3    0    0  0.49895502292E+01  0.11148345773E+03  0.26790749723E+03  0.29022040595E+03  0.00000000000E+00 0.  1.
        -13    1    4    4    0    0 -0.57006330415E+02 -0.35389749266E+02  0.22098670751E+03  0.23094865437E+03  0.00000000000E+00 0.  1.
         13    1    4    4    0    0 -0.42871031756E+02 -0.61856052899E+02  0.62587539933E+02  0.97884098805E+02  0.00000000000E+00 0. -1.
          1    1    1    2  501    0  0.35257245311E+02 -0.45102837164E+02  0.85366341397E+02  0.10278497707E+03  0.00000000000E+00 0. -1.
<scales pt_clust_5="13000.00000" pt_clust_6="13000.00000" pt_clust_7="13000.00000" pt_clust_8="13000.00000" pt_clust_9="57.24805"></scales>
<clustering>
<clus scale="   57.248">  2  9  1 -1</clus>
<clus scale="   91.019">  7  8 -1 -1</clus>
<clus scale="  113.396">  5  6 -1 -1</clus>
<clus scale="  173.278">  2  7  1 -1</clus>
<clus scale="   57.248">  2  5  1 -1</clus>
</clustering>
</event>
<event>
 9    1  0.1464797E-005  0.1587524E+03  0.7546771E-02  0.1191130E+00
         -1   -1    0    0    0  501 -0.00000000000E+00  0.00000000000E+00  0.91399668519E+03  0.91399668519E+03  0.00000000000E+00 0.  1.
         21   -1    0    0  501  502  0.00000000000E+00 -0.00000000000E+00 -0.79149731505E+02  0.79149731505E+02  0.00000000000E+00 0.  1.
         23    2    1    2    0    0  0.12299151573E+03 -0.51120502984E+02  0.52752585733E+03  0.55077332075E+03  0.85600829045E+02 0.  0.
         23    2    1    2    0    0 -0.10632150499E+03  0.66374989336E+02  0.35614943903E+03  0.38856979065E+03  0.91837670122E+02 0.  0.
        -13    1    3    3    0    0  0.21992682997E+02 -0.45551987848E+02  0.25754571545E+03  0.26246610686E+03  0.00000000000E+00 0.  1.
         13    1    3    3    0    0  0.10099883273E+03 -0.55685151360E+01  0.26998014189E+03  0.28830721390E+03  0.00000000000E+00 0. -1.
        -13    1    4    4    0    0 -0.89324315721E+02  0.15880890674E+02  0.28868008152E+03  0.30260076922E+03  0.00000000000E+00 0.  1.
         13    1    4    4    0    0 -0.16997189265E+02  0.50494098662E+02  0.67469357509E+02  0.85969021428E+02  0.00000000000E+00 0. -1.
         -1    1    1    2    0  502 -0.16670010739E+02 -0.15254486352E+02 -0.48828342676E+02  0.53803305292E+02  0.00000000000E+00 0.  1.
<scales pt_clust_5="13000.00000" pt_clust_6="13000.00000" pt_clust_7="13000.00000" pt_clust_8="13000.00000" pt_clust_9="22.59621"></scales>
<clustering>
<clus scale="   22.596">  2  9  1 -1</clus>
<clus scale="   85.601">  5  6 -1 -1</clus>
<clus scale="   91.838">  7  8 -1 -1</clus>
<clus scale="  155.228">  1  5  2 -1</clus>
<clus scale="   22.596">  2  5  1 -1</clus>
</clustering>
</event>
<event>
 9    1  0.1464797E-005  0.1338536E+03  0.7546771E-02  0.1221848E+00
         -1   -1    0    0    0  501 -0.00000000000E+00  0.00000000000E+00  0.13240913803E+03  0.13240913803E+03  0.00000000000E+00 0.  1.
         21   -1    0    0  501  502  0.00000000000E+00 -0.00000000000E+00 -0.39337581914E+03  0.39337581914E+03  0.00000000000E+00 0.  1.
         23    2    1    2    0    0  0.81888185331E+02 -0.47738668723E+02  0.69699914536E+02  0.14889744273E+03  0.91256314725E+02 0.  0.
         23    2    1    2    0    0 -0.10179967124E+03  0.60274054382E+02 -0.23584384211E+03  0.27918921480E+03  0.91258780959E+02 0.  0.
        -11    1    4    4    0    0 -0.97197503379E+02  0.25744453553E+02 -0.21795335207E+03  0.24002873834E+03  0.00000000000E+00 0.  1.
         11    1    4    4    0    0 -0.46021678604E+01  0.34529600829E+02 -0.17890490043E+02  0.39160476458E+02  0.00000000000E+00 0. -1.
        -13    1    3    3    0    0  0.28359347268E+02  0.20104099703E+02  0.48925919160E+02  0.60018105335E+02  0.00000000000E+00 0.  1.
         13    1    3    3    0    0  0.53528838063E+02 -0.67842768426E+02  0.20773995376E+02  0.88879337396E+02  0.00000000000E+00 0. -1.
         -1    1    1    2    0  502  0.19911485909E+02 -0.12535385659E+02 -0.94822753536E+02  0.97698299642E+02  0.00000000000E+00 0.  1.
<scales pt_clust_5="13000.00000" pt_clust_6="13000.00000" pt_clust_7="13000.00000" pt_clust_8="13000.00000" pt_clust_9="23.52877"></scales>
<clustering>
<clus scale="   23.529">  2  9  1 -1</clus>
<clus scale="   91.256">  7  8 -1 -1</clus>
<clus scale="   91.259">  5  6 -1 -1</clus>
<clus scale="  133.852">  1  7  2 -1</clus>
<clus scale="   23.529">  2  5  1 -1</clus>
</clustering>
</event>
<event>
 9    1  0.1464797E-005  0.1836236E+03  0.7546771E-02  0.1164658E+00
         21   -1    0    0  501  502  0.00000000000E+00  0.00000000000E+00  0.72257993351E+02  0.72257993351E+02  0.00000000000E+00 0. -1.
          1   -1    0    0  502    0 -0.00000000000E+00 -0.00000000000E+00 -0.85121510791E+03  0.85121510791E+03  0.00000000000E+00 0. -1.
         23    2    1    2    0    0 -0.81255501465E+01  0.14701959726E+03 -0.53102225887E+03  0.55879705899E+03  0.92675386040E+02 0.  0.
         23    2    1    2    0    0 -0.18874827460E+01 -0.19691189705E+03 -0.20282489611E+03  0.29667302131E+03  0.89994918172E+02 0.  0.
        -11    1    3    3    0    0 -0.40635990950E+02  0.28075619789E+02 -0.12288248863E+03  0.13243726892E+03  0.00000000000E+00 0. -1.
         11    1    3    3    0    0  0.32510440803E+02  0.11894397747E+03 -0.40813977024E+03  0.42635979007E+03  0.00000000000E+00 0.  1.
        -13    1    4    4    0    0  0.20828871528E+02 -0.18692391335E+03 -0.15887981239E+03  0.24620557682E+03  0.00000000000E+00 0. -1.
         13    1    4    4    0    0 -0.22716354274E+02 -0.99879837030E+01 -0.43945083723E+02  0.50467444490E+02  0.00000000000E+00 0.  1.
          1    1    1    2  501    0  0.10013032892E+02  0.49892299797E+02 -0.45109959575E+02  0.68003020959E+02  0.00000000000E+00 0. -1.
<scales pt_clust_5="13000.00000" pt_clust_6="13000.00000" pt_clust_7="13000.00000" pt_clust_8="13000.00000" pt_clust_9="50.88715"></scales>
<clustering>
<clus scale="   50.887">  1  9  2 -1</clus>
<clus scale="   89.995">  7  8 -1 -1</clus>
<clus scale="   92.675">  5  6 -1 -1</clus>
<clus scale="  182.285">  1  7  2 -1</clus>
<clus scale="   50.887">  1  5  2 -1</clus>
</clustering>
</event>
<event>
 9    1  0.1464797E-005  0.1004260E+03  0.7546771E-02  0.1279673E+00
         21   -1    0    0  501  502  0.00000000000E+00  0.00000000000E+00  0.46034382182E+03  0.46034382182E+03  0.00000000000E+00 0.  1.
         -3   -1    0    0    0  501 -0.00000000000E+00 -0.00000000000E+00 -0.75525971622E+02  0.75525971622E+02  0.00000000000E+00 0.  1.
         23    2    1    2    0    0  0.26054678943E+01 -0.10292728597E+02  0.45578177309E+02  0.10228471350E+03  0.90950885894E+02 0.  0.
         23    2    1    2    0    0  0.49711843736E+02  0.73146394649E+02  0.55145308167E+02  0.13795474912E+03  0.90381664813E+02 0.  0.
        -13    1    3    3    0    0  0.77906001530E+01 -0.33503202794E+02  0.63693926686E+02  0.72388357799E+02  0.00000000000E+00 0. -1.
         13    1    3    3    0    0 -0.51851322587E+01  0.23210474197E+02 -0.18115749377E+02  0.29896355705E+02  0.00000000000E+00 0.  1.
        -13    1    4    4    0    0  0.15815646225E+02 -0.19180892926E+02 -0.66705152557E+00  0.24869384325E+02  0.00000000000E+00 0. -1.
         13    1    4    4    0    0  0.33896197511E+02  0.92327287574E+02  0.55812359692E+02  0.11308536480E+03  0.00000000000E+00 0.  1.
         -3    1    1    2    0  502 -0.52317311631E+02 -0.62853666051E+02  0.28409436473E+03  0.29563033082E+03  0.00000000000E+00 0.  1.
<scales pt_clust_5="13000.00000" pt_clust_6="13000.00000" pt_clust_7="13000.00000" pt_clust_8="13000.00000" pt_clust_9="81.77826"></scales>
<clustering>
<clus scale="   81.778">  1  9  2 -1</clus>
<clus scale="   90.382">  7  8 -1 -1</clus>
<clus scale="   90.951">  5  6 -1 -1</clus>
<clus scale="   99.911">  1  7  2 -1</clus>
<clus scale="   81.778">  1  5  2 -1</clus>
</clustering>
</event>
<event>
 9    1  0.1464797E-005  0.1132519E+03  0.7546771E-02  0.1255832E+00
         21   -1    0    0  501  502  0.00000000000E+00  0.00000000000E+00  0.33957797972E+03  0.33957797972E+03  0.00000000000E+00 0.  1.
          4   -1    0    0  502    0 -0.00000000000E+00 -0.00000000000E+00 -0.82709019331E+02  0.82709019331E+02  0.00000000000E+00 0. -1.
         23    2    1    2    0    0  0.30177244196E+00 -0.69008344980E+02 -0.79126985826E+01  0.11687987020E+03  0.94000268694E+02 0.  0.
         23    2    1    2    0    0  0.56646435761E+01  0.48517386941E+02  0.11654989297E+03  0.15564687400E+03  0.90862791138E+02 0.  0.
        -11    1    4    4    0    0  0.19451429742E+02  0.65684372532E+02  0.11463772482E+03  0.13354625740E+03  0.00000000000E+00 0.  1.
         11    1    4    4    0    0 -0.13786786166E+02 -0.17166985591E+02  0.19121681463E+01  0.22100616600E+02  0.00000000000E+00 0. -1.
        -13    1    3    3    0    0 -0.39844262759E+02 -0.23450354498E+02 -0.26609901094E+02  0.53343895969E+02  0.00000000000E+00 0. -1.
         13    1    3    3    0    0  0.40146035201E+02 -0.45557990482E+02  0.18697202511E+02  0.63535974226E+02  0.00000000000E+00 0.  1.
          4    1    1    2  501    0 -0.59664160181E+01  0.20490958039E+02  0.14823176600E+03  0.14976025485E+03  0.00000000000E+00 0. -1.
<scales pt_clust_5="13000.00000" pt_clust_6="13000.00000" pt_clust_7="13000.00000" pt_clust_8="13000.00000" pt_clust_9="21.34192"></scales>
<clustering>
<clus scale="   21.342">  1  9  2 -1</clus>
<clus scale="   90.863">  5  6 -1 -1</clus>
<clus scale="   94.000">  7  8 -1 -1</clus>
<clus scale="  110.662">  1  5  2 -1</clus>
<clus scale="   21.342">  1  5  2 -1</clus>
</clustering>
</event>
<event>
 9    1  0.1464797E-005  0.1143468E+03  0.7546771E-02  0.1258290E+00
          1   -1    0    0  502    0 -0.00000000000E+00  0.00000000000E+00  0.64434323333E+02  0.64434323333E+02  0.00000000000E+00 0. -1.
         21   -1    0    0  501  502  0.00000000000E+00 -0.00000000000E+00 -0.42028504130E+03  0.42028504130E+03  0.00000000000E+00 0. -1.
         23    2    1    2    0    0 -0.37830499170E+02 -0.36702844339E+02 -0.10655598764E+02  0.11733239358E+03  0.10428376359E+03 0.  0.
         23    2    1    2    0    0  0.14746742058E+02  0.21358183363E+02 -0.22634150037E+03  0.24534394105E+03  0.91046890225E+02 0.  0.
        -11    1    3    3    0    0 -0.16335578282E+01  0.35484407234E+02  0.20679156194E+01  0.35582129544E+02  0.00000000000E+00 0.  1.
         11    1    3    3    0    0 -0.36196941342E+02 -0.72187251573E+02 -0.12723514383E+02  0.81750264039E+02  0.00000000000E+00 0. -1.
        -11    1    4    4    0    0  0.21573477502E+02 -0.28392346084E+02 -0.14841561686E+03  0.15263923341E+03  0.00000000000E+00 0. -1.
         11    1    4    4    0    0 -0.68267354436E+01  0.49750529447E+02 -0.77925883513E+02  0.92704707639E+02  0.00000000000E+00 0.  1.
          1    1    1    2  501    0  0.23083757112E+02  0.15344660976E+02 -0.11885361883E+03  0.12204303000E+03  0.00000000000E+00 0. -1.
<scales pt_clust_5="13000.00000" pt_clust_6="13000.00000" pt_clust_7="13000.00000" pt_clust_8="13000.00000" pt_clust_9="27.71856"></scales>
<clustering>
<clus scale="   27.719">  2  9  1 -1</clus>
<clus scale="   91.047">  7  8 -1 -1</clus>
<clus scale="  102.419">  2  7  1 -1</clus>
<clus scale="  104.284">  5  6 -1 -1</clus>
<clus scale="   27.719">  2  5  1 -1</clus>
</clustering>
</event>
<event>
 9    1  0.1561493E-005  0.1016751E+03  0.7546771E-02  0.1278561E+00
          3   -1    0    0  502    0 -0.00000000000E+00  0.00000000000E+00  0.16243188723E+03  0.16243188723E+03  0.00000000000E+00 0. -1.
         21   -1    0    0  501  502  0.00000000000E+00 -0.00000000000E+00 -0.37878942535E+03  0.37878942535E+03  0.00000000000E+00 0. -1.
         23    2    1    2    0    0 -0.38465766229E+02 -0.20469318500E+02  0.12465811721E+03  0.16149803864E+03  0.92969683919E+02 0.  0.
         23    2    1    2    0    0 -0.63678664258E+01  0.48448180509E+02 -0.14819384506E+03  0.17979048061E+03  0.89305236602E+02 0.  0.
        -11    1    3    3    0    0 -0.69191649984E+02 -0.19511156042E+02  0.85150233595E+02  0.11143936431E+03  0.00000000000E+00 0. -1.
         11    1    3    3    0    0  0.30725883755E+02 -0.95816245832E+00  0.39507883615E+02  0.50058674329E+02  0.00000000000E+00 0.  1.
        -13    1    4    4    0    0  0.48962679673E+01 -0.25903168305E+02 -0.33240015187E+02  0.42424594021E+02  0.00000000000E+00 0.  1.
         13    1    4    4    0    0 -0.11264134393E+02  0.74351348814E+02 -0.11495382988E+03  0.13736588659E+03  0.00000000000E+00 0. -1.
          3    1    1    2  501    0  0.44833632655E+02 -0.27978862009E+02 -0.19282181027E+03  0.19993279334E+03  0.00000000000E+00 0. -1.
<scales pt_clust_5="13000.00000" pt_clust_6="13000.00000" pt_clust_7="13000.00000" pt_clust_8="13000.00000" pt_clust_9="52.84762"></scales>
<clustering>
<clus scale="   52.848">  2  9  1 -1</clus>
<clus scale="   89.305">  7  8 -1 -1</clus>
<clus scale="   92.970">  5  6 -1 -1</clus>
<clus scale="   98.336">  2  7  1 -1</clus>
<clus scale="   52.848">  2  5  1 -1</clus>
</clustering>
</event>
<event>
 9    1  0.1464797E-005  0.9280808E+02  0.7546771E-02  0.1297620E+00
         -1   -1    0    0    0  501 -0.00000000000E+00  0.00000000000E+00  0.62295278665E+03  0.62295278665E+03  0.00000000000E+00 0.  1.
         21   -1    0    0  501  502  0.00000000000E+00 -0.00000000000E+00 -0.36644062260E+02  0.36644062260E+02  0.00000000000E+00 0.  1.
         23    2    1    2    0    0 -0.14041741295E+02  0.29497521680E+01  0.48485387297E+03  0.49356151574E+03  0.91180152197E+02 0.  0.
         23    2    1    2    0    0  0.31231598301E+02  0.15720008108E+02  0.10331136531E+03  0.14058935555E+03  0.88710750782E+02 0.  0.
        -11    1    3    3    0    0 -0.51529247941E+02 -0.99273181837E+01  0.26049614251E+03  0.26572928951E+03  0.00000000000E+00 0. -1.
         11    1    3    3    0    0  0.37487506646E+02  0.12877070352E+02  0.22435773046E+03  0.22783222624E+03  0.00000000000E+00 0.  1.
        -11    1    4    4    0    0  0.45247526867E+02  0.42371082720E+02  0.85489290179E+02  0.10559860829E+03  0.00000000000E+00 0.  1.
         11    1    4    4    0    0 -0.14015928567E+02 -0.26651074612E+02  0.17822075136E+02  0.34990747259E+02  0.00000000000E+00 0. -1.
         -1    1    1    2    0  502 -0.17189857005E+02 -0.18669760276E+02 -0.18565138958E+01  0.25445977609E+02  0.00000000000E+00 0.  1.
<scales pt_clust_5="13000.00000" pt_clust_6="13000.00000" pt_clust_7="13000.00000" pt_clust_8="13000.00000" pt_clust_9="25.37816"></scales>
<clustering>
<clus scale="   25.378">  2  9  1 -1</clus>
<clus scale="   88.711">  7  8 -1 -1</clus>
<clus scale="   90.383">  2  7  1 -1</clus>
<clus scale="   91.180">  5  6 -1 -1</clus>
<clus scale="   25.378">  2  5  1 -1</clus>
</clustering>
</event>
<event>
 9    1  0.1464797E-005  0.1110838E+03  0.7546771E-02  0.1260621E+00
         21   -1    0    0  501  502  0.00000000000E+00  0.00000000000E+00  0.57722443818E+02  0.57722443818E+02  0.00000000000E+00 0. -1.
          1   -1    0    0  502    0 -0.00000000000E+00 -0.00000000000E+00 -0.60734958604E+03  0.60734958604E+03  0.00000000000E+00 0. -1.
         23    2    1    2    0    0  0.23154472011E+02  0.65707357435E+02 -0.45716509714E+03  0.47042471195E+03  0.86289612244E+02 0.  0.
         23    2    1    2    0    0 -0.54628067621E+02 -0.10370854206E+02 -0.64583785496E+02  0.12514974120E+03  0.91649397077E+02 0.  0.
        -11    1    4    4    0    0 -0.51776321141E+02  0.33460669308E+02 -0.48258814757E+02  0.78289954804E+02  0.00000000000E+00 0. -1.
         11    1    4    4    0    0 -0.28517464797E+01 -0.43831523514E+02 -0.16324970739E+02  0.46859786397E+02  0.00000000000E+00 0.  1.
        -13    1    3    3    0    0 -0.12515929508E+02 -0.16487504369E+02 -0.10651768960E+03  0.10851038885E+03  0.00000000000E+00 0.  1.
         13    1    3    3    0    0  0.35670401519E+02  0.82194861804E+02 -0.35064740754E+03  0.36191432310E+03  0.00000000000E+00 0. -1.
          1    1    1    2  501    0  0.31473595610E+02 -0.55336503229E+02 -0.27878259594E+02  0.69497576708E+02  0.00000000000E+00 0. -1.
<scales pt_clust_5="13000.00000" pt_clust_6="13000.00000" pt_clust_7="13000.00000" pt_clust_8="13000.00000" pt_clust_9="63.66094"></scales>
<clustering>
<clus scale="   63.661">  1  9  2 -1</clus>
<clus scale="   86.290">  7  8 -1 -1</clus>
<clus scale="   91.649">  5  6 -1 -1</clus>
<clus scale="  106.705">  2  7  1 -1</clus>
<clus scale="   63.661">  1  5  2 -1</clus>
</clustering>
</event>
<event>
 9    1  0.1464797E-005  0.9311606E+02  0.7546771E-02  0.1296500E+00
         21   -1    0    0  501  502  0.00000000000E+00  0.00000000000E+00  0.11477070535E+03  0.11477070535E+03  0.00000000000E+00 0.  1.
          4   -1    0    0  502    0 -0.00000000000E+00 -0.00000000000E+00 -0.11514861423E+03  0.11514861423E+03  0.00000000000E+00 0. -1.
         23    2    1    2    0    0 -0.16994961454E+02  0.59356592843E+01 -0.36979306826E+02  0.99409850175E+02  0.90502974606E+02 0.  0.
         23    2    1    2    0    0 -0.66301649777E+01 -0.15403861327E+02  0.11025979620E+02  0.94427680762E+02  0.92270128623E+02 0.  0.
        -11    1    3    3    0    0 -0.14372190351E+02 -0.22360494317E+02  0.21633231079E+02  0.34271682896E+02  0.00000000000E+00 0.  1.
         11    1    3    3    0    0 -0.26227711036E+01  0.28296153601E+02 -0.58612537905E+02  0.65138167280E+02  0.00000000000E+00 0. -1.
        -13    1    4    4    0    0  0.74222963190E+01 -0.48429561984E+02  0.26084064977E+02  0.55505778098E+02  0.00000000000E+00 0. -1.
         13    1    4    4    0    0 -0.14052461297E+02  0.33025700656E+02 -0.15058085357E+02  0.38921902664E+02  0.00000000000E+00 0.  1.
          4    1    1    2  501    0  0.23625126432E+02  0.94682020429E+01  0.25575418329E+02  0.36081788641E+02  0.00000000000E+00 0. -1.
<scales pt_clust_5="13000.00000" pt_clust_6="13000.00000" pt_clust_7="13000.00000" pt_clust_8="13000.00000" pt_clust_9="25.45179"></scales>
<clustering>
<clus scale="   25.452">  1  9  2 -1</clus>
<clus scale="   90.503">  5  6 -1 -1</clus>
<clus scale="   91.365">  2  5  1 -1</clus>
<clus scale="   92.270">  7  8 -1 -1</clus>
<clus scale="   25.452">  1  5  2 -1</clus>
</clustering>
</event>
<event>
 9    1  0.1464797E-005  0.1313173E+03  0.7546771E-02  0.1225893E+00
         -3   -1    0    0    0  501 -0.00000000000E+00  0.00000000000E+00  0.37557404226E+03  0.37557404226E+03  0.00000000000E+00 0.  1.
         21   -1    0    0  501  502  0.00000000000E+00 -0.00000000000E+00 -0.37441383943E+03  0.37441383943E+03  0.00000000000E+00 0. -1.
         23    2    1    2    0    0 -0.58474206040E+02 -0.68574222335E+02  0.31915854094E+03  0.34462070278E+03  0.93699507954E+02 0.  0.
         23    2    1    2    0    0  0.42691811341E+02  0.10976411555E+03 -0.93147569080E+02  0.17623062657E+03  0.92249727897E+02 0.  0.
        -11    1    3    3    0    0 -0.43436592654E+02 -0.12677610981E+02  0.25168668197E+03  0.25572181229E+03  0.00000000000E+00 0. -1.
         11    1    3    3    0    0 -0.15037613386E+02 -0.55896611354E+02  0.67471858966E+02  0.88898890485E+02  0.00000000000E+00 0.  1.
        -11    1    4    4    0    0  0.53794619405E+02  0.60885426211E+02 -0.13847521421E+02  0.82417534854E+02  0.00000000000E+00 0.  1.
         11    1    4    4    0    0 -0.11102808064E+02  0.48878689336E+02 -0.79300047658E+02  0.93813091713E+02  0.00000000000E+00 0. -1.
         -3    1    1    2    0  502  0.15782394700E+02 -0.41189893212E+02 -0.22485076903E+03  0.22913655234E+03  0.00000000000E+00 0.  1.
<scales pt_clust_5="13000.00000" pt_clust_6="13000.00000" pt_clust_7="13000.00000" pt_clust_8="13000.00000" pt_clust_9="44.10999"></scales>
<clustering>
<clus scale="   44.110">  2  9  1 -1</clus>
<clus scale="   92.250">  7  8 -1 -1</clus>
<clus scale="   93.700">  5  6 -1 -1</clus>
<clus scale="  130.287">  2  7  1 -1</clus>
<clus scale="   44.110">  2  5  1 -1</clus>
</clustering>
</event>
<event>
 9    1  0.1464797E-005  0.1004041E+03  0.7546771E-02  0.1284842E+00
         21   -1    0    0  501  502  0.00000000000E+00  0.00000000000E+00  0.20477095333E+02  0.20477095333E+02  0.00000000000E+00 0. -1.
          3   -1    0    0  502    0 -0.00000000000E+00 -0.00000000000E+00 -0.75511386599E+03  0.75511386599E+03  0.00000000000E+00 0. -1.
         23    2    1    2    0    0  0.21522615742E+02 -0.47555730383E+02 -0.41505372529E+03  0.42833507688E+03  0.92068304711E+02 0.  0.
         23    2    1    2    0    0 -0.34623571463E+02  0.32465242450E+01 -0.18712302464E+03  0.20696833018E+03  0.81311325936E+02 0.  0.
        -11    1    3    3    0    0  0.53252474682E+02 -0.43237733762E+02 -0.33803418910E+03  0.34492381867E+03  0.00000000000E+00 0.  1.
         11    1    3    3    0    0 -0.31729858940E+02 -0.43179966206E+01 -0.77019536185E+02  0.83411258217E+02  0.00000000000E+00 0. -1.
        -13    1    4    4    0    0 -0.45892042742E+02 -0.16715427134E+02 -0.17363088918E+03  0.18036953947E+03  0.00000000000E+00 0.  1.
         13    1    4    4    0    0  0.11268471279E+02  0.19961951379E+02 -0.13492135460E+02  0.26598790707E+02  0.00000000000E+00 0. -1.
          3    1    1    2  501    0  0.13100955722E+02  0.44309206138E+02 -0.13246002073E+03  0.14028755427E+03  0.00000000000E+00 0. -1.
<scales pt_clust_5="13000.00000" pt_clust_6="13000.00000" pt_clust_7="13000.00000" pt_clust_8="13000.00000" pt_clust_9="46.20542"></scales>
<clustering>
<clus scale="   46.205">  1  9  2 -1</clus>
<clus scale="   81.311">  7  8 -1 -1</clus>
<clus scale="   90.642">  1  7  2 -1</clus>
<clus scale="   92.068">  5  6 -1 -1</clus>
<clus scale="   46.205">  1  5  2 -1</clus>
</clustering>
</event>
<event>
 9    1  0.1464797E-005  0.9462947E+02  0.7546771E-02  0.1295039E+00
          1   -1    0    0  502    0 -0.00000000000E+00  0.00000000000E+00  0.50478804463E+02  0.50478804463E+02  0.00000000000E+00 0. -1.
         21   -1    0    0  501  502  0.00000000000E+00 -0.00000000000E+00 -0.32444903418E+03  0.32444903418E+03  0.00000000000E+00 0.  1.
         23    2    1    2    0    0 -0.16725228543E+02  0.21626385652E+02 -0.54072243970E+02  0.11201582673E+03  0.94214139296E+02 0.  0.
         23    2    1    2    0    0 -0.83521464284E+01  0.16360303620E+02 -0.10243298655E+03  0.13693626292E+03  0.89003401540E+02 0.  0.
        -11    1    4    4    0    0 -0.31166111721E+02 -0.23675734506E+02 -0.23832263147E+02  0.45824051446E+02  0.00000000000E+00 0. -1.
         11    1    4    4    0    0  0.22813965293E+02  0.40036038125E+02 -0.78600723400E+02  0.91112211477E+02  0.00000000000E+00 0.  1.
        -13    1    3    3    0    0  0.28138959399E+02  0.37168161843E+02 -0.42642506469E+02  0.63179558789E+02  0.00000000000E+00 0.  1.
         13    1    3    3    0    0 -0.44864187941E+02 -0.15541776191E+02 -0.11429737502E+02  0.48836267939E+02  0.00000000000E+00 0. -1.
          1    1    1    2  501    0  0.25077374971E+02 -0.37986689272E+02 -0.11746499920E+03  0.12597574899E+03  0.00000000000E+00 0. -1.
<scales pt_clust_5="13000.00000" pt_clust_6="13000.00000" pt_clust_7="13000.00000" pt_clust_8="13000.00000" pt_clust_9="45.51773"></scales>
<clustering>
<clus scale="   45.518">  2  9  1 -1</clus>
<clus scale="   89.003">  5  6 -1 -1</clus>
<clus scale="   89.443">  2  5  1 -1</clus>
<clus scale="   94.214">  7  8 -1 -1</clus>
<clus scale="   45.518">  2  5  1 -1</clus>
</clustering>
</event>
<event>
 9    1  0.1464797E-005  0.1092863E+03  0.7546771E-02  0.1264247E+00
         21   -1    0    0  501  502  0.00000000000E+00  0.00000000000E+00  0.32521806262E+03  0.32521806262E+03  0.00000000000E+00 0. -1.
         -3   -1    0    0    0  501 -0.00000000000E+00 -0.00000000000E+00 -0.13788077886E+03  0.13788077886E+03  0.00000000000E+00 0.  1.
         23    2    1    2    0    0  0.15214710485E+02  0.42545243208E+02 -0.66917730207E+02  0.12358269573E+03  0.93558083200E+02 0.  0.
         23    2    1    2    0    0  0.36092500669E+01 -0.61792509012E+02  0.27931394338E+03  0.30273641390E+03  0.99003618515E+02 0.  0.
        -11    1    4    4    0    0  0.30433240307E+02 -0.33789547550E+02  0.25006175863E+03  0.25416293744E+03  0.00000000000E+00 0. -1.
         11    1    4    4    0    0 -0.26823990240E+02 -0.28002961461E+02  0.29252184755E+02  0.48573476465E+02  0.00000000000E+00 0.  1.
        -11    1    3    3    0    0  0.22554700594E+02  0.71000013570E+02 -0.48927106230E+02  0.89126753390E+02  0.00000000000E+00 0.  1.
         11    1    3    3    0    0 -0.73399901096E+01 -0.28454770362E+02 -0.17990623977E+02  0.34455942336E+02  0.00000000000E+00 0. -1.
         -3    1    1    2    0  502 -0.18823960552E+02  0.19247265803E+02 -0.25058929413E+02  0.36779731852E+02  0.00000000000E+00 0.  1.
<scales pt_clust_5="13000.00000" pt_clust_6="13000.00000" pt_clust_7="13000.00000" pt_clust_8="13000.00000" pt_clust_9="26.92210"></scales>
<clustering>
<clus scale="   26.922">  1  9  2 -1</clus>
<clus scale="   93.558">  7  8 -1 -1</clus>
<clus scale="   99.004">  5  6 -1 -1</clus>
<clus scale="  104.379">  2  7  1 -1</clus>
<clus scale="   26.922">  1  5  2 -1</clus>
</clustering>
</event>
<event>
 9    1  0.1464797E-005  0.1180672E+03  0.7546771E-02  0.1246661E+00
          1   -1    0    0  502    0 -0.00000000000E+00  0.00000000000E+00  0.72517607307E+03  0.72517607307E+03  0.00000000000E+00 0. -1.
         21   -1    0    0  501  502  0.00000000000E+00 -0.00000000000E+00 -0.32381111776E+02  0.32381111776E+02  0.00000000000E+00 0.  1.
         23    2    1    2    0    0  0.76461564151E+02 -0.28363503890E+02  0.46806541675E+03  0.48375658885E+03  0.91018370448E+02 0.  0.
         23    2    1    2    0    0 -0.59103571570E+02  0.17467262922E+02  0.22757843663E+03  0.25310895131E+03  0.92053565745E+02 0.  0.
        -11    1    3    3    0    0 -0.65141884715E+01  0.21310875552E+02  0.51531515559E+02  0.56143433846E+02  0.00000000000E+00 0.  1.
         11    1    3    3    0    0  0.82975752623E+02 -0.49674379442E+02  0.41653390119E+03  0.42761315501E+03  0.00000000000E+00 0. -1.
        -13    1    4    4    0    0 -0.57944206036E+02 -0.27457526273E+02  0.15506178746E+03  0.16779631907E+03  0.00000000000E+00 0.  1.
         13    1    4    4    0    0 -0.11593655335E+01  0.44924789195E+02  0.72516649164E+02  0.85312632234E+02  0.00000000000E+00 0. -1.
          1    1    1    2  501    0 -0.17357992581E+02  0.10896240968E+02 -0.28488920829E+01  0.20691644686E+02  0.00000000000E+00 0. -1.
<scales pt_clust_5="13000.00000" pt_clust_6="13000.00000" pt_clust_7="13000.00000" pt_clust_8="13000.00000" pt_clust_9="20.49458"></scales>
<clustering>
<clus scale="   20.495">  2  9  1 -1</clus>
<clus scale="   91.018">  5  6 -1 -1</clus>
<clus scale="   92.054">  7  8 -1 -1</clus>
<clus scale="  117.262">  1  5  2 -1</clus>
<clus scale="   20.495">  2  5  1 -1</clus>
</clustering>
</event>
<event>
 9    1  0.1464797E-005  0.9808057E+02  0.7546771E-02  0.1284653E+00
         -2   -1    0    0    0  501 -0.00000000000E+00  0.00000000000E+00  0.20268599827E+03  0.20268599827E+03  0.00000000000E+00 0.  1.
         21   -1    0    0  501  502  0.00000000000E+00 -0.00000000000E+00 -0.12076433875E+03  0.12076433875E+03  0.00000000000E+00 0. -1.
         23    2    1    2    0    0 -0.13847159584E+02 -0.37152556194E+02  0.13861753615E+03  0.17068099306E+03  0.91351649152E+02 0.  0.
         23    2    1    2    0    0 -0.22734702306E+02  0.27890781921E+02 -0.19170120289E+02  0.99550968645E+02  0.90819268006E+02 0.  0.
        -11    1    4    4    0    0 -0.28042104263E+02 -0.19392685846E+02 -0.35524385262E+02  0.49238377553E+02  0.00000000000E+00 0. -1.
         11    1    4    4    0    0  0.53074019574E+01  0.47283467767E+02  0.16354264972E+02  0.50312591092E+02  0.00000000000E+00 0.  1.
        -13    1    3    3    0    0 -0.48280066393E+02 -0.11632306466E+02  0.42211712611E+02  0.65177481128E+02  0.00000000000E+00 0.  1.
         13    1    3    3    0    0  0.34432906809E+02 -0.25520249728E+02  0.96405823537E+02  0.10550351193E+03  0.00000000000E+00 0. -1.
         -2    1    1    2    0  502  0.36581861890E+02  0.92617742725E+01 -0.37525756341E+02  0.53218375313E+02  0.00000000000E+00 0.  1.
<scales pt_clust_5="13000.00000" pt_clust_6="13000.00000" pt_clust_7="13000.00000" pt_clust_8="13000.00000" pt_clust_9="37.73610"></scales>
<clustering>
<clus scale="   37.736">  2  9  1 -1</clus>
<clus scale="   90.819">  5  6 -1 -1</clus>
<clus scale="   91.352">  7  8 -1 -1</clus>
<clus scale="   97.585">  2  5  1 -1</clus>
<clus scale="   37.736">  2  5  1 -1</clus>
</clustering>
</event>
<event>
 9    1  0.1464797E-005  0.1229659E+03  0.7546771E-02  0.1253528E+00
         21   -1    0    0  501  502  0.00000000000E+00  0.00000000000E+00  0.40898250275E+03  0.40898250275E+03  0.00000000000E+00 0. -1.
          2   -1    0    0  502    0 -0.00000000000E+00 -0.00000000000E+00 -0.16406977749E+03  0.16406977749E+03  0.00000000000E+00 0. -1.
         23    2    1    2    0    0  0.17719940402E+02  0.47906401100E+02 -0.12140300051E+03  0.15141921574E+03  0.74699871536E+02 0.  0.
         23    2    1    2    0    0 -0.19787973868E+02  0.46627280784E+02  0.14044968753E+03  0.17677318416E+03  0.94641305387E+02 0.  0.
        -11    1    3    3    0    0  0.45796319655E+02  0.41255133670E+02 -0.83132187054E+02  0.10349033516E+03  0.00000000000E+00 0. -1.
         11    1    3    3    0    0 -0.28076379253E+02  0.66512674295E+01 -0.38270813457E+02  0.47928880573E+02  0.00000000000E+00 0.  1.
        -11    1    4    4    0    0  0.27484275547E+02  0.45901498291E+02  0.10443168028E+03  0.11733843698E+03  0.00000000000E+00 0.  1.
         11    1    4    4    0    0 -0.47272249415E+02  0.72578249270E+00  0.36018007256E+02  0.59434747174E+02  0.00000000000E+00 0. -1.
          2    1    1    2  501    0  0.20680334654E+01 -0.94533681884E+02  0.22586603824E+03  0.24485988035E+03  0.00000000000E+00 0. -1.
<scales pt_clust_5="13000.00000" pt_clust_6="13000.00000" pt_clust_7="13000.00000" pt_clust_8="13000.00000" pt_clust_9="78.50889"></scales>
<clustering>
<clus scale="   74.700">  5  6 -1 -1</clus>
<clus scale="   90.494">  2  5  1 -1</clus>
<clus scale="   78.509">  1  9  2 -1</clus>
<clus scale="   94.641">  7  8 -1 -1</clus>
<clus scale="   78.509">  1  5  2 -1</clus>
</clustering>
</event>
<event>
 9    1  0.1464797E-005  0.9318501E+02  0.7546771E-02  0.1296404E+00
         21   -1    0    0  501  502  0.00000000000E+00  0.00000000000E+00  0.22794260140E+03  0.22794260140E+03  0.00000000000E+00 0. -1.
          3   -1    0    0  502    0 -0.00000000000E+00 -0.00000000000E+00 -0.25806635101E+03  0.25806635101E+03  0.00000000000E+00 0. -1.
         23    2    1    2    0    0  0.56705073225E+01  0.40777584260E+01 -0.17175880268E+03  0.19431126362E+03  0.90592483706E+02 0.  0.
         23    2    1    2    0    0  0.39059181614E+01 -0.31146482388E+02 -0.41661061072E+02  0.10616631893E+03  0.92467744128E+02 0.  0.
        -11    1    4    4    0    0  0.31127600976E+02  0.41977412310E+01  0.14373176812E+02  0.34541812136E+02  0.00000000000E+00 0.  1.
         11    1    4    4    0    0 -0.27221682815E+02 -0.35344223619E+02 -0.56034237885E+02  0.71624506796E+02  0.00000000000E+00 0. -1.
        -11    1    3    3    0    0  0.34403446946E+02 -0.15747548912E+02 -0.29911429195E+02  0.48231484064E+02  0.00000000000E+00 0.  1.
         11    1    3    3    0    0 -0.28732939624E+02  0.19825307338E+02 -0.14184737348E+03  0.14607977955E+03  0.00000000000E+00 0. -1.
          3    1    1    2  501    0 -0.95764254839E+01  0.27068723962E+02  0.18329611414E+03  0.18553136986E+03  0.00000000000E+00 0. -1.
<scales pt_clust_5="13000.00000" pt_clust_6="13000.00000" pt_clust_7="13000.00000" pt_clust_8="13000.00000" pt_clust_9="28.71278"></scales>
<clustering>
<clus scale="   28.713">  1  9  2 -1</clus>
<clus scale="   90.592">  7  8 -1 -1</clus>
<clus scale="   91.324">  2  7  1 -1</clus>
<clus scale="   92.468">  5  6 -1 -1</clus>
<clus scale="   28.713">  1  5  2 -1</clus>
</clustering>
</event>
<event>
 9    1  0.1464797E-005  0.1029745E+03  0.7546771E-02  0.1274614E+00
          4   -1    0    0  502    0 -0.00000000000E+00  0.00000000000E+00  0.60524466009E+02  0.60524466009E+02  0.00000000000E+00 0. -1.
         21   -1    0    0  501  502  0.00000000000E+00 -0.00000000000E+00 -0.31782526340E+03  0.31782526340E+03  0.00000000000E+00 0. -1.
         23    2    1    2    0    0  0.16068898905E+02  0.55898584379E+02 -0.49426566281E+02  0.12005981791E+03  0.92674231455E+02 0.  0.
         23    2    1    2    0    0  0.28193324633E+02 -0.24751898541E+02 -0.13918019242E+03  0.17083631567E+03  0.91686426225E+02 0.  0.
        -11    1    3    3    0    0  0.40526058074E+02 -0.76362763013E+01 -0.16232143648E+02  0.44318806236E+02  0.00000000000E+00 0.  1.
         11    1    3    3    0    0 -0.24457159168E+02  0.63534860680E+02 -0.33194422633E+02  0.75741011679E+02  0.00000000000E+00 0. -1.
        -11    1    4    4    0    0  0.24717414078E+02 -0.49125278380E+02 -0.13512188951E+03  0.14588409289E+03  0.00000000000E+00 0. -1.
         11    1    4    4    0    0  0.34759105549E+01  0.24373379838E+02 -0.40583029096E+01  0.24952222775E+02  0.00000000000E+00 0.  1.
          4    1    1    2  501    0 -0.44262223538E+02 -0.31146685837E+02 -0.68694038695E+02  0.87453595829E+02  0.00000000000E+00 0. -1.
<scales pt_clust_5="13000.00000" pt_clust_6="13000.00000" pt_clust_7="13000.00000" pt_clust_8="13000.00000" pt_clust_9="54.12264"></scales>
<clustering>
<clus scale="   54.123">  2  9  1 -1</clus>
<clus scale="   91.686">  7  8 -1 -1</clus>
<clus scale="   92.674">  5  6 -1 -1</clus>
<clus scale="  102.086">  2  7  1 -1</clus>
<clus scale="   54.123">  2  5  1 -1</clus>
</clustering>
</event>
<event>
 9    1  0.1464797E-005  0.1036827E+03  0.7546771E-02  0.1272762E+00
         -4   -1    0    0    0  501 -0.00000000000E+00  0.00000000000E+00  0.52019138839E+03  0.52019138839E+03  0.00000000000E+00 0.  1.
         21   -1    0    0  501  502  0.00000000000E+00 -0.00000000000E+00 -0.41245957212E+02  0.41245957212E+02  0.00000000000E+00 0. -1.
         23    2    1    2    0    0 -0.88392108356E+01  0.32134815667E+02  0.22369057488E+03  0.24372497230E+03  0.90849385280E+02 0.  0.
         23    2    1    2    0    0  0.10651906191E+02 -0.89767935540E+02  0.14652876774E+03  0.19464237410E+03  0.90792227987E+02 0.  0.
        -11    1    3    3    0    0 -0.35838613447E+02  0.48522784252E+02  0.17981682864E+03  0.18966538606E+03  0.00000000000E+00 0.  1.
         11    1    3    3    0    0  0.26999402611E+02 -0.16387968586E+02  0.43873746244E+02  0.54059586248E+02  0.00000000000E+00 0. -1.
        -11    1    4    4    0    0  0.29449683696E+02 -0.42193243564E+02  0.15122504863E+02  0.53630623953E+02  0.00000000000E+00 0. -1.
         11    1    4    4    0    0 -0.18797777505E+02 -0.47574691976E+02  0.13140626288E+03  0.14101175015E+03  0.00000000000E+00 0.  1.
         -4    1    1    2    0  502 -0.18126953551E+01  0.57633119874E+02  0.10872608855E+03  0.12306999920E+03  0.00000000000E+00 0.  1.
<scales pt_clust_5="13000.00000" pt_clust_6="13000.00000" pt_clust_7="13000.00000" pt_clust_8="13000.00000" pt_clust_9="57.66165"></scales>
<clustering>
<clus scale="   57.662">  2  9  1 -1</clus>
<clus scale="   90.792">  7  8 -1 -1</clus>
<clus scale="   90.849">  5  6 -1 -1</clus>
<clus scale="  103.633">  2  7  1 -1</clus>
<clus scale="   57.662">  2  5  1 -1</clus>
</clustering>
</event>
<event>
 9    1  0.1464797E-005  0.1554134E+03  0.7546771E-02  0.1194049E+00
         21   -1    0    0  501  502  0.00000000000E+00  0.00000000000E+00  0.97165448050E+02  0.97165448050E+02  0.00000000000E+00 0.  1.
          1   -1    0    0  502    0 -0.00000000000E+00 -0.00000000000E+00 -0.54887151172E+03  0.54887151172E+03  0.00000000000E+00 0. -1.
         23    2    1    2    0    0  0.50612280429E+02 -0.10890583744E+03 -0.36297540717E+03  0.39274135695E+03  0.89847331011E+02 0.  0.
         23    2    1    2    0    0 -0.80583252069E+02  0.12491006187E+03 -0.11688565186E+03  0.20916966822E+03  0.89406433893E+02 0.  0.
        -13    1    3    3    0    0 -0.23758941393E+02 -0.43002041235E+02 -0.14724997688E+03  0.15522956721E+03  0.00000000000E+00 0.  1.
         13    1    3    3    0    0  0.74371221821E+02 -0.65903796201E+02 -0.21572543029E+03  0.23751178974E+03  0.00000000000E+00 0. -1.
        -13    1    4    4    0    0 -0.88555514028E+02  0.99350869312E+02 -0.59376185025E+02  0.14573333746E+03  0.00000000000E+00 0.  1.
         13    1    4    4    0    0  0.79722619591E+01  0.25559192556E+02 -0.57509466835E+02  0.63436330761E+02  0.00000000000E+00 0. -1.
          1    1    1    2  501    0  0.29970971640E+02 -0.16004224431E+02  0.28154995362E+02  0.44125934603E+02  0.00000000000E+00 0. -1.
<scales pt_clust_5="13000.00000" pt_clust_6="13000.00000" pt_clust_7="13000.00000" pt_clust_8="13000.00000" pt_clust_9="33.97638"></scales>
<clustering>
<clus scale="   33.976">  1  9  2 -1</clus>
<clus scale="   89.406">  7  8 -1 -1</clus>
<clus scale="   89.847">  5  6 -1 -1</clus>
<clus scale="  155.159">  1  7  2 -1</clus>
<clus scale="   33.976">  1  5  2 -1</clus>
</clustering>
</event>
<event>
 9    1  0.1464797E-005  0.1234570E+03  0.7546771E-02  0.1245389E+00
          1   -1    0    0  502    0 -0.00000000000E+00  0.00000000000E+00  0.11345770410E+03  0.11345770410E+03  0.00000000000E+00 0. -1.
         21   -1    0    0  501  502  0.00000000000E+00 -0.00000000000E+00 -0.43842893289E+03  0.43842893289E+03  0.00000000000E+00 0. -1.
         23    2    1    2    0    0 -0.49680484543E+02  0.10432001041E+02  0.51442285157E+02  0.12027849683E+03  0.96143803275E+02 0.  0.
         23    2    1    2    0    0  0.13855434486E+02  0.67526189616E+01 -0.10433290555E+03  0.15664159158E+03  0.11581736529E+03 0.  0.
        -11    1    3    3    0    0 -0.16035575653E+02  0.18952670019E+02  0.74554988963E+02  0.78579830533E+02  0.00000000000E+00 0. -1.
         11    1    3    3    0    0 -0.33644908890E+02 -0.85206689775E+01 -0.23112703806E+02  0.41698666301E+02  0.00000000000E+00 0.  1.
        -13    1    4    4    0    0 -0.17300280697E+02 -0.35377386783E+02  0.56462979880E+00  0.39384997329E+02  0.00000000000E+00 0. -1.
         13    1    4    4    0    0  0.31155715183E+02  0.42130005744E+02 -0.10489753535E+03  0.11725659425E+03  0.00000000000E+00 0.  1.
          1    1    1    2  501    0  0.35825050057E+02 -0.17184620003E+02 -0.27208060839E+03  0.27496654858E+03  0.00000000000E+00 0. -1.
<scales pt_clust_5="13000.00000" pt_clust_6="13000.00000" pt_clust_7="13000.00000" pt_clust_8="13000.00000" pt_clust_9="39.73343"></scales>
<clustering>
<clus scale="   39.733">  2  9  1 -1</clus>
<clus scale="   96.144">  5  6 -1 -1</clus>
<clus scale="  105.222">  1  5  2 -1</clus>
<clus scale="  115.817">  7  8 -1 -1</clus>
<clus scale="   39.733">  2  5  1 -1</clus>
</clustering>
</event>
<event>
 9    1  0.1464797E-005  0.9040578E+02  0.7546771E-02  0.1305966E+00
         21   -1    0    0  501  502  0.00000000000E+00  0.00000000000E+00  0.40122973921E+03  0.40122973921E+03  0.00000000000E+00 0. -1.
          1   -1    0    0  502    0 -0.00000000000E+00 -0.00000000000E+00 -0.65312433590E+02  0.65312433590E+02  0.00000000000E+00 0. -1.
         23    2    1    2    0    0  0.93495381473E+01 -0.23142008985E+01 -0.45638148262E+01  0.84322567646E+02  0.83646264825E+02 0.  0.
         23    2    1    2    0    0  0.18724942676E+02 -0.30291198451E+02  0.10535650646E+03  0.14319058465E+03  0.90196285386E+02 0.  0.
        -11    1    3    3    0    0 -0.19831596332E+02  0.28925874118E+02  0.13940640805E+02  0.37740427563E+02  0.00000000000E+00 0.  1.
         11    1    3    3    0    0  0.29181134479E+02 -0.31240075017E+02 -0.18504455631E+02  0.46582140083E+02  0.00000000000E+00 0. -1.
        -13    1    4    4    0    0  0.44033437568E+01 -0.61546008602E+02  0.76664414754E+02  0.98411041558E+02  0.00000000000E+00 0.  1.
         13    1    4    4    0    0  0.14321598919E+02  0.31254810150E+02  0.28692091703E+02  0.44779543091E+02  0.00000000000E+00 0. -1.
          1    1    1    2  501    0 -0.28074480823E+02  0.32605399350E+02  0.23512461399E+03  0.23902902051E+03  0.00000000000E+00 0. -1.
<scales pt_clust_5="13000.00000" pt_clust_6="13000.00000" pt_clust_7="13000.00000" pt_clust_8="13000.00000" pt_clust_9="43.02660"></scales>
<clustering>
<clus scale="   43.027">  1  9  2 -1</clus>
<clus scale="   83.646">  5  6 -1 -1</clus>
<clus scale="   83.872">  2  5  1 -1</clus>
<clus scale="   90.196">  7  8 -1 -1</clus>
<clus scale="   43.027">  1  5  2 -1</clus>
</clustering>
</event>
<event>
 9    1  0.1464797E-005  0.1038117E+03  0.7546771E-02  0.1273264E+00
          2   -1    0    0  502    0 -0.00000000000E+00  0.00000000000E+00  0.12960228151E+03  0.12960228151E+03  0.00000000000E+00 0. -1.
         21   -1    0    0  501  502  0.00000000000E+00 -0.00000000000E+00 -0.51445023588E+03  0.51445023588E+03  0.00000000000E+00 0. -1.
         23    2    1    2    0    0 -0.15081718833E+02 -0.39429085995E+02  0.62377164580E+02  0.11626856748E+03  0.88574025866E+02 0.  0.
         23    2    1    2    0    0  0.77222664900E+02  0.63515850201E+02 -0.84689263603E+02  0.15917315815E+03  0.90367138407E+02 0.  0.
        -11    1    4    4    0    0  0.60320863309E+02  0.82756196322E+02 -0.44816218136E+02  0.11178411331E+03  0.00000000000E+00 0.  1.
         11    1    4    4    0    0  0.16901801591E+02 -0.19240346122E+02 -0.39873045467E+02  0.47389044839E+02  0.00000000000E+00 0. -1.
        -13    1    3    3    0    0 -0.35375156555E+02  0.76637306025E+01  0.89276372039E+00  0.36206787970E+02  0.00000000000E+00 0.  1.
         13    1    3    3    0    0  0.20293437722E+02 -0.47092816598E+02  0.61484400860E+02  0.80061779513E+02  0.00000000000E+00 0. -1.
          2    1    1    2  501    0 -0.62140946067E+02 -0.24086764206E+02 -0.36253585535E+03  0.36861079176E+03  0.00000000000E+00 0. -1.
<scales pt_clust_5="13000.00000" pt_clust_6="13000.00000" pt_clust_7="13000.00000" pt_clust_8="13000.00000" pt_clust_9="66.64585"></scales>
<clustering>
<clus scale="   66.646">  2  9  1 -1</clus>
<clus scale="   88.574">  7  8 -1 -1</clus>
<clus scale="   90.367">  5  6 -1 -1</clus>
<clus scale="  102.255">  1  7  2 -1</clus>
<clus scale="   66.646">  2  5  1 -1</clus>
</clustering>
</event>
<event>
 9    1  0.1464797E-005  0.9002898E+02  0.7546771E-02  0.1309032E+00
          1   -1    0    0  502    0 -0.00000000000E+00  0.00000000000E+00  0.69937168710E+02  0.69937168710E+02  0.00000000000E+00 0. -1.
         21   -1    0    0  501  502  0.00000000000E+00 -0.00000000000E+00 -0.28269788767E+03  0.28269788767E+03  0.00000000000E+00 0.  1.
         23    2    1    2    0    0  0.72204594819E+01  0.74092424040E+01  0.21867284952E+02  0.83255676629E+02  0.79663653140E+02 0.  0.
         23    2    1    2    0    0 -0.19388924064E+02  0.12212724703E+02 -0.11469499850E+03  0.14724413131E+03  0.89447249845E+02 0.  0.
        -11    1    3    3    0    0  0.70330963946E+01 -0.35717453735E+02  0.41799808085E+01  0.36642505179E+02  0.00000000000E+00 0.  1.
         11    1    3    3    0    0  0.18736308721E+00  0.43126696139E+02  0.17687304144E+02  0.46613171450E+02  0.00000000000E+00 0. -1.
        -13    1    4    4    0    0 -0.21005505000E+02  0.46379536653E+02 -0.38853191060E+02  0.64045789213E+02  0.00000000000E+00 0. -1.
         13    1    4    4    0    0  0.16165809356E+01 -0.34166811950E+02 -0.75841807437E+02  0.83198342099E+02  0.00000000000E+00 0.  1.
          1    1    1    2  501    0  0.12168464582E+02 -0.19621967107E+02 -0.11993300542E+03  0.12213524844E+03  0.00000000000E+00 0. -1.
<scales pt_clust_5="13000.00000" pt_clust_6="13000.00000" pt_clust_7="13000.00000" pt_clust_8="13000.00000" pt_clust_9="23.08881"></scales>
<clustering>
<clus scale="   23.089">  2  9  1 -1</clus>
<clus scale="   79.664">  5  6 -1 -1</clus>
<clus scale="   80.316">  1  5  2 -1</clus>
<clus scale="   89.447">  7  8 -1 -1</clus>
<clus scale="   23.089">  2  5  1 -1</clus>
</clustering>
</event>
<event>
 9    1  0.1464797E-005  0.2005082E+03  0.7546771E-02  0.1149371E+00
         21   -1    0    0  501  502  0.00000000000E+00  0.00000000000E+00  0.62432858711E+03  0.62432858711E+03  0.00000000000E+00 0. -1.
          1   -1    0    0  502    0 -0.00000000000E+00 -0.00000000000E+00 -0.39954947995E+03  0.39954947995E+03  0.00000000000E+00 0. -1.
         23    2    1    2    0    0 -0.15024144982E+03  0.83983366649E+01 -0.19133112280E+03  0.26058528987E+03  0.93027251065E+02 0.  0.
         23    2    1    2    0    0  0.31667824195E+03 -0.64165680760E+02  0.27879184823E+02  0.33722406577E+03  0.92414707033E+02 0.  0.
        -11    1    4    4    0    0  0.26353592936E+03 -0.40395365486E+02 -0.11629370055E+02  0.26686740877E+03  0.00000000000E+00 0. -1.
         11    1    4    4    0    0  0.53142312593E+02 -0.23770315274E+02  0.39508554877E+02  0.70356657002E+02  0.00000000000E+00 0.  1.
        -13    1    3    3    0    0 -0.13730912393E+03 -0.18797901604E+02 -0.18258642969E+03  0.22922687654E+03  0.00000000000E+00 0.  1.
         13    1    3    3    0    0 -0.12932325886E+02  0.27196238269E+02 -0.87446931050E+01  0.31358413326E+02  0.00000000000E+00 0. -1.
          1    1    1    2  501    0 -0.16643679213E+03  0.55767344095E+02  0.38823104514E+03  0.42606871142E+03  0.00000000000E+00 0. -1.
<scales pt_clust_5="13000.00000" pt_clust_6="13000.00000" pt_clust_7="13000.00000" pt_clust_8="13000.00000" pt_clust_9="175.53120"></scales>
<clustering>
<clus scale="   92.415">  5  6 -1 -1</clus>
<clus scale="   93.027">  7  8 -1 -1</clus>
<clus scale="  175.531">  1  9  2 -1</clus>
<clus scale="  200.225">  1  5  2 -1</clus>
<clus scale="  175.531">  1  5  2 -1</clus>
</clustering>
</event>
<event>
 9    1  0.1464797E-005  0.9446374E+02  0.7546771E-02  0.1293344E+00
         21   -1    0    0  501  502  0.00000000000E+00  0.00000000000E+00  0.50423076625E+02  0.50423076625E+02  0.00000000000E+00 0. -1.
         -4   -1    0    0    0  501 -0.00000000000E+00 -0.00000000000E+00 -0.28265923413E+03  0.28265923413E+03  0.00000000000E+00 0.  1.
         23    2    1    2    0    0  0.19319436892E+02  0.10493273774E+02 -0.17766119026E+03  0.20110787389E+03  0.91638032380E+02 0.  0.
         23    2    1    2    0    0  0.14673889348E+01  0.24709103211E+01 -0.53142546589E+02  0.10743438743E+03  0.93326088084E+02 0.  0.
        -13    1    4    4    0    0 -0.14204771310E+02  0.38160916462E+02 -0.54974248027E+02  0.68411980086E+02  0.00000000000E+00 0.  1.
         13    1    4    4    0    0  0.15672160245E+02 -0.35690006141E+02  0.18317014374E+01  0.39022407348E+02  0.00000000000E+00 0. -1.
        -13    1    3    3    0    0 -0.25078713278E+01  0.49476945138E+02 -0.95458868487E+02  0.10754837559E+03  0.00000000000E+00 0.  1.
         13    1    3    3    0    0  0.21827308219E+02 -0.38983671364E+02 -0.82202321777E+02  0.93559498303E+02  0.00000000000E+00 0. -1.
         -4    1    1    2    0  502 -0.20786825826E+02 -0.12964184095E+02 -0.14324206522E+01  0.24540049432E+02  0.00000000000E+00 0.  1.
<scales pt_clust_5="13000.00000" pt_clust_6="13000.00000" pt_clust_7="13000.00000" pt_clust_8="13000.00000" pt_clust_9="24.49821"></scales>
<clustering>
<clus scale="   24.498">  1  9  2 -1</clus>
<clus scale="   91.638">  7  8 -1 -1</clus>
<clus scale="   92.796">  2  7  1 -1</clus>
<clus scale="   93.326">  5  6 -1 -1</clus>
<clus scale="   24.498">  1  5  2 -1</clus>
</clustering>
</event>
<event>
 9    1  0.1464797E-005  0.1554234E+03  0.7546771E-02  0.1196725E+00
          2   -1    0    0  502    0 -0.00000000000E+00  0.00000000000E+00  0.37789897704E+03  0.37789897704E+03  0.00000000000E+00 0. -1.
         21   -1    0    0  501  502  0.00000000000E+00 -0.00000000000E+00 -0.13015396732E+03  0.13015396732E+03  0.00000000000E+00 0.  1.
         23    2    1    2    0    0 -0.10121534424E+03  0.75378900779E+02  0.18637836129E+03  0.24875071699E+03  0.10589381970E+03 0.  0.
         23    2    1    2    0    0  0.73931683092E+02 -0.70587270772E+02  0.12754587559E+03  0.18755929747E+03  0.91989581630E+02 0.  0.
        -11    1    4    4    0    0 -0.12215974812E+02 -0.16476515282E+02  0.64950821803E+02  0.68112516098E+02  0.00000000000E+00 0.  1.
         11    1    4    4    0    0  0.86147657903E+02 -0.54110755490E+02  0.62595053790E+02  0.11944678138E+03  0.00000000000E+00 0. -1.
        -13    1    3    3    0    0 -0.18042269851E+01  0.37047033792E+02  0.37040830721E+01  0.37275436673E+02  0.00000000000E+00 0.  1.
         13    1    3    3    0    0 -0.99411117256E+02  0.38331866988E+02  0.18267427822E+03  0.21147528031E+03  0.00000000000E+00 0. -1.
          2    1    1    2  501    0  0.27283661149E+02 -0.47916300075E+01 -0.66179227164E+02  0.71742929908E+02  0.00000000000E+00 0. -1.
<scales pt_clust_5="13000.00000" pt_clust_6="13000.00000" pt_clust_7="13000.00000" pt_clust_8="13000.00000" pt_clust_9="27.70123"></scales>
<clustering>
<clus scale="   27.701">  2  9  1 -1</clus>
<clus scale="   91.990">  5  6 -1 -1</clus>
<clus scale="  105.894">  7  8 -1 -1</clus>
<clus scale="  146.305">  2  5  1 -1</clus>
<clus scale="   27.701">  2  5  1 -1</clus>
</clustering>
</event>
<event>
 9    1  0.1464797E-005  0.1156052E+03  0.7546771E-02  0.1251085E+00
          1   -1    0    0  502    0 -0.00000000000E+00  0.00000000000E+00  0.21114168897E+03  0.21114168897E+03  0.00000000000E+00 0. -1.
         21   -1    0    0  501  502  0.00000000000E+00 -0.00000000000E+00 -0.20897814643E+03  0.20897814643E+03  0.00000000000E+00 0. -1.
         23    2    1    2    0    0  0.65533890762E+02 -0.27459532289E+02  0.13272888509E+03  0.17654190142E+03  0.92202870173E+02 0.  0.
         23    2    1    2    0    0 -0.44043160551E+02  0.43568280349E+02 -0.21846091371E+01  0.11241789449E+03  0.93781743637E+02 0.  0.
        -11    1    3    3    0    0  0.45200910730E+02  0.30715046182E+02  0.58227671379E+02  0.79856108765E+02  0.00000000000E+00 0.  1.
         11    1    3    3    0    0  0.20332980032E+02 -0.58174578470E+02  0.74501213708E+02  0.96685792654E+02  0.00000000000E+00 0. -1.
        -13    1    4    4    0    0  0.46283691868E+01  0.57915491815E+02  0.12832236710E+02  0.59500355398E+02  0.00000000000E+00 0. -1.
         13    1    4    4    0    0 -0.48671529738E+02 -0.14347211466E+02 -0.15016845847E+02  0.52917539088E+02  0.00000000000E+00 0.  1.
          1    1    1    2  501    0 -0.21490730210E+02 -0.16108748060E+02 -0.12838073341E+03  0.13116003950E+03  0.00000000000E+00 0. -1.
<scales pt_clust_5="13000.00000" pt_clust_6="13000.00000" pt_clust_7="13000.00000" pt_clust_8="13000.00000" pt_clust_9="26.85783"></scales>
<clustering>
<clus scale="   26.858">  2  9  1 -1</clus>
<clus scale="   92.203">  5  6 -1 -1</clus>
<clus scale="   93.782">  7  8 -1 -1</clus>
<clus scale="  114.328">  1  5  2 -1</clus>
<clus scale="   26.858">  2  5  1 -1</clus>
</clustering>
</event>
<event>
 9    1  0.1464797E-005  0.1075585E+03  0.7546771E-02  0.1266876E+00
         21   -1    0    0  501  502  0.00000000000E+00  0.00000000000E+00  0.14650374494E+03  0.14650374494E+03  0.00000000000E+00 0. -1.
          3   -1    0    0  502    0 -0.00000000000E+00 -0.00000000000E+00 -0.28691642960E+03  0.28691642960E+03  0.00000000000E+00 0. -1.
         23    2    1    2    0    0 -0.49369068056E+02  0.31448481482E+02 -0.20371758278E+03  0.23220432856E+03  0.94824494732E+02 0.  0.
         23    2    1    2    0    0  0.84605486077E+01 -0.38607303099E+02 -0.26296617408E+02  0.10245761962E+03  0.90796183813E+02 0.  0.
        -11    1    3    3    0    0  0.23208171417E+02 -0.10408819644E+02 -0.29950115543E+02  0.39293411253E+02  0.00000000000E+00 0.  1.
         11    1    3    3    0    0 -0.72577239473E+02  0.41857301126E+02 -0.17376746724E+03  0.19291091731E+03  0.00000000000E+00 0. -1.
        -11    1    4    4    0    0 -0.37534653776E+02 -0.12503228862E+02  0.66943707014E+01  0.40124750032E+02  0.00000000000E+00 0. -1.
         11    1    4    4    0    0  0.45995202384E+02 -0.26104074237E+02 -0.32990988110E+02  0.62332869584E+02  0.00000000000E+00 0.  1.
          3    1    1    2  501    0  0.40908519449E+02  0.71588216165E+01  0.89601515526E+02  0.98758226366E+02  0.00000000000E+00 0. -1.
<scales pt_clust_5="13000.00000" pt_clust_6="13000.00000" pt_clust_7="13000.00000" pt_clust_8="13000.00000" pt_clust_9="41.53018"></scales>
<clustering>
<clus scale="   41.530">  1  9  2 -1</clus>
<clus scale="   90.796">  7  8 -1 -1</clus>
<clus scale="   94.824">  5  6 -1 -1</clus>
<clus scale="  104.024">  1  7  2 -1</clus>
<clus scale="   41.530">  1  5  2 -1</clus>
</clustering>
</event>
<event>
 9    1  0.1464797E-005  0.1476625E+03  0.7546771E-02  0.1222223E+00
         21   -1    0    0  501  502  0.00000000000E+00  0.00000000000E+00  0.43764729394E+03  0.43764729394E+03  0.00000000000E+00 0. -1.
         -3   -1    0    0    0  501 -0.00000000000E+00 -0.00000000000E+00 -0.13556003702E+03  0.13556003702E+03  0.00000000000E+00 0.  1.
         23    2    1    2    0    0 -0.32125869724E+02  0.80461726916E+01 -0.64563993857E+02  0.11812805533E+03  0.93214353794E+02 0.  0.
         23    2    1    2    0    0 -0.55580429216E+02  0.84166170878E+02  0.13667547474E+03  0.19224022080E+03  0.90016602158E+02 0.  0.
        -11    1    3    3    0    0  0.20343790628E+02 -0.26329780459E+02 -0.93517481238E+01  0.34562730637E+02  0.00000000000E+00 0.  1.
         11    1    3    3    0    0 -0.52469660352E+02  0.34375953151E+02 -0.55212245734E+02  0.83565324695E+02  0.00000000000E+00 0. -1.
        -13    1    4    4    0    0  0.97941193229E+01  0.58644478391E+02  0.35960671269E+02  0.69485750317E+02  0.00000000000E+00 0.  1.
         13    1    4    4    0    0 -0.65374548539E+02  0.25521692487E+02  0.10071480347E+03  0.12275447048E+03  0.00000000000E+00 0. -1.
         -3    1    1    2    0  502  0.87706298940E+02 -0.92212343569E+02  0.22997577603E+03  0.26283905483E+03  0.00000000000E+00 0.  1.
<scales pt_clust_5="13000.00000" pt_clust_6="13000.00000" pt_clust_7="13000.00000" pt_clust_8="13000.00000" pt_clust_9="117.05225"></scales>
<clustering>
<clus scale="   90.017">  7  8 -1 -1</clus>
<clus scale="   93.214">  5  6 -1 -1</clus>
<clus scale="   98.923">  2  5  1 -1</clus>
<clus scale="  117.052">  1  9  2 -1</clus>
<clus scale="  117.052">  1  5  2 -1</clus>
</clustering>
</event>
<event>
 9    1  0.1464797E-005  0.1399605E+03  0.7546771E-02  0.1213763E+00
          1   -1    0    0  502    0 -0.00000000000E+00  0.00000000000E+00  0.34742675876E+03  0.34742675876E+03  0.00000000000E+00 0. -1.
         21   -1    0    0  501  502  0.00000000000E+00 -0.00000000000E+00 -0.19161170682E+03  0.19161170682E+03  0.00000000000E+00 0. -1.
         23    2    1    2    0    0  0.69503570785E+02  0.81333220114E+02  0.25785150754E+03  0.29280881543E+03  0.88338912174E+02 0.  0.
         23    2    1    2    0    0 -0.52312898152E+02 -0.96188704845E+02 -0.10576107120E+00  0.14179751361E+03  0.90097821443E+02 0.  0.
        -13    1    3    3    0    0  0.21807244109E+02  0.10741893265E+01  0.38213650843E+01  0.22165572617E+02  0.00000000000E+00 0. -1.
         13    1    3    3    0    0  0.47696326676E+02  0.80259030788E+02  0.25403014246E+03  0.27064324281E+03  0.00000000000E+00 0.  1.
        -13    1    4    4    0    0 -0.62428745632E+02 -0.49703065889E+02 -0.30405198737E+02  0.85394491334E+02  0.00000000000E+00 0.  1.
         13    1    4    4    0    0  0.10115847480E+02 -0.46485638955E+02  0.30299437666E+02  0.56403022279E+02  0.00000000000E+00 0. -1.
          1    1    1    2  501    0 -0.17190672633E+02  0.14855484731E+02 -0.10193069453E+03  0.10443213653E+03  0.00000000000E+00 0. -1.
<scales pt_clust_5="13000.00000" pt_clust_6="13000.00000" pt_clust_7="13000.00000" pt_clust_8="13000.00000" pt_clust_9="22.72014"></scales>
<clustering>
<clus scale="   22.720">  2  9  1 -1</clus>
<clus scale="   88.339">  5  6 -1 -1</clus>
<clus scale="   90.098">  7  8 -1 -1</clus>
<clus scale="  138.835">  1  5  2 -1</clus>
<clus scale="   22.720">  2  5  1 -1</clus>
</clustering>
</event>
<event>
 9    1  0.1548206E-005  0.9620150E+02  0.7546771E-02  0.1289725E+00
         21   -1    0    0  501  502  0.00000000000E+00  0.00000000000E+00  0.11708558307E+03  0.11708558307E+03  0.00000000000E+00 0.  1.
         -2   -1    0    0    0  501 -0.00000000000E+00 -0.00000000000E+00 -0.45404735497E+03  0.45404735497E+03  0.00000000000E+00 0.  1.
         23    2    1    2    0    0  0.46745152062E+01 -0.21739992025E+02 -0.34056243621E+03  0.35295031437E+03  0.89981515390E+02 0.  0.
         23    2    1    2    0    0 -0.14727530683E+02  0.45633381421E+02 -0.79650483115E+02  0.13098909910E+03  0.92274801344E+02 0.  0.
        -13    1    3    3    0    0  0.29374236577E+02  0.24878243592E+02 -0.17507284256E+03  0.17925477115E+03  0.00000000000E+00 0.  1.
         13    1    3    3    0    0 -0.24699721371E+02 -0.46618235617E+02 -0.16548959366E+03  0.17369554322E+03  0.00000000000E+00 0. -1.
        -13    1    4    4    0    0 -0.22347513393E+02 -0.20826733288E+02 -0.53525376547E+01  0.31013123571E+02  0.00000000000E+00 0. -1.
         13    1    4    4    0    0  0.76199827099E+01  0.66460114709E+02 -0.74297945460E+02  0.99975975530E+02  0.00000000000E+00 0.  1.
         -2    1    1    2    0  502  0.10053015477E+02 -0.23893389396E+02  0.83251147435E+02  0.87193524566E+02  0.00000000000E+00 0.  1.
<scales pt_clust_5="13000.00000" pt_clust_6="13000.00000" pt_clust_7="13000.00000" pt_clust_8="13000.00000" pt_clust_9="25.92214"></scales>
<clustering>
<clus scale="   25.922">  1  9  2 -1</clus>
<clus scale="   89.982">  5  6 -1 -1</clus>
<clus scale="   92.275">  7  8 -1 -1</clus>
<clus scale="   94.004">  2  5  1 -1</clus>
<clus scale="   25.922">  1  5  2 -1</clus>
</clustering>
</event>
<event>
 9    1  0.1464797E-005  0.1195803E+03  0.7546771E-02  0.1249786E+00
         21   -1    0    0  501  502  0.00000000000E+00  0.00000000000E+00  0.12412703197E+03  0.12412703197E+03  0.00000000000E+00 0.  1.
          1   -1    0    0  502    0 -0.00000000000E+00 -0.00000000000E+00 -0.14917149706E+03  0.14917149706E+03  0.00000000000E+00 0. -1.
         23    2    1    2    0    0 -0.54145056324E+02  0.43892592679E+02 -0.48881282829E+02  0.11251088617E+03  0.73559995098E+02 0.  0.
         23    2    1    2    0    0  0.82100141812E+02 -0.44305647252E+02  0.19866532775E+02  0.13254900654E+03  0.92038776320E+02 0.  0.
        -13    1    3    3    0    0 -0.12580670324E+02  0.48793420028E+02 -0.31031582906E+01  0.50484658018E+02  0.00000000000E+00 0.  1.
         13    1    3    3    0    0 -0.41564386001E+02 -0.49008273488E+01 -0.45778124538E+02  0.62026228150E+02  0.00000000000E+00 0. -1.
        -13    1    4    4    0    0  0.55963142616E+02  0.10965183247E+02 -0.18991252826E+02  0.60106374529E+02  0.00000000000E+00 0.  1.
         13    1    4    4    0    0  0.26136999197E+02 -0.55270830499E+02  0.38857785602E+02  0.72442632012E+02  0.00000000000E+00 0. -1.
          1    1    1    2  501    0 -0.27955085488E+02  0.41305457278E+00  0.39702849697E+01  0.28238636324E+02  0.00000000000E+00 0. -1.
<scales pt_clust_5="13000.00000" pt_clust_6="13000.00000" pt_clust_7="13000.00000" pt_clust_8="13000.00000" pt_clust_9="27.95814"></scales>
<clustering>
<clus scale="   27.958">  1  9  2 -1</clus>
<clus scale="   73.560">  5  6 -1 -1</clus>
<clus scale="   92.039">  7  8 -1 -1</clus>
<clus scale="  106.016">  2  5  1 -1</clus>
<clus scale="   27.958">  1  5  2 -1</clus>
</clustering>
</event>
<event>
 9    1  0.1464797E-005  0.1819136E+03  0.7546771E-02  0.1166150E+00
          2   -1    0    0  502    0 -0.00000000000E+00  0.00000000000E+00  0.13859183212E+04  0.13859183212E+04  0.00000000000E+00 0. -1.
         21   -1    0    0  501  502  0.00000000000E+00 -0.00000000000E+00 -0.51275314074E+02  0.51275314074E+02  0.00000000000E+00 0. -1.
         23    2    1    2    0    0 -0.79056534131E+02 -0.12357292265E+03  0.86958255840E+03  0.88659284916E+03  0.91393935766E+02 0.  0.
         23    2    1    2    0    0  0.12503329066E+03  0.13896594917E+03  0.45644535725E+03  0.50135622084E+03  0.89837838461E+02 0.  0.
        -11    1    3    3    0    0 -0.87416794423E+02 -0.57573779335E+02  0.58923928172E+03  0.59846417364E+03  0.00000000000E+00 0.  1.
         11    1    3    3    0    0  0.83602602925E+01 -0.65999143319E+02  0.28034327669E+03  0.28812867552E+03  0.00000000000E+00 0. -1.
        -13    1    4    4    0    0  0.77158379899E+02  0.77517059604E+02  0.36598640438E+03  0.38197952603E+03  0.00000000000E+00 0. -1.
         13    1    4    4    0    0  0.47874910762E+02  0.61448889561E+02  0.90458952875E+02  0.11937669481E+03  0.00000000000E+00 0.  1.
          2    1    1    2  501    0 -0.45976756530E+02 -0.15393026511E+02  0.86150914463E+01  0.49244565252E+02  0.00000000000E+00 0. -1.
<scales pt_clust_5="13000.00000" pt_clust_6="13000.00000" pt_clust_7="13000.00000" pt_clust_8="13000.00000" pt_clust_9="48.48513"></scales>
<clustering>
<clus scale="   48.485">  2  9  1 -1</clus>
<clus scale="   89.838">  7  8 -1 -1</clus>
<clus scale="   91.394">  5  6 -1 -1</clus>
<clus scale="  181.137">  2  7  1 -1</clus>
<clus scale="   48.485">  2  5  1 -1</clus>
</clustering>
</event>
<event>
 9    1  0.1464797E-005  0.9975286E+02  0.7546771E-02  0.1282421E+00
         21   -1    0    0  501  502  0.00000000000E+00  0.00000000000E+00  0.20575297514E+03  0.20575297514E+03  0.00000000000E+00 0.  1.
          3   -1    0    0  502    0 -0.00000000000E+00 -0.00000000000E+00 -0.10262319639E+03  0.10262319639E+03  0.00000000000E+00 0. -1.
         23    2    1    2    0    0 -0.36024069530E+02 -0.32173700637E+02 -0.46379523457E+02  0.10999695736E+03  0.87266200982E+02 0.  0.
         23    2    1    2    0    0  0.17784876281E+02  0.12644166282E+02  0.76223212217E+02  0.12037330498E+03  0.90573603803E+02 0.  0.
        -11    1    4    4    0    0  0.47318038051E+02  0.20088626618E+02  0.17643992930E+02  0.54349426224E+02  0.00000000000E+00 0. -1.
         11    1    4    4    0    0 -0.29533161769E+02 -0.74444603365E+01  0.58579219286E+02  0.66023878756E+02  0.00000000000E+00 0.  1.
        -13    1    3    3    0    0 -0.63607355213E+02 -0.23683309901E+02 -0.44322267022E+02  0.81063297238E+02  0.00000000000E+00 0.  1.
         13    1    3    3    0    0  0.27583285684E+02 -0.84903907364E+01 -0.20572564355E+01  0.28933660121E+02  0.00000000000E+00 0. -1.
          3    1    1    2  501    0  0.18239193248E+02  0.19529534355E+02  0.73286089988E+02  0.78005909188E+02  0.00000000000E+00 0. -1.
<scales pt_clust_5="13000.00000" pt_clust_6="13000.00000" pt_clust_7="13000.00000" pt_clust_8="13000.00000" pt_clust_9="26.72210"></scales>
<clustering>
<clus scale="   26.722">  1  9  2 -1</clus>
<clus scale="   87.266">  7  8 -1 -1</clus>
<clus scale="   90.574">  5  6 -1 -1</clus>
<clus scale="   96.760">  2  7  1 -1</clus>
<clus scale="   26.722">  1  5  2 -1</clus>
</clustering>
</event>
<event>
 9    1  0.1464797E-005  0.1052609E+03  0.7546771E-02  0.1270817E+00
         21   -1    0    0  501  502  0.00000000000E+00  0.00000000000E+00  0.19711632969E+03  0.19711632969E+03  0.00000000000E+00 0.  1.
         -3   -1    0    0    0  501 -0.00000000000E+00 -0.00000000000E+00 -0.16898184964E+03  0.16898184964E+03  0.00000000000E+00 0.  1.
         23    2    1    2    0    0  0.57534111577E+02 -0.14779640898E+02 -0.62977296461E+02  0.12355951990E+03  0.88160100436E+02 0.  0.
         23    2    1    2    0    0 -0.36708840224E+02  0.31281663022E+02 -0.38717229583E+02  0.11001854970E+03  0.90988878545E+02 0.  0.
        -13    1    4    4    0    0 -0.39002854754E+02  0.55860255727E+02 -0.51115697913E+01  0.68320706923E+02  0.00000000000E+00 0.  1.
         13    1    4    4    0    0  0.22940145293E+01 -0.24578592704E+02 -0.33605659792E+02  0.41697842774E+02  0.00000000000E+00 0. -1.
        -13    1    3    3    0    0  0.33934555449E+02  0.11006324133E+02 -0.77801700747E+02  0.85590874884E+02  0.00000000000E+00 0.  1.
         13    1    3    3    0    0  0.23599556129E+02 -0.25785965031E+02  0.14824404286E+02  0.37968645018E+02  0.00000000000E+00 0. -1.
         -3    1    1    2    0  502 -0.20825271353E+02 -0.16502022124E+02  0.12982900609E+03  0.13252010973E+03  0.00000000000E+00 0.  1.
<scales pt_clust_5="13000.00000" pt_clust_6="13000.00000" pt_clust_7="13000.00000" pt_clust_8="13000.00000" pt_clust_9="26.57082"></scales>
<clustering>
<clus scale="   26.571">  1  9  2 -1</clus>
<clus scale="   88.160">  7  8 -1 -1</clus>
<clus scale="   90.989">  5  6 -1 -1</clus>
<clus scale="  102.825">  2  7  1 -1</clus>
<clus scale="   26.571">  1  5  2 -1</clus>
</clustering>
</event>
<event>
 9    1  0.1464797E-005  0.1086453E+03  0.7546771E-02  0.1263696E+00
         21   -1    0    0  501  502  0.00000000000E+00  0.00000000000E+00  0.14070391378E+03  0.14070391378E+03  0.00000000000E+00 0.  1.
          1   -1    0    0  502    0 -0.00000000000E+00 -0.00000000000E+00 -0.12797564799E+03  0.12797564799E+03  0.00000000000E+00 0. -1.
         23    2    1    2    0    0 -0.17464433429E+02 -0.53523964460E+02 -0.45290775021E+02  0.11656719472E+03  0.91470407104E+02 0.  0.
         23    2    1    2    0    0 -0.90242778134E+01  0.60037936324E+02  0.57045191837E+02  0.12481709210E+03  0.92947088073E+02 0.  0.
        -13    1    4    4    0    0  0.10334587483E+02  0.72616245549E+02  0.12168758976E+02  0.74350531344E+02  0.00000000000E+00 0. -1.
         13    1    4    4    0    0 -0.19358865297E+02 -0.12578309225E+02  0.44876432861E+02  0.50466560759E+02  0.00000000000E+00 0.  1.
        -13    1    3    3    0    0 -0.11072712953E+02  0.25338087377E+02 -0.62980265828E+01  0.28359985594E+02  0.00000000000E+00 0. -1.
         13    1    3    3    0    0 -0.63917204769E+01 -0.78862051837E+02 -0.38992748438E+02  0.88207209123E+02  0.00000000000E+00 0.  1.
          1    1    1    2  501    0  0.26488711243E+02 -0.65139718645E+01  0.97384896628E+00  0.27295274949E+02  0.00000000000E+00 0. -1.
<scales pt_clust_5="13000.00000" pt_clust_6="13000.00000" pt_clust_7="13000.00000" pt_clust_8="13000.00000" pt_clust_9="27.27791"></scales>
<clustering>
<clus scale="   27.278">  1  9  2 -1</clus>
<clus scale="   91.470">  7  8 -1 -1</clus>
<clus scale="   92.947">  5  6 -1 -1</clus>
<clus scale="  107.385">  2  7  1 -1</clus>
<clus scale="   27.278">  1  5  2 -1</clus>
</clustering>
</event>
<event>
 9    1  0.1464797E-005  0.9327370E+02  0.7546771E-02  0.1295247E+00
         21   -1    0    0  501  502  0.00000000000E+00  0.00000000000E+00  0.20805914951E+02  0.20805914951E+02  0.00000000000E+00 0.  1.
         -3   -1    0    0    0  501 -0.00000000000E+00 -0.00000000000E+00 -0.67880426202E+03  0.67880426202E+03  0.00000000000E+00 0.  1.
         23    2    1    2    0    0 -0.35719215415E+01 -0.94217099613E+01 -0.32218983571E+03  0.33494940228E+03  0.91012551932E+02 0.  0.
         23    2    1    2    0    0 -0.10949690019E+02  0.32345737006E+02 -0.31735634249E+03  0.33184506574E+03  0.90774209572E+02 0.  0.
        -13    1    4    4    0    0  0.31605258579E+01  0.62554067182E+02 -0.18333813696E+03  0.19374176811E+03  0.00000000000E+00 0.  1.
         13    1    4    4    0    0 -0.14110215876E+02 -0.30208330176E+02 -0.13401820553E+03  0.13810329763E+03  0.00000000000E+00 0. -1.
        -13    1    3    3    0    0  0.36022146696E+02 -0.21655112922E+02 -0.93184641047E+02  0.10222483209E+03  0.00000000000E+00 0. -1.
         13    1    3    3    0    0 -0.39594068237E+02  0.12233402961E+02 -0.22900519466E+03  0.23272457019E+03  0.00000000000E+00 0.  1.
         -3    1    1    2    0  502  0.14521611560E+02 -0.22924027044E+02 -0.18452168872E+02  0.32815708957E+02  0.00000000000E+00 0.  1.
<scales pt_clust_5="13000.00000" pt_clust_6="13000.00000" pt_clust_7="13000.00000" pt_clust_8="13000.00000" pt_clust_9="27.13647"></scales>
<clustering>
<clus scale="   27.136">  1  9  2 -1</clus>
<clus scale="   90.774">  5  6 -1 -1</clus>
<clus scale="   91.013">  7  8 -1 -1</clus>
<clus scale="   93.041">  1  5  2 -1</clus>
<clus scale="   27.136">  1  5  2 -1</clus>
</clustering>
</event>
<event>
 9    1  0.1464797E-005  0.1224094E+03  0.7546771E-02  0.1242059E+00
         21   -1    0    0  501  502  0.00000000000E+00  0.00000000000E+00  0.18114666913E+03  0.18114666913E+03  0.00000000000E+00 0.  1.
         -2   -1    0    0    0  501 -0.00000000000E+00 -0.00000000000E+00 -0.20757822811E+03  0.20757822811E+03  0.00000000000E+00 0.  1.
         23    2    1    2    0    0  0.37679339473E+02  0.63288505334E+02 -0.10731734702E+03  0.15476844945E+03  0.83732266440E+02 0.  0.
         23    2    1    2    0    0 -0.19921291263E+02 -0.96641342696E+02 -0.95026983886E+01  0.13598788898E+03  0.93091340670E+02 0.  0.
        -11    1    3    3    0    0  0.60102141125E+02  0.39405945862E+02 -0.46235661743E+02  0.85456610943E+02  0.00000000000E+00 0.  1.
         11    1    3    3    0    0 -0.22422801652E+02  0.23882559472E+02 -0.61081685278E+02  0.69311838508E+02  0.00000000000E+00 0. -1.
        -13    1    4    4    0    0  0.29619660479E+02 -0.52503434532E+01 -0.10979537292E+02  0.32022501970E+02  0.00000000000E+00 0.  1.
         13    1    4    4    0    0 -0.49540951742E+02 -0.91390999243E+02  0.14768389034E+01  0.10396538701E+03  0.00000000000E+00 0. -1.
         -2    1    1    2    0  502 -0.17758048210E+02  0.33352837362E+02  0.90388486432E+02  0.97968558813E+02  0.00000000000E+00 0.  1.
<scales pt_clust_5="13000.00000" pt_clust_6="13000.00000" pt_clust_7="13000.00000" pt_clust_8="13000.00000" pt_clust_9="37.78571"></scales>
<clustering>
<clus scale="   37.786">  1  9  2 -1</clus>
<clus scale="   83.732">  5  6 -1 -1</clus>
<clus scale="   93.091">  7  8 -1 -1</clus>
<clus scale="  115.452">  2  5  1 -1</clus>
<clus scale="   37.786">  1  5  2 -1</clus>
</clustering>
</event>
<event>
 9    1  0.1464797E-005  0.1659224E+03  0.7546771E-02  0.1182965E+00
          2   -1    0    0  502    0 -0.00000000000E+00  0.00000000000E+00  0.38969713679E+03  0.38969713679E+03  0.00000000000E+00 0. -1.
         21   -1    0    0  501  502  0.00000000000E+00 -0.00000000000E+00 -0.17706167763E+03  0.17706167763E+03  0.00000000000E+00 0. -1.
         23    2    1    2    0    0 -0.12890565584E+03 -0.56752237205E+02  0.27961693481E+03  0.32742561470E+03  0.95835371318E+02 0.  0.
         23    2    1    2    0    0  0.10988529541E+03  0.49104310343E+02  0.18143671899E+02  0.15177433015E+03  0.90665555860E+02 0.  0.
        -11    1    3    3    0    0 -0.56024446164E+02 -0.75017132986E+02  0.17705823246E+03  0.20028960655E+03  0.00000000000E+00 0. -1.
         11    1    3    3    0    0 -0.72881209675E+02  0.18264895781E+02  0.10255870235E+03  0.12713600815E+03  0.00000000000E+00 0.  1.
        -11    1    4    4    0    0 -0.23185229722E+01  0.24252442390E+02  0.27174822939E+02  0.36496952098E+02  0.00000000000E+00 0. -1.
         11    1    4    4    0    0  0.11220381838E+03  0.24851867953E+02 -0.90311510399E+01  0.11527737805E+03  0.00000000000E+00 0.  1.
          2    1    1    2  501    0  0.19020360429E+02  0.76479268618E+01 -0.85125147548E+02  0.87558869574E+02  0.00000000000E+00 0. -1.
<scales pt_clust_5="13000.00000" pt_clust_6="13000.00000" pt_clust_7="13000.00000" pt_clust_8="13000.00000" pt_clust_9="20.50036"></scales>
<clustering>
<clus scale="   20.500">  2  9  1 -1</clus>
<clus scale="   90.666">  7  8 -1 -1</clus>
<clus scale="   95.835">  5  6 -1 -1</clus>
<clus scale="  162.991">  2  7  1 -1</clus>
<clus scale="   20.500">  2  5  1 -1</clus>
</clustering>
</event>
<event>
 9    1  0.1464797E-005  0.1640320E+03  0.7546771E-02  0.1188621E+00
          2   -1    0    0  502    0 -0.00000000000E+00  0.00000000000E+00  0.92070275831E+03  0.92070275831E+03  0.00000000000E+00 0. -1.
         21   -1    0    0  501  502  0.00000000000E+00 -0.00000000000E+00 -0.79381926992E+02  0.79381926992E+02  0.00000000000E+00 0. -1.
         23    2    1    2    0    0  0.93350507129E+02 -0.12193175587E+03  0.44212402254E+03  0.47578360980E+03  0.85526146778E+02 0.  0.
         23    2    1    2    0    0 -0.12219308087E+03 -0.15319292542E+02  0.32754392608E+03  0.36680859964E+03  0.10998952462E+03 0.  0.
        -11    1    4    4    0    0 -0.71054839502E+02 -0.62894326091E+02  0.20082339872E+03  0.22211376352E+03  0.00000000000E+00 0.  1.
         11    1    4    4    0    0 -0.51138241364E+02  0.47575033549E+02  0.12672052736E+03  0.14469483612E+03  0.00000000000E+00 0. -1.
        -13    1    3    3    0    0  0.69071645104E+02 -0.13184593142E+03  0.35939613938E+03  0.38899849202E+03  0.00000000000E+00 0. -1.
         13    1    3    3    0    0  0.24278862025E+02  0.99141755458E+01  0.82727883155E+02  0.86785117787E+02  0.00000000000E+00 0.  1.
          2    1    1    2  501    0  0.28842573737E+02  0.13725104842E+03  0.71652882701E+02  0.15749247585E+03  0.00000000000E+00 0. -1.
<scales pt_clust_5="13000.00000" pt_clust_6="13000.00000" pt_clust_7="13000.00000" pt_clust_8="13000.00000" pt_clust_9="140.24887"></scales>
<clustering>
<clus scale="   85.526">  7  8 -1 -1</clus>
<clus scale="  109.990">  5  6 -1 -1</clus>
<clus scale="  140.249">  2  9  1 -1</clus>
<clus scale="  148.740">  1  7  2 -1</clus>
<clus scale="  140.249">  2  5  1 -1</clus>
</clustering>
</event>
<event>
 9    1  0.1464797E-005  0.1396895E+03  0.7546771E-02  0.1213965E+00
         21   -1    0    0  501  502  0.00000000000E+00  0.00000000000E+00  0.24934122789E+03  0.24934122789E+03  0.00000000000E+00 0. -1.
          3   -1    0    0  502    0 -0.00000000000E+00 -0.00000000000E+00 -0.24551378670E+03  0.24551378670E+03  0.00000000000E+00 0. -1.
         23    2    1    2    0    0  0.18215062795E+02 -0.97134864931E+02 -0.10472878812E+03  0.17095674405E+03  0.92147266803E+02 0.  0.
         23    2    1    2    0    0  0.49845196393E+02  0.11689815914E+03 -0.37155279873E+02  0.16186546340E+03  0.93113856132E+02 0.  0.
        -11    1    3    3    0    0 -0.14410769225E+02 -0.10032662186E+03 -0.69870515269E+02  0.12310560600E+03  0.00000000000E+00 0. -1.
         11    1    3    3    0    0  0.32625832020E+02  0.31917569325E+01 -0.34858272849E+02  0.47851138057E+02  0.00000000000E+00 0.  1.
        -11    1    4    4    0    0 -0.21559509510E+02  0.64569486389E+02 -0.24948536187E+02  0.72501451577E+02  0.00000000000E+00 0.  1.
         11    1    4    4    0    0  0.71404705903E+02  0.52328672756E+02 -0.12206743686E+02  0.89364011822E+02  0.00000000000E+00 0. -1.
          3    1    1    2  501    0 -0.68060259188E+02 -0.19763294214E+02  0.14571150919E+03  0.16203280714E+03  0.00000000000E+00 0. -1.
<scales pt_clust_5="13000.00000" pt_clust_6="13000.00000" pt_clust_7="13000.00000" pt_clust_8="13000.00000" pt_clust_9="70.87162"></scales>
<clustering>
<clus scale="   70.872">  1  9  2 -1</clus>
<clus scale="   92.147">  5  6 -1 -1</clus>
<clus scale="   93.114">  7  8 -1 -1</clus>
<clus scale="  139.047">  2  5  1 -1</clus>
<clus scale="   70.872">  1  5  2 -1</clus>
</clustering>
</event>
<event>
 9    1  0.1464797E-005  0.1363379E+03  0.7546771E-02  0.1237692E+00
         21   -1    0    0  501  502  0.00000000000E+00  0.00000000000E+00  0.21644616144E+03  0.21644616144E+03  0.00000000000E+00 0.  1.
         -3   -1    0    0    0  501 -0.00000000000E+00 -0.00000000000E+00 -0.32110720789E+03  0.32110720789E+03  0.00000000000E+00 0.  1.
         23    2    1    2    0    0 -0.22842111200E+02  0.13123463616E+02 -0.12701206008E+03  0.15642773572E+03  0.87427602938E+02 0.  0.
         23    2    1    2    0    0  0.66277665040E+02  0.75990543633E+02 -0.13650902945E+03  0.19387054847E+03  0.93721837565E+02 0.  0.
        -11    1    4    4    0    0  0.48449759275E+02 -0.76164477080E+01 -0.70421939637E+02  0.85817475095E+02  0.00000000000E+00 0. -1.
         11    1    4    4    0    0  0.17827905765E+02  0.83606991341E+02 -0.66087089816E+02  0.10805307337E+03  0.00000000000E+00 0.  1.
        -11    1    3    3    0    0 -0.17751853716E+02  0.33053107214E+02 -0.11707298638E+02  0.39302634113E+02  0.00000000000E+00 0.  1.
         11    1    3    3    0    0 -0.50902574843E+01 -0.19929643598E+02 -0.11530476144E+03  0.11712510161E+03  0.00000000000E+00 0. -1.
         -3    1    1    2    0  502 -0.43435553840E+02 -0.89114007249E+02  0.15886004308E+03  0.18725508514E+03  0.00000000000E+00 0.  1.
<scales pt_clust_5="13000.00000" pt_clust_6="13000.00000" pt_clust_7="13000.00000" pt_clust_8="13000.00000" pt_clust_9="99.01632"></scales>
<clustering>
<clus scale="   87.428">  7  8 -1 -1</clus>
<clus scale="   91.310">  2  7  1 -1</clus>
<clus scale="   93.722">  5  6 -1 -1</clus>
<clus scale="   99.016">  1  9  2 -1</clus>
<clus scale="   99.016">  1  5  2 -1</clus>
</clustering>
</event>
<event>
 9    1  0.1464797E-005  0.1228709E+03  0.7546771E-02  0.1238693E+00
         21   -1    0    0  501  502  0.00000000000E+00  0.00000000000E+00  0.15844864359E+03  0.15844864359E+03  0.00000000000E+00 0.  1.
         -3   -1    0    0    0  501 -0.00000000000E+00 -0.00000000000E+00 -0.24403972692E+03  0.24403972692E+03  0.00000000000E+00 0.  1.
         23    2    1    2    0    0  0.74903219898E+02  0.18082736108E+02 -0.14357925124E+03  0.18607565916E+03  0.89842483537E+02 0.  0.
         23    2    1    2    0    0 -0.94836958893E+02 -0.27710813027E+02 -0.19755272940E+02  0.13557895349E+03  0.90716282380E+02 0.  0.
        -13    1    3    3    0    0  0.95896910174E+02  0.14699096731E+02 -0.12031233775E+03  0.15455529574E+03  0.00000000000E+00 0.  1.
         13    1    3    3    0    0 -0.20993690275E+02  0.33836393770E+01 -0.23266913485E+02  0.31520363417E+02  0.00000000000E+00 0. -1.
        -13    1    4    4    0    0 -0.16578475805E+02  0.19868905701E+02 -0.34171730574E+02  0.42864046054E+02  0.00000000000E+00 0.  1.
         13    1    4    4    0    0 -0.78258483088E+02 -0.47579718727E+02  0.14416457634E+02  0.92714907432E+02  0.00000000000E+00 0. -1.
         -3    1    1    2    0  502  0.19933738995E+02  0.96280769191E+01  0.77743440849E+02  0.80833757864E+02  0.00000000000E+00 0.  1.
<scales pt_clust_5="13000.00000" pt_clust_6="13000.00000" pt_clust_7="13000.00000" pt_clust_8="13000.00000" pt_clust_9="22.13716"></scales>
<clustering>
<clus scale="   22.137">  1  9  2 -1</clus>
<clus scale="   89.842">  5  6 -1 -1</clus>
<clus scale="   90.716">  7  8 -1 -1</clus>
<clus scale="  122.227">  2  5  1 -1</clus>
<clus scale="   22.137">  1  5  2 -1</clus>
</clustering>
</event>
<event>
 9    1  0.1464797E-005  0.1055903E+03  0.7546771E-02  0.1270077E+00
         21   -1    0    0  501  502  0.00000000000E+00  0.00000000000E+00  0.31186918328E+03  0.31186918328E+03  0.00000000000E+00 0. -1.
         -1   -1    0    0    0  501 -0.00000000000E+00 -0.00000000000E+00 -0.52847079990E+02  0.52847079990E+02  0.00000000000E+00 0.  1.
         23    2    1    2    0    0 -0.24645586245E+02 -0.36394432121E+02  0.55188293186E+02  0.11694097974E+03  0.93260310036E+02 0.  0.
         23    2    1    2    0    0  0.48130252306E+02  0.42231664761E+02  0.18956188677E+03  0.21968096701E+03  0.90697208640E+02 0.  0.
        -11    1    4    4    0    0  0.13538405769E+02  0.29323087141E+02  0.65157707086E+01  0.32948249394E+02  0.00000000000E+00 0. -1.
         11    1    4    4    0    0  0.34591846537E+02  0.12908577620E+02  0.18304611606E+03  0.18673271762E+03  0.00000000000E+00 0.  1.
        -13    1    3    3    0    0  0.49206723799E+01  0.29954456807E+02  0.18693411819E+02  0.35650051118E+02  0.00000000000E+00 0.  1.
         13    1    3    3    0    0 -0.29566258625E+02 -0.66348888928E+02  0.36494881367E+02  0.81290928627E+02  0.00000000000E+00 0. -1.
         -1    1    1    2    0  502 -0.23484666061E+02 -0.58372326398E+01  0.14271923338E+02  0.28094316519E+02  0.00000000000E+00 0.  1.
<scales pt_clust_5="13000.00000" pt_clust_6="13000.00000" pt_clust_7="13000.00000" pt_clust_8="13000.00000" pt_clust_9="24.19924"></scales>
<clustering>
<clus scale="   24.199">  1  9  2 -1</clus>
<clus scale="   90.697">  5  6 -1 -1</clus>
<clus scale="   93.260">  7  8 -1 -1</clus>
<clus scale="  103.333">  1  5  2 -1</clus>
<clus scale="   24.199">  1  5  2 -1</clus>
</clustering>
</event>
<event>
 9    1  0.1464797E-005  0.9508512E+02  0.7546771E-02  0.1294305E+00
         21   -1    0    0  501  502  0.00000000000E+00  0.00000000000E+00  0.10845892334E+03  0.10845892334E+03  0.00000000000E+00 0.  1.
          4   -1    0    0  502    0 -0.00000000000E+00 -0.00000000000E+00 -0.15398700171E+03  0.15398700171E+03  0.00000000000E+00 0. -1.
         23    2    1    2    0    0  0.24997405947E+02  0.99067679229E+01 -0.70468408420E+02  0.11566732257E+03  0.87693321124E+02 0.  0.
         23    2    1    2    0    0 -0.28610908624E+01  0.17262623735E+02 -0.11971022460E+02  0.95880270164E+02  0.93506881078E+02 0.  0.
        -11    1    4    4    0    0 -0.18921225204E+02 -0.23214509099E+02  0.24800953439E+02  0.38884617619E+02  0.00000000000E+00 0.  1.
         11    1    4    4    0    0  0.16060134341E+02  0.40477132834E+02 -0.36771975899E+02  0.56995652545E+02  0.00000000000E+00 0. -1.
        -11    1    3    3    0    0  0.24505623068E+02 -0.23418482502E+02  0.39508732905E+01  0.34125654344E+02  0.00000000000E+00 0.  1.
         11    1    3    3    0    0  0.49178287918E+00  0.33325250425E+02 -0.74419281711E+02  0.81541668223E+02  0.00000000000E+00 0. -1.
          4    1    1    2  501    0 -0.22136315084E+02 -0.27169391658E+02  0.36911352515E+02  0.50898332321E+02  0.00000000000E+00 0. -1.
<scales pt_clust_5="13000.00000" pt_clust_6="13000.00000" pt_clust_7="13000.00000" pt_clust_8="13000.00000" pt_clust_9="35.04557"></scales>
<clustering>
<clus scale="   35.046">  1  9  2 -1</clus>
<clus scale="   87.693">  7  8 -1 -1</clus>
<clus scale="   89.374">  2  7  1 -1</clus>
<clus scale="   93.507">  5  6 -1 -1</clus>
<clus scale="   35.046">  1  5  2 -1</clus>
</clustering>
</event>
<event>
 9    1  0.1464797E-005  0.1304286E+03  0.7546771E-02  0.1229754E+00
          1   -1    0    0  502    0 -0.00000000000E+00  0.00000000000E+00  0.70974021281E+03  0.70974021281E+03  0.00000000000E+00 0. -1.
         21   -1    0    0  501  502  0.00000000000E+00 -0.00000000000E+00 -0.34039585316E+02  0.34039585316E+02  0.00000000000E+00 0. -1.
         23    2    1    2    0    0  0.41263506472E+02 -0.58812974428E+02  0.25975832536E+03  0.28927999887E+03  0.10510417320E+03 0.  0.
         23    2    1    2    0    0 -0.69371143453E+02  0.51141913645E+02  0.20800094510E+03  0.24452720010E+03  0.95400773332E+02 0.  0.
        -11    1    3    3    0    0  0.32694630393E+02  0.19646583015E+02  0.14546832940E+03  0.15038604303E+03  0.00000000000E+00 0.  1.
         11    1    3    3    0    0  0.85688760786E+01 -0.78459557443E+02  0.11428999596E+03  0.13889395584E+03  0.00000000000E+00 0. -1.
        -11    1    4    4    0    0  0.16820117900E+02  0.23819534977E+02  0.18425780597E+02  0.34493419710E+02  0.00000000000E+00 0.  1.
         11    1    4    4    0    0 -0.86191261353E+02  0.27322378668E+02  0.18957516450E+03  0.21003378039E+03  0.00000000000E+00 0. -1.
          1    1    1    2  501    0  0.28107636981E+02  0.76710607824E+01  0.20794135703E+03  0.20997259915E+03  0.00000000000E+00 0. -1.
<scales pt_clust_5="13000.00000" pt_clust_6="13000.00000" pt_clust_7="13000.00000" pt_clust_8="13000.00000" pt_clust_9="29.13564"></scales>
<clustering>
<clus scale="   29.136">  2  9  1 -1</clus>
<clus scale="   95.401">  7  8 -1 -1</clus>
<clus scale="  105.104">  5  6 -1 -1</clus>
<clus scale="  122.744">  2  7  1 -1</clus>
<clus scale="   29.136">  2  5  1 -1</clus>
</clustering>
</event>
<event>
 9    1  0.1464797E-005  0.1149912E+03  0.7546771E-02  0.1252675E+00
         21   -1    0    0  501  502  0.00000000000E+00  0.00000000000E+00  0.16775239691E+03  0.16775239691E+03  0.00000000000E+00 0.  1.
          1   -1    0    0  502    0 -0.00000000000E+00 -0.00000000000E+00 -0.22172202223E+03  0.22172202223E+03  0.00000000000E+00 0. -1.
         23    2    1    2    0    0 -0.59195706857E+02  0.20426828651E+02 -0.96907229241E+02  0.14860515731E+03  0.93654122503E+02 0.  0.
         23    2    1    2    0    0  0.75336367188E+02  0.42518019538E+01 -0.61036289978E+02  0.13279462864E+03  0.90638505393E+02 0.  0.
        -11    1    3    3    0    0 -0.83080223647E+02  0.16157580110E+02 -0.57478651795E+02  0.10230926824E+03  0.00000000000E+00 0.  1.
         11    1    3    3    0    0  0.23884516789E+02  0.42692485412E+01 -0.39428577447E+02  0.46295889071E+02  0.00000000000E+00 0. -1.
        -11    1    4    4    0    0  0.35061660992E+01  0.33513274413E+02 -0.40256134097E+02  0.52497515132E+02  0.00000000000E+00 0.  1.
         11    1    4    4    0    0  0.71830201088E+02 -0.29261472459E+02 -0.20780155880E+02  0.80297113505E+02  0.00000000000E+00 0. -1.
          1    1    1    2  501    0 -0.16140660330E+02 -0.24678630605E+02  0.10397389390E+03  0.10807463318E+03  0.00000000000E+00 0. -1.
<scales pt_clust_5="13000.00000" pt_clust_6="13000.00000" pt_clust_7="13000.00000" pt_clust_8="13000.00000" pt_clust_9="29.48823"></scales>
<clustering>
<clus scale="   29.488">  1  9  2 -1</clus>
<clus scale="   90.639">  7  8 -1 -1</clus>
<clus scale="   93.654">  5  6 -1 -1</clus>
<clus scale="  112.549">  1  7  2 -1</clus>
<clus scale="   29.488">  1  5  2 -1</clus>
</clustering>
</event>
<event>
 9    1  0.1464797E-005  0.1019062E+03  0.7546771E-02  0.1276389E+00
         -2   -1    0    0    0  501 -0.00000000000E+00  0.00000000000E+00  0.57584222191E+03  0.57584222191E+03  0.00000000000E+00 0.  1.
         21   -1    0    0  501  502  0.00000000000E+00 -0.00000000000E+00 -0.27671982053E+02  0.27671982053E+02  0.00000000000E+00 0. -1.
         23    2    1    2    0    0 -0.50527044143E+01  0.55357990996E+02  0.33437713441E+03  0.35120102527E+03  0.91891540132E+02 0.  0.
         23    2    1    2    0    0  0.14966612904E+02 -0.26243461805E+02  0.19093733482E+03  0.21399441511E+03  0.91781398338E+02 0.  0.
        -13    1    4    4    0    0 -0.18125521444E+02  0.21748433944E+02  0.23811684898E+02  0.36993583826E+02  0.00000000000E+00 0.  1.
         13    1    4    4    0    0  0.33092134348E+02 -0.47991895749E+02  0.16712564992E+03  0.17700083128E+03  0.00000000000E+00 0. -1.
        -13    1    3    3    0    0  0.34239090380E+02  0.49561451622E+02  0.25996503922E+03  0.26685290782E+03  0.00000000000E+00 0. -1.
         13    1    3    3    0    0 -0.39291794794E+02  0.57965393734E+01  0.74412095188E+02  0.84348117449E+02  0.00000000000E+00 0.  1.
         -2    1    1    2    0  502 -0.99139084899E+01 -0.29114529190E+02  0.22855770633E+02  0.38318763586E+02  0.00000000000E+00 0.  1.
<scales pt_clust_5="13000.00000" pt_clust_6="13000.00000" pt_clust_7="13000.00000" pt_clust_8="13000.00000" pt_clust_9="30.75616"></scales>
<clustering>
<clus scale="   30.756">  2  9  1 -1</clus>
<clus scale="   91.781">  5  6 -1 -1</clus>
<clus scale="   91.892">  7  8 -1 -1</clus>
<clus scale="  101.807">  2  5  1 -1</clus>
<clus scale="   30.756">  2  5  1 -1</clus>
</clustering>
</event>
<event>
 9    1  0.1464797E-005  0.1124011E+03  0.7546771E-02  0.1256838E+00
         -3   -1    0    0    0  501 -0.00000000000E+00  0.00000000000E+00  0.27866776661E+03  0.27866776661E+03  0.00000000000E+00 0.  1.
         21   -1    0    0  501  502  0.00000000000E+00 -0.00000000000E+00 -0.91119543352E+02  0.91119543352E+02  0.00000000000E+00 0. -1.
         23    2    1    2    0    0 -0.51093522404E+02  0.26550167255E+02  0.13727653439E+03  0.17496181845E+03  0.91931124251E+02 0.  0.
         23    2    1    2    0    0  0.82201063145E+02 -0.37458397879E+02 -0.79901169355E+01  0.12788442339E+03  0.90168938245E+02 0.  0.
        -11    1    4    4    0    0  0.68567656987E+02 -0.65089097768E+02 -0.16383126021E+02  0.95950617774E+02  0.00000000000E+00 0.  1.
         11    1    4    4    0    0  0.13633406158E+02  0.27630699890E+02  0.83930090855E+01  0.31933805620E+02  0.00000000000E+00 0. -1.
        -11    1    3    3    0    0 -0.72491562708E+02  0.40329025655E+02  0.10234239295E+03  0.13173998014E+03  0.00000000000E+00 0. -1.
         11    1    3    3    0    0  0.21398040304E+02 -0.13778858400E+02  0.34934141446E+02  0.43221838302E+02  0.00000000000E+00 0.  1.
         -3    1    1    2    0  502 -0.31107540741E+02  0.10908230624E+02  0.58261805805E+02  0.66941068127E+02  0.00000000000E+00 0.  1.
<scales pt_clust_5="13000.00000" pt_clust_6="13000.00000" pt_clust_7="13000.00000" pt_clust_8="13000.00000" pt_clust_9="32.96467"></scales>
<clustering>
<clus scale="   32.965">  2  9  1 -1</clus>
<clus scale="   90.169">  5  6 -1 -1</clus>
<clus scale="   91.931">  7  8 -1 -1</clus>
<clus scale="  110.964">  2  5  1 -1</clus>
<clus scale="   32.965">  2  5  1 -1</clus>
</clustering>
</event>
<event>
 9    1  0.1464797E-005  0.9091549E+02  0.7546771E-02  0.1300787E+00
         21   -1    0    0  501  502  0.00000000000E+00  0.00000000000E+00  0.50976125392E+02  0.50976125392E+02  0.00000000000E+00 0.  1.
          1   -1    0    0  502    0 -0.00000000000E+00 -0.00000000000E+00 -0.32691287727E+03  0.32691287727E+03  0.00000000000E+00 0. -1.
         23    2    1    2    0    0 -0.83401496797E+01 -0.13681227276E+01 -0.24103978859E+03  0.25758899000E+03  0.90445996203E+02 0.  0.
         23    2    1    2    0    0 -0.79932061135E+01  0.14817512064E+02 -0.19853376320E+02  0.94339001632E+02  0.90676571781E+02 0.  0.
        -11    1    4    4    0    0  0.36850619671E+02  0.24092466911E+02  0.96024152929E+00  0.44037906352E+02  0.00000000000E+00 0. -1.
         11    1    4    4    0    0 -0.44843825785E+02 -0.92749548470E+01 -0.20813617849E+02  0.50301095280E+02  0.00000000000E+00 0.  1.
        -13    1    3    3    0    0 -0.98143345969E+01  0.36206561784E+02 -0.47995612545E+02  0.60916460037E+02  0.00000000000E+00 0. -1.
         13    1    3    3    0    0  0.14741849172E+01 -0.37574684512E+02 -0.19304417604E+03  0.19667252996E+03  0.00000000000E+00 0.  1.
          1    1    1    2  501    0  0.16333355793E+02 -0.13449389337E+02 -0.15043586975E+02  0.25961011037E+02  0.00000000000E+00 0. -1.
<scales pt_clust_5="13000.00000" pt_clust_6="13000.00000" pt_clust_7="13000.00000" pt_clust_8="13000.00000" pt_clust_9="21.15809"></scales>
<clustering>
<clus scale="   21.158">  1  9  2 -1</clus>
<clus scale="   90.446">  7  8 -1 -1</clus>
<clus scale="   90.677">  5  6 -1 -1</clus>
<clus scale="   90.686">  2  7  1 -1</clus>
<clus scale="   21.158">  1  5  2 -1</clus>
</clustering>
</event>
<event>
 9    1  0.1464797E-005  0.9521657E+02  0.7546771E-02  0.1291111E+00
         21   -1    0    0  501  502  0.00000000000E+00  0.00000000000E+00  0.36189604439E+02  0.36189604439E+02  0.00000000000E+00 0.  1.
          3   -1    0    0  502    0 -0.00000000000E+00 -0.00000000000E+00 -0.46541110096E+03  0.46541110096E+03  0.00000000000E+00 0. -1.
         23    2    1    2    0    0  0.44753375228E+01 -0.21779197997E+01 -0.25903350179E+03  0.27564805984E+03  0.94120804630E+02 0.  0.
         23    2    1    2    0    0  0.13366401819E+02 -0.23837807723E+02 -0.16731894081E+03  0.19427651555E+03  0.94872729319E+02 0.  0.
        -11    1    3    3    0    0 -0.17706391343E+02  0.38329712071E+02 -0.76664396724E+02  0.87522070627E+02  0.00000000000E+00 0.  1.
         11    1    3    3    0    0  0.22181728866E+02 -0.40507631870E+02 -0.18236910507E+03  0.18812598922E+03  0.00000000000E+00 0. -1.
        -13    1    4    4    0    0  0.34299401269E+02  0.19530561479E+02 -0.32543966394E+02  0.51156636986E+02  0.00000000000E+00 0.  1.
         13    1    4    4    0    0 -0.20932999450E+02 -0.43368369202E+02 -0.13477497441E+03  0.14311987857E+03  0.00000000000E+00 0. -1.
          3    1    1    2  501    0 -0.17841739342E+02  0.26015727523E+02 -0.28690539203E+01  0.31676129999E+02  0.00000000000E+00 0. -1.
<scales pt_clust_5="13000.00000" pt_clust_6="13000.00000" pt_clust_7="13000.00000" pt_clust_8="13000.00000" pt_clust_9="31.54593"></scales>
<clustering>
<clus scale="   31.546">  1  9  2 -1</clus>
<clus scale="   94.121">  5  6 -1 -1</clus>
<clus scale="   94.467">  2  5  1 -1</clus>
<clus scale="   94.873">  7  8 -1 -1</clus>
<clus scale="   31.546">  1  5  2 -1</clus>
</clustering>
</event>
<event>
 9    1  0.1464797E-005  0.1336130E+03  0.7546771E-02  0.1225279E+00
          2   -1    0    0  502    0 -0.00000000000E+00  0.00000000000E+00  0.15551398786E+03  0.15551398786E+03  0.00000000000E+00 0. -1.
         21   -1    0    0  501  502  0.00000000000E+00 -0.00000000000E+00 -0.30392240422E+03  0.30392240422E+03  0.00000000000E+00 0. -1.
         23    2    1    2    0    0  0.71141682463E+02 -0.52785727298E+02  0.76452323724E+02  0.15488721917E+03  0.10147719384E+03 0.  0.
         23    2    1    2    0    0 -0.41724330241E+02  0.78257083454E+02 -0.69403947879E+02  0.14429629512E+03  0.90218745052E+02 0.  0.
        -11    1    4    4    0    0  0.15250683104E+02  0.17268457672E+02 -0.54961352308E+02  0.59594741488E+02  0.00000000000E+00 0.  1.
         11    1    4    4    0    0 -0.56975013345E+02  0.60988625782E+02 -0.14442595571E+02  0.84701553630E+02  0.00000000000E+00 0. -1.
        -13    1    3    3    0    0  0.53924680143E+02 -0.83524725757E+02  0.58324141031E+02  0.11526472300E+03  0.00000000000E+00 0. -1.
         13    1    3    3    0    0  0.17217002319E+02  0.30738998459E+02  0.18128182693E+02  0.39622496172E+02  0.00000000000E+00 0.  1.
          2    1    1    2  501    0 -0.29417352222E+02 -0.25471356157E+02 -0.15545679221E+03  0.16025287779E+03  0.00000000000E+00 0. -1.
<scales pt_clust_5="13000.00000" pt_clust_6="13000.00000" pt_clust_7="13000.00000" pt_clust_8="13000.00000" pt_clust_9="38.91235"></scales>
<clustering>
<clus scale="   38.912">  2  9  1 -1</clus>
<clus scale="   90.219">  5  6 -1 -1</clus>
<clus scale="  101.477">  7  8 -1 -1</clus>
<clus scale="  125.277">  2  5  1 -1</clus>
<clus scale="   38.912">  2  5  1 -1</clus>
</clustering>
</event>
<event>
 9    1  0.1464797E-005  0.1036891E+03  0.7546771E-02  0.1273780E+00
         21   -1    0    0  501  502  0.00000000000E+00  0.00000000000E+00  0.19381998412E+03  0.19381998412E+03  0.00000000000E+00 0. -1.
         -3   -1    0    0    0  501 -0.00000000000E+00 -0.00000000000E+00 -0.73208959054E+02  0.73208959054E+02  0.00000000000E+00 0.  1.
         23    2    1    2    0    0 -0.49942096622E+02  0.21097711217E+02  0.21976803368E+02  0.10945874006E+03  0.92514374318E+02 0.  0.
         23    2    1    2    0    0  0.32484018482E+02 -0.95602331824E+01  0.96812180737E+02  0.13656501983E+03  0.90170930935E+02 0.  0.
        -13    1    4    4    0    0  0.36191398831E+02 -0.44725441500E+02  0.41591422508E+02  0.70993160889E+02  0.00000000000E+00 0.  1.
         13    1    4    4    0    0 -0.37073803489E+01  0.35165208318E+02  0.55220758229E+02  0.65571858937E+02  0.00000000000E+00 0. -1.
        -13    1    3    3    0    0 -0.54574549406E+02  0.51772335405E+02  0.22211631328E+02  0.78435404777E+02  0.00000000000E+00 0. -1.
         13    1    3    3    0    0  0.46324527846E+01 -0.30674624188E+02 -0.23482796015E+00  0.31023335282E+02  0.00000000000E+00 0.  1.
         -3    1    1    2    0  502  0.17458078140E+02 -0.11537478035E+02  0.18220409603E+01  0.21005183289E+02  0.00000000000E+00 0.  1.
<scales pt_clust_5="13000.00000" pt_clust_6="13000.00000" pt_clust_7="13000.00000" pt_clust_8="13000.00000" pt_clust_9="20.92602"></scales>
<clustering>
<clus scale="   20.926">  1  9  2 -1</clus>
<clus scale="   90.171">  5  6 -1 -1</clus>
<clus scale="   92.514">  7  8 -1 -1</clus>
<clus scale="  101.604">  1  5  2 -1</clus>
<clus scale="   20.926">  1  5  2 -1</clus>
</clustering>
</event>
<event>
 9    1  0.1464797E-005  0.1182827E+03  0.7546771E-02  0.1246175E+00
          1   -1    0    0  502    0 -0.00000000000E+00  0.00000000000E+00  0.20607343688E+03  0.20607343688E+03  0.00000000000E+00 0. -1.
         21   -1    0    0  501  502  0.00000000000E+00 -0.00000000000E+00 -0.99172883725E+02  0.99172883725E+02  0.00000000000E+00 0.  1.
         23    2    1    2    0    0 -0.21833857700E+02  0.61010414458E+02  0.53994464428E+02  0.12412368445E+03  0.91062060371E+02 0.  0.
         23    2    1    2    0    0  0.57925584968E+02 -0.66822094203E+02  0.64447223322E+02  0.14278745405E+03  0.91729203496E+02 0.  0.
        -11    1    4    4    0    0 -0.21748940178E+02 -0.15805774752E+01  0.99257724558E+00  0.21828876141E+02  0.00000000000E+00 0. -1.
         11    1    4    4    0    0  0.79674525146E+02 -0.65241516727E+02  0.63454646076E+02  0.12095857791E+03  0.00000000000E+00 0.  1.
        -13    1    3    3    0    0  0.33967830490E+02  0.83110589978E+01  0.18475398459E+02  0.39550316789E+02  0.00000000000E+00 0.  1.
         13    1    3    3    0    0 -0.55801688190E+02  0.52699355460E+02  0.35519065969E+02  0.84573367664E+02  0.00000000000E+00 0. -1.
          1    1    1    2  501    0 -0.36091727268E+02  0.58116797449E+01 -0.11541134595E+02  0.38335182097E+02  0.00000000000E+00 0. -1.
<scales pt_clust_5="13000.00000" pt_clust_6="13000.00000" pt_clust_7="13000.00000" pt_clust_8="13000.00000" pt_clust_9="36.55665"></scales>
<clustering>
<clus scale="   36.557">  2  9  1 -1</clus>
<clus scale="   91.062">  7  8 -1 -1</clus>
<clus scale="   91.729">  5  6 -1 -1</clus>
<clus scale="  117.766">  1  7  2 -1</clus>
<clus scale="   36.557">  2  5  1 -1</clus>
</clustering>
</event>
<event>
 9    1  0.1464797E-005  0.1209422E+03  0.7546771E-02  0.1242745E+00
          2   -1    0    0  502    0 -0.00000000000E+00  0.00000000000E+00  0.30389857215E+03  0.30389857215E+03  0.00000000000E+00 0. -1.
         21   -1    0    0  501  502  0.00000000000E+00 -0.00000000000E+00 -0.17521610713E+03  0.17521610713E+03  0.00000000000E+00 0.  1.
         23    2    1    2    0    0  0.25074491673E+02 -0.65261634667E+02  0.23481323033E+03  0.26167191991E+03  0.91908266422E+02 0.  0.
         23    2    1    2    0    0 -0.47957691708E+02  0.95519694126E+02 -0.54560472293E+02  0.15342177743E+03  0.95589981128E+02 0.  0.
        -11    1    3    3    0    0  0.54066507979E+02 -0.14970048693E+02  0.95676466511E+02  0.11091111706E+03  0.00000000000E+00 0. -1.
         11    1    3    3    0    0 -0.28992016305E+02 -0.50291585973E+02  0.13913676382E+03  0.15076080285E+03  0.00000000000E+00 0.  1.
        -13    1    4    4    0    0 -0.30424505106E+02  0.51421011428E+02  0.21729261199E+02  0.63576188305E+02  0.00000000000E+00 0. -1.
         13    1    4    4    0    0 -0.17533186602E+02  0.44098682698E+02 -0.76289733492E+02  0.89845589121E+02  0.00000000000E+00 0.  1.
          2    1    1    2  501    0  0.22883200035E+02 -0.30258059459E+02 -0.51570293024E+02  0.64020981940E+02  0.00000000000E+00 0. -1.
<scales pt_clust_5="13000.00000" pt_clust_6="13000.00000" pt_clust_7="13000.00000" pt_clust_8="13000.00000" pt_clust_9="37.93667"></scales>
<clustering>
<clus scale="   37.937">  2  9  1 -1</clus>
<clus scale="   91.908">  5  6 -1 -1</clus>
<clus scale="   95.590">  7  8 -1 -1</clus>
<clus scale="  118.054">  1  5  2 -1</clus>
<clus scale="   37.937">  2  5  1 -1</clus>
</clustering>
</event>
<event>
 9    1  0.1464797E-005  0.1128748E+03  0.7546771E-02  0.1255425E+00
         -3   -1    0    0    0  501 -0.00000000000E+00  0.00000000000E+00  0.10543388855E+03  0.10543388855E+03  0.00000000000E+00 0.  1.
         21   -1    0    0  501  502  0.00000000000E+00 -0.00000000000E+00 -0.38383363049E+03  0.38383363049E+03  0.00000000000E+00 0.  1.
         23    2    1    2    0    0  0.65506977081E+02 -0.56234493348E+02  0.31007542060E+02  0.12927848631E+03  0.91093232835E+02 0.  0.
         23    2    1    2    0    0 -0.12635014889E+02  0.22058719486E+02 -0.85225181609E+02  0.12713490900E+03  0.90850001646E+02 0.  0.
        -11    1    4    4    0    0 -0.67953583771E+01 -0.33500221569E+02 -0.51712606376E+02  0.61988994175E+02  0.00000000000E+00 0. -1.
         11    1    4    4    0    0 -0.58396565124E+01  0.55558941055E+02 -0.33512575233E+02  0.65145914823E+02  0.00000000000E+00 0.  1.
        -13    1    3    3    0    0  0.39610365244E+02  0.65112071459E+01  0.44649737815E+02  0.60041451850E+02  0.00000000000E+00 0. -1.
         13    1    3    3    0    0  0.25896611837E+02 -0.62745700494E+02 -0.13642195756E+02  0.69237034455E+02  0.00000000000E+00 0.  1.
         -3    1    1    2    0  502 -0.52871962192E+02  0.34175773862E+02 -0.22418210239E+03  0.23285412373E+03  0.00000000000E+00 0.  1.
<scales pt_clust_5="13000.00000" pt_clust_6="13000.00000" pt_clust_7="13000.00000" pt_clust_8="13000.00000" pt_clust_9="62.95576"></scales>
<clustering>
<clus scale="   62.956">  2  9  1 -1</clus>
<clus scale="   90.850">  5  6 -1 -1</clus>
<clus scale="   91.093">  7  8 -1 -1</clus>
<clus scale="  112.679">  2  5  1 -1</clus>
<clus scale="   62.956">  2  5  1 -1</clus>
</clustering>
</event>
<event>
 9    1  0.1464797E-005  0.9540467E+02  0.7546771E-02  0.1291808E+00
          1   -1    0    0  502    0 -0.00000000000E+00  0.00000000000E+00  0.31257380672E+03  0.31257380672E+03  0.00000000000E+00 0. -1.
         21   -1    0    0  501  502  0.00000000000E+00 -0.00000000000E+00 -0.38642955607E+02  0.38642955607E+02  0.00000000000E+00 0.  1.
         23    2    1    2    0    0 -0.23040992775E+02 -0.25575888300E+02  0.13458800232E+03  0.16474754208E+03  0.88559634389E+02 0.  0.
         23    2    1    2    0    0  0.25166505395E+02 -0.25555741841E+01  0.97550784959E+02  0.13604627324E+03  0.91392280103E+02 0.  0.
        -11    1    4    4    0    0  0.52850159311E+02 -0.56153376928E+01  0.25799198241E+02  0.59078506976E+02  0.00000000000E+00 0.  1.
         11    1    4    4    0    0 -0.27683653916E+02  0.30597635088E+01  0.71751586717E+02  0.76967766262E+02  0.00000000000E+00 0. -1.
        -13    1    3    3    0    0 -0.49350544867E+02 -0.40829084173E+02  0.99278253077E+02  0.11814678128E+03  0.00000000000E+00 0.  1.
         13    1    3    3    0    0  0.26309552092E+02  0.15253195874E+02  0.35309749247E+02  0.46600760804E+02  0.00000000000E+00 0. -1.
          1    1    1    2  501    0 -0.21255126195E+01  0.28131462484E+02  0.41792063826E+02  0.50422947000E+02  0.00000000000E+00 0. -1.
<scales pt_clust_5="13000.00000" pt_clust_6="13000.00000" pt_clust_7="13000.00000" pt_clust_8="13000.00000" pt_clust_9="28.21166"></scales>
<clustering>
<clus scale="   28.212">  2  9  1 -1</clus>
<clus scale="   88.560">  7  8 -1 -1</clus>
<clus scale="   91.392">  5  6 -1 -1</clus>
<clus scale="   92.695">  1  7  2 -1</clus>
<clus scale="   28.212">  2  5  1 -1</clus>
</clustering>
</event>
<event>
 9    1  0.1464797E-005  0.1401496E+03  0.7546771E-02  0.1216370E+00
         -1   -1    0    0    0  501 -0.00000000000E+00  0.00000000000E+00  0.62731868037E+02  0.62731868037E+02  0.00000000000E+00 0.  1.
         21   -1    0    0  501  502  0.00000000000E+00 -0.00000000000E+00 -0.65582152365E+03  0.65582152365E+03  0.00000000000E+00 0.  1.
         23    2    1    2    0    0  0.10325777791E+02  0.69011371785E+02 -0.11447860760E+03  0.17011563230E+03  0.10471287234E+03 0.  0.
         23    2    1    2    0    0 -0.81423829044E+02 -0.12096102518E+03 -0.25182762728E+03  0.30515927842E+03  0.91889182156E+02 0.  0.
        -11    1    3    3    0    0 -0.12879592914E+02  0.89677330533E+02 -0.64305846513E+02  0.11109972737E+03  0.00000000000E+00 0.  1.
         11    1    3    3    0    0  0.23205370704E+02 -0.20665958748E+02 -0.50172761085E+02  0.59015904936E+02  0.00000000000E+00 0. -1.
        -13    1    4    4    0    0 -0.30142106407E+02 -0.10167184787E+03 -0.10850112411E+03  0.15171751765E+03  0.00000000000E+00 0.  1.
         13    1    4    4    0    0 -0.51281722636E+02 -0.19289177303E+02 -0.14332650317E+03  0.15344176077E+03  0.00000000000E+00 0. -1.
         -1    1    1    2    0  502  0.71098051253E+02  0.51949653391E+02 -0.22678342074E+03  0.24327848096E+03  0.00000000000E+00 0.  1.
<scales pt_clust_5="13000.00000" pt_clust_6="13000.00000" pt_clust_7="13000.00000" pt_clust_8="13000.00000" pt_clust_9="88.05509"></scales>
<clustering>
<clus scale="   88.055">  2  9  1 -1</clus>
<clus scale="   91.889">  7  8 -1 -1</clus>
<clus scale="  104.713">  5  6 -1 -1</clus>
<clus scale="  130.846">  2  7  1 -1</clus>
<clus scale="   88.055">  2  5  1 -1</clus>
</clustering>
</event>
<event>
 9    1  0.2976250E-005  0.9105230E+02  0.7546771E-02  0.1300753E+00
         21   -1    0    0  501  502  0.00000000000E+00  0.00000000000E+00  0.14504149076E+03  0.14504149076E+03  0.00000000000E+00 0.  1.
         -1   -1    0    0    0  501 -0.00000000000E+00 -0.00000000000E+00 -0.31993849646E+03  0.31993849646E+03  0.00000000000E+00 0.  1.
         23    2    1    2    0    0  0.83936791775E+01 -0.56292766604E+01 -0.24482840272E+03  0.26071941450E+03  0.89059102370E+02 0.  0.
         23    2    1    2    0    0 -0.15630916670E+02  0.41683303682E+02 -0.24288053724E+02  0.10311920942E+03  0.89787741017E+02 0.  0.
        -11    1    3    3    0    0 -0.28021612024E+02  0.18746742992E+02 -0.17545625780E+03  0.17866602787E+03  0.00000000000E+00 0.  1.
         11    1    3    3    0    0  0.36415291202E+02 -0.24376019652E+02 -0.69372144914E+02  0.82053386629E+02  0.00000000000E+00 0. -1.
        -13    1    4    4    0    0  0.23711406487E+02  0.10209337519E+02  0.22587516337E+02  0.34302438170E+02  0.00000000000E+00 0. -1.
         13    1    4    4    0    0 -0.39342323156E+02  0.31473966163E+02 -0.46875570061E+02  0.68816771254E+02  0.00000000000E+00 0.  1.
         -1    1    1    2    0  502  0.72372374923E+01 -0.36054027021E+02  0.94219450740E+02  0.10114136329E+03  0.00000000000E+00 0.  1.
<scales pt_clust_5="13000.00000" pt_clust_6="13000.00000" pt_clust_7="13000.00000" pt_clust_8="13000.00000" pt_clust_9="36.77323"></scales>
<clustering>
<clus scale="   36.773">  1  9  2 -1</clus>
<clus scale="   89.059">  5  6 -1 -1</clus>
<clus scale="   89.788">  7  8 -1 -1</clus>
<clus scale="   90.334">  2  5  1 -1</clus>
<clus scale="   36.773">  1  5  2 -1</clus>
</clustering>
</event>
<event>
 9    1  0.1464797E-005  0.1357064E+03  0.7546771E-02  0.1219851E+00
         21   -1    0    0  501  502  0.00000000000E+00  0.00000000000E+00  0.29382834215E+03  0.29382834215E+03  0.00000000000E+00 0.  1.
         -3   -1    0    0    0  501 -0.00000000000E+00 -0.00000000000E+00 -0.13088867513E+03  0.13088867513E+03  0.00000000000E+00 0.  1.
         23    2    1    2    0    0 -0.97243876541E+02 -0.51938886458E+02 -0.34977915631E+01  0.14292336179E+03  0.90889126684E+02 0.  0.
         23    2    1    2    0    0  0.69864203855E+02  0.51216242885E+02  0.15491744274E+02  0.12838316901E+03  0.93477983662E+02 0.  0.
        -13    1    4    4    0    0  0.18707152387E+01 -0.24423522343E+02 -0.40140129613E+01  0.24821771073E+02  0.00000000000E+00 0.  1.
         13    1    4    4    0    0  0.67993488617E+02  0.75639765228E+02  0.19505757236E+02  0.10356139794E+03  0.00000000000E+00 0. -1.
        -13    1    3    3    0    0 -0.76935045838E+02 -0.56085134011E+02 -0.38132172415E+02  0.10256025599E+03  0.00000000000E+00 0.  1.
         13    1    3    3    0    0 -0.20308830703E+02  0.41462475537E+01  0.34634380852E+02  0.40363105806E+02  0.00000000000E+00 0. -1.
         -3    1    1    2    0  502  0.27379672685E+02  0.72264357238E+00  0.15094571431E+03  0.15341048647E+03  0.00000000000E+00 0.  1.
<scales pt_clust_5="13000.00000" pt_clust_6="13000.00000" pt_clust_7="13000.00000" pt_clust_8="13000.00000" pt_clust_9="27.38921"></scales>
<clustering>
<clus scale="   27.389">  1  9  2 -1</clus>
<clus scale="   90.889">  7  8 -1 -1</clus>
<clus scale="   93.478">  5  6 -1 -1</clus>
<clus scale="  133.936">  2  7  1 -1</clus>
<clus scale="   27.389">  1  5  2 -1</clus>
</clustering>
</event>
<event>
 9    1  0.1464797E-005  0.1096564E+03  0.7546771E-02  0.1268667E+00
          1   -1    0    0  502    0 -0.00000000000E+00  0.00000000000E+00  0.27100076390E+03  0.27100076390E+03  0.00000000000E+00 0. -1.
         21   -1    0    0  501  502  0.00000000000E+00 -0.00000000000E+00 -0.56815601625E+02  0.56815601625E+02  0.00000000000E+00 0.  1.
         23    2    1    2    0    0  0.23802270035E+02  0.36629603497E+02  0.96644742424E+02  0.13926020863E+03  0.90249230239E+02 0.  0.
         23    2    1    2    0    0 -0.59365787150E+01 -0.59943223066E+01  0.62606620709E+02  0.12316941766E+03  0.10573524305E+03 0.  0.
        -11    1    3    3    0    0 -0.62157743602E+01  0.51977674418E+02  0.20927349241E+02  0.56376133559E+02  0.00000000000E+00 0.  1.
         11    1    3    3    0    0  0.30018044395E+02 -0.15348070921E+02  0.75717393183E+02  0.82884075073E+02  0.00000000000E+00 0. -1.
        -13    1    4    4    0    0 -0.40555390198E+02 -0.27014549539E+00  0.75567952290E+02  0.85763209280E+02  0.00000000000E+00 0. -1.
         13    1    4    4    0    0  0.34618811483E+02 -0.57241768112E+01 -0.12961331581E+02  0.37406208375E+02  0.00000000000E+00 0.  1.
          1    1    1    2  501    0 -0.17865691320E+02 -0.30635281191E+02  0.54933799145E+02  0.65386739240E+02  0.00000000000E+00 0. -1.
<scales pt_clust_5="13000.00000" pt_clust_6="13000.00000" pt_clust_7="13000.00000" pt_clust_8="13000.00000" pt_clust_9="35.46413"></scales>
<clustering>
<clus scale="   35.464">  2  9  1 -1</clus>
<clus scale="   90.249">  5  6 -1 -1</clus>
<clus scale="   94.813">  1  5  2 -1</clus>
<clus scale="  105.735">  7  8 -1 -1</clus>
<clus scale="   35.464">  2  5  1 -1</clus>
</clustering>
</event>
<event>
 9    1  0.1549425E-005  0.9895927E+02  0.7546771E-02  0.1285197E+00
         -2   -1    0    0    0  501 -0.00000000000E+00  0.00000000000E+00  0.23087683088E+03  0.23087683088E+03  0.00000000000E+00 0.  1.
         21   -1    0    0  501  502  0.00000000000E+00 -0.00000000000E+00 -0.10088111786E+03  0.10088111786E+03  0.00000000000E+00 0. -1.
         23    2    1    2    0    0  0.19866737019E+02 -0.13627422888E+02  0.16084185059E+03  0.18561504623E+03  0.89456417263E+02 0.  0.
         23    2    1    2    0    0 -0.41746393997E+02  0.37926763921E+02 -0.23903275794E+02  0.11271565773E+03  0.94616341451E+02 0.  0.
        -13    1    3    3    0    0  0.34076432921E+02 -0.45729781355E+02  0.10876874406E+03  0.12281309323E+03  0.00000000000E+00 0.  1.
         13    1    3    3    0    0 -0.14209695901E+02  0.32102358467E+02  0.52073106532E+02  0.62801953000E+02  0.00000000000E+00 0. -1.
        -13    1    4    4    0    0 -0.45181579304E+02  0.64497166660E+02 -0.31232982145E+01  0.78809990529E+02  0.00000000000E+00 0. -1.
         13    1    4    4    0    0  0.34351853069E+01 -0.26570402739E+02 -0.20779977580E+02  0.33905667196E+02  0.00000000000E+00 0.  1.
         -2    1    1    2    0  502  0.21879656977E+02 -0.24299341033E+02 -0.69428617839E+01  0.33427244784E+02  0.00000000000E+00 0.  1.
<scales pt_clust_5="13000.00000" pt_clust_6="13000.00000" pt_clust_7="13000.00000" pt_clust_8="13000.00000" pt_clust_9="32.69828"></scales>
<clustering>
<clus scale="   32.698">  2  9  1 -1</clus>
<clus scale="   89.456">  5  6 -1 -1</clus>
<clus scale="   94.038">  1  5  2 -1</clus>
<clus scale="   94.616">  7  8 -1 -1</clus>
<clus scale="   32.698">  2  5  1 -1</clus>
</clustering>
</event>
<event>
 9    1  0.1464797E-005  0.9264961E+02  0.7546771E-02  0.1297305E+00
         21   -1    0    0  501  502  0.00000000000E+00  0.00000000000E+00  0.34110991386E+02  0.34110991386E+02  0.00000000000E+00 0. -1.
         -1   -1    0    0    0  501 -0.00000000000E+00 -0.00000000000E+00 -0.43919637047E+03  0.43919637047E+03  0.00000000000E+00 0.  1.
         23    2    1    2    0    0  0.14401330270E+02  0.10635207805E+00 -0.21855282537E+03  0.23741117870E+03  0.91604152021E+02 0.  0.
         23    2    1    2    0    0  0.10364669403E+02 -0.36978895167E+02 -0.11008626093E+03  0.14748252554E+03  0.90317470262E+02 0.  0.
        -11    1    4    4    0    0  0.32851204568E+01  0.29845854465E+02 -0.25075045865E+02  0.39119368224E+02  0.00000000000E+00 0.  1.
         11    1    4    4    0    0  0.70795489459E+01 -0.66824749631E+02 -0.85011215069E+02  0.10836315732E+03  0.00000000000E+00 0. -1.
        -13    1    3    3    0    0 -0.27005983805E+02  0.25810241596E+02 -0.14059122319E+03  0.14546952867E+03  0.00000000000E+00 0.  1.
         13    1    3    3    0    0  0.41407314076E+02 -0.25703889518E+02 -0.77961602185E+02  0.91941650032E+02  0.00000000000E+00 0. -1.
         -1    1    1    2    0  502 -0.24765999673E+02  0.36872543089E+02 -0.76446292778E+02  0.88413657617E+02  0.00000000000E+00 0.  1.
<scales pt_clust_5="13000.00000" pt_clust_6="13000.00000" pt_clust_7="13000.00000" pt_clust_8="13000.00000" pt_clust_9="44.41780"></scales>
<clustering>
<clus scale="   44.418">  1  9  2 -1</clus>
<clus scale="   90.317">  5  6 -1 -1</clus>
<clus scale="   91.378">  1  5  2 -1</clus>
<clus scale="   91.604">  7  8 -1 -1</clus>
<clus scale="   44.418">  1  5  2 -1</clus>
</clustering>
</event>
<event>
 9    1  0.1464797E-005  0.1032592E+03  0.7546771E-02  0.1280663E+00
         21   -1    0    0  501  502  0.00000000000E+00  0.00000000000E+00  0.11762394159E+03  0.11762394159E+03  0.00000000000E+00 0. -1.
          2   -1    0    0  502    0 -0.00000000000E+00 -0.00000000000E+00 -0.49497996391E+03  0.49497996391E+03  0.00000000000E+00 0. -1.
         23    2    1    2    0    0 -0.22419028773E+01  0.21807791498E+02 -0.27110441058E+03  0.29067407485E+03  0.10253394782E+03 0.  0.
         23    2    1    2    0    0  0.11557157320E+02  0.14436683639E+01 -0.20293985684E+03  0.22204979717E+03  0.89363722317E+02 0.  0.
        -13    1    4    4    0    0  0.36956713012E+01 -0.38707795046E+02 -0.47865140301E+02  0.61668655245E+02  0.00000000000E+00 0.  1.
         13    1    4    4    0    0  0.78614860191E+01  0.40151463410E+02 -0.15507471653E+03  0.16038114192E+03  0.00000000000E+00 0. -1.
        -13    1    3    3    0    0  0.43158435619E+02  0.32537066131E+02 -0.18512782771E+03  0.19285648506E+03  0.00000000000E+00 0. -1.
         13    1    3    3    0    0 -0.45400338497E+02 -0.10729274634E+02 -0.85976582865E+02  0.97817589783E+02  0.00000000000E+00 0.  1.
          2    1    1    2  501    0 -0.93152544429E+01 -0.23251459862E+02  0.96688245092E+02  0.99880033491E+02  0.00000000000E+00 0. -1.
<scales pt_clust_5="13000.00000" pt_clust_6="13000.00000" pt_clust_7="13000.00000" pt_clust_8="13000.00000" pt_clust_9="25.04804"></scales>
<clustering>
<clus scale="   25.048">  1  9  2 -1</clus>
<clus scale="   89.364">  5  6 -1 -1</clus>
<clus scale="   90.195">  1  5  2 -1</clus>
<clus scale="  102.534">  7  8 -1 -1</clus>
<clus scale="   25.048">  1  5  2 -1</clus>
</clustering>
</event>
<event>
 9    1  0.1464797E-005  0.1003234E+03  0.7546771E-02  0.1280347E+00
         21   -1    0    0  501  502  0.00000000000E+00  0.00000000000E+00  0.53406726961E+02  0.53406726961E+02  0.00000000000E+00 0. -1.
          1   -1    0    0  502    0 -0.00000000000E+00 -0.00000000000E+00 -0.33368796040E+03  0.33368796040E+03  0.00000000000E+00 0. -1.
         23    2    1    2    0    0 -0.20561428673E+02 -0.23606342336E+02 -0.14851176063E+03  0.17688317797E+03  0.90839880315E+02 0.  0.
         23    2    1    2    0    0  0.21338577303E+01  0.54875083465E+02 -0.13638836053E+03  0.17362402974E+03  0.92345496272E+02 0.  0.
        -11    1    3    3    0    0 -0.33818371247E+02 -0.50623276653E+02 -0.69829468744E+02  0.92642069698E+02  0.00000000000E+00 0. -1.
         11    1    3    3    0    0  0.13256942574E+02  0.27016934317E+02 -0.78682291889E+02  0.84241108274E+02  0.00000000000E+00 0.  1.
        -13    1    4    4    0    0 -0.25802561924E+02 -0.78448901596E+01 -0.81112456016E+02  0.85478330730E+02  0.00000000000E+00 0.  1.
         13    1    4    4    0    0  0.27936419654E+02  0.62719973625E+02 -0.55275904516E+02  0.88145699014E+02  0.00000000000E+00 0. -1.
          1    1    1    2  501    0  0.18427570943E+02 -0.31268741130E+02  0.46188877292E+01  0.36587479642E+02  0.00000000000E+00 0. -1.
<scales pt_clust_5="13000.00000" pt_clust_6="13000.00000" pt_clust_7="13000.00000" pt_clust_8="13000.00000" pt_clust_9="36.29476"></scales>
<clustering>
<clus scale="   36.295">  1  9  2 -1</clus>
<clus scale="   90.840">  5  6 -1 -1</clus>
<clus scale="   92.345">  7  8 -1 -1</clus>
<clus scale="   98.939">  2  5  1 -1</clus>
<clus scale="   36.295">  1  5  2 -1</clus>
</clustering>
</event>
<event>
 9    1  0.1464797E-005  0.1135158E+03  0.7546771E-02  0.1254662E+00
         -2   -1    0    0    0  501 -0.00000000000E+00  0.00000000000E+00  0.25260235670E+03  0.25260235670E+03  0.00000000000E+00 0.  1.
         21   -1    0    0  501  502  0.00000000000E+00 -0.00000000000E+00 -0.18967376894E+03  0.18967376894E+03  0.00000000000E+00 0.  1.
         23    2    1    2    0    0 -0.59662990465E+02  0.44085419848E+02  0.17658660869E+03  0.21143702396E+03  0.89552152724E+02 0.  0.
         23    2    1    2    0    0  0.54692819778E+02 -0.21766174830E+02  0.86536187007E+01  0.10640844436E+03  0.88220184837E+02 0.  0.
        -11    1    4    4    0    0  0.12075711487E+02  0.32187574432E+02 -0.87720909145E+01  0.35479745415E+02  0.00000000000E+00 0.  1.
         11    1    4    4    0    0  0.42617108291E+02 -0.53953749262E+02  0.17425709615E+02  0.70928698946E+02  0.00000000000E+00 0. -1.
        -13    1    3    3    0    0 -0.57459433943E+02  0.69463853786E+02  0.12773722625E+03  0.15634453141E+03  0.00000000000E+00 0.  1.
         13    1    3    3    0    0 -0.22035565214E+01 -0.25378433938E+02  0.48849382435E+02  0.55092492545E+02  0.00000000000E+00 0. -1.
         -2    1    1    2    0  502  0.49701706870E+01 -0.22319245018E+02 -0.12231163962E+03  0.12443065732E+03  0.00000000000E+00 0.  1.
<scales pt_clust_5="13000.00000" pt_clust_6="13000.00000" pt_clust_7="13000.00000" pt_clust_8="13000.00000" pt_clust_9="22.86594"></scales>
<clustering>
<clus scale="   22.866">  2  9  1 -1</clus>
<clus scale="   88.220">  5  6 -1 -1</clus>
<clus scale="   89.552">  7  8 -1 -1</clus>
<clus scale="  112.468">  2  5  1 -1</clus>
<clus scale="   22.866">  2  5  1 -1</clus>
</clustering>
</event>
<event>
 9    1  0.1464797E-005  0.9945606E+02  0.7546771E-02  0.1282063E+00
         -3   -1    0    0    0  501 -0.00000000000E+00  0.00000000000E+00  0.62771134908E+03  0.62771134908E+03  0.00000000000E+00 0.  1.
         21   -1    0    0  501  502  0.00000000000E+00 -0.00000000000E+00 -0.39810531507E+02  0.39810531507E+02  0.00000000000E+00 0. -1.
         23    2    1    2    0    0 -0.34846804656E+02 -0.51212946626E+01  0.42803520681E+03  0.43910260849E+03  0.91413538699E+02 0.  0.
         23    2    1    2    0    0  0.51123290901E+02 -0.21765521014E+02  0.16550868039E+03  0.19648701417E+03  0.90148181764E+02 0.  0.
        -11    1    3    3    0    0 -0.64603045448E+02 -0.11580391873E+02  0.24943250071E+03  0.25792291749E+03  0.00000000000E+00 0.  1.
         11    1    3    3    0    0  0.29756240792E+02  0.64590972106E+01  0.17860270610E+03  0.18117969100E+03  0.00000000000E+00 0. -1.
        -11    1    4    4    0    0 -0.24871115647E+02 -0.12454178988E+02  0.30489331075E+02  0.41270792059E+02  0.00000000000E+00 0.  1.
         11    1    4    4    0    0  0.75994406548E+02 -0.93113420258E+01  0.13501934931E+03  0.15521622211E+03  0.00000000000E+00 0. -1.
         -3    1    1    2    0  502 -0.16276486245E+02  0.26886815677E+02 -0.56430696269E+01  0.31932257931E+02  0.00000000000E+00 0.  1.
<scales pt_clust_5="13000.00000" pt_clust_6="13000.00000" pt_clust_7="13000.00000" pt_clust_8="13000.00000" pt_clust_9="31.42968"></scales>
<clustering>
<clus scale="   31.430">  2  9  1 -1</clus>
<clus scale="   90.148">  7  8 -1 -1</clus>
<clus scale="   91.414">  5  6 -1 -1</clus>
<clus scale="   98.294">  2  7  1 -1</clus>
<clus scale="   31.430">  2  5  1 -1</clus>
</clustering>
</event>
<event>
 9    1  0.2156751E-005  0.9295810E+02  0.7546771E-02  0.1298566E+00
          1   -1    0    0  502    0 -0.00000000000E+00  0.00000000000E+00  0.40166957740E+03  0.40166957740E+03  0.00000000000E+00 0. -1.
         21   -1    0    0  501  502  0.00000000000E+00 -0.00000000000E+00 -0.21251709861E+03  0.21251709861E+03  0.00000000000E+00 0. -1.
         23    2    1    2    0    0 -0.42091804046E+02 -0.11293039717E+02  0.24433227874E+03  0.26263882706E+03  0.85916461353E+02 0.  0.
         23    2    1    2    0    0 -0.30249493158E+02  0.15393911210E+02  0.12457460468E+03  0.15773937025E+03  0.90613864598E+02 0.  0.
        -11    1    4    4    0    0  0.18331817896E+02 -0.17964721053E+02  0.76163196051E+01  0.26773028858E+02  0.00000000000E+00 0.  1.
         11    1    4    4    0    0 -0.48581311054E+02  0.33358632264E+02  0.11695828508E+03  0.13096634139E+03  0.00000000000E+00 0. -1.
        -13    1    3    3    0    0  0.23336196122E+02  0.27964580810E+01  0.11088856047E+03  0.11335197867E+03  0.00000000000E+00 0.  1.
         13    1    3    3    0    0 -0.65428000168E+02 -0.14089497798E+02  0.13344371828E+03  0.14928684839E+03  0.00000000000E+00 0. -1.
          1    1    1    2  501    0  0.72341297204E+02 -0.41008714934E+01 -0.17975440463E+03  0.19380847869E+03  0.00000000000E+00 0. -1.
<scales pt_clust_5="13000.00000" pt_clust_6="13000.00000" pt_clust_7="13000.00000" pt_clust_8="13000.00000" pt_clust_9="72.45744"></scales>
<clustering>
<clus scale="   72.457">  2  9  1 -1</clus>
<clus scale="   85.916">  7  8 -1 -1</clus>
<clus scale="   88.385">  1  7  2 -1</clus>
<clus scale="   90.614">  5  6 -1 -1</clus>
<clus scale="   72.457">  2  5  1 -1</clus>
</clustering>
</event>
<event>
 9    1  0.1464797E-005  0.2415278E+03  0.7546771E-02  0.1119124E+00
          1   -1    0    0  502    0 -0.00000000000E+00  0.00000000000E+00  0.76812745236E+02  0.76812745236E+02  0.00000000000E+00 0. -1.
         21   -1    0    0  501  502  0.00000000000E+00 -0.00000000000E+00 -0.99966879019E+03  0.99966879019E+03  0.00000000000E+00 0. -1.
         23    2    1    2    0    0 -0.46460303038E+01 -0.20136859541E+03 -0.42007259098E+03  0.47530874346E+03  0.94268356838E+02 0.  0.
         23    2    1    2    0    0 -0.13805763255E+01  0.24672553797E+03 -0.48637957215E+03  0.55256559534E+03  0.88815831176E+02 0.  0.
        -11    1    3    3    0    0  0.41536833179E+02 -0.81700042571E+02 -0.14101916692E+03  0.16818623875E+03  0.00000000000E+00 0.  1.
         11    1    3    3    0    0 -0.46182863483E+02 -0.11966855284E+03 -0.27905342406E+03  0.30712250471E+03  0.00000000000E+00 0. -1.
        -13    1    4    4    0    0  0.70341982202E+01  0.10222451150E+03 -0.11527965871E+03  0.15423595692E+03  0.00000000000E+00 0.  1.
         13    1    4    4    0    0 -0.84147745457E+01  0.14450102647E+03 -0.37109991345E+03  0.39832963841E+03  0.00000000000E+00 0. -1.
          1    1    1    2  501    0  0.60266066292E+01 -0.45356942554E+02 -0.16403881827E+02  0.48607196631E+02  0.00000000000E+00 0. -1.
<scales pt_clust_5="13000.00000" pt_clust_6="13000.00000" pt_clust_7="13000.00000" pt_clust_8="13000.00000" pt_clust_9="45.75559"></scales>
<clustering>
<clus scale="   45.756">  2  9  1 -1</clus>
<clus scale="   88.816">  7  8 -1 -1</clus>
<clus scale="   94.268">  5  6 -1 -1</clus>
<clus scale="  239.452">  2  7  1 -1</clus>
<clus scale="   45.756">  2  5  1 -1</clus>
</clustering>
</event>
<event>
 9    1  0.1464797E-005  0.1266759E+03  0.7546771E-02  0.1232899E+00
          2   -1    0    0  502    0 -0.00000000000E+00  0.00000000000E+00  0.40104047898E+03  0.40104047898E+03  0.00000000000E+00 0. -1.
         21   -1    0    0  501  502  0.00000000000E+00 -0.00000000000E+00 -0.12080253260E+03  0.12080253260E+03  0.00000000000E+00 0. -1.
         23    2    1    2    0    0 -0.51533769304E+02 -0.65503611349E+02  0.19043810996E+03  0.22696080112E+03  0.91093792555E+02 0.  0.
         23    2    1    2    0    0  0.39210931741E+02  0.82527200329E+02  0.16881104586E+03  0.21312387068E+03  0.92608741953E+02 0.  0.
        -11    1    3    3    0    0 -0.56288486356E+02  0.12811589616E+01  0.80398885856E+02  0.98153022936E+02  0.00000000000E+00 0.  1.
         11    1    3    3    0    0  0.47547170526E+01 -0.66784770310E+02  0.11003922410E+03  0.12880777819E+03  0.00000000000E+00 0. -1.
        -13    1    4    4    0    0  0.63034689871E+02  0.77628103324E+02  0.10578576846E+03  0.14556827732E+03  0.00000000000E+00 0.  1.
         13    1    4    4    0    0 -0.23823758130E+02  0.48990970051E+01  0.63025277396E+02  0.67555593356E+02  0.00000000000E+00 0. -1.
          2    1    1    2  501    0  0.12322837563E+02 -0.17023588981E+02 -0.79011209433E+02  0.81758339779E+02  0.00000000000E+00 0. -1.
<scales pt_clust_5="13000.00000" pt_clust_6="13000.00000" pt_clust_7="13000.00000" pt_clust_8="13000.00000" pt_clust_9="21.01559"></scales>
<clustering>
<clus scale="   21.016">  2  9  1 -1</clus>
<clus scale="   91.094">  5  6 -1 -1</clus>
<clus scale="   92.609">  7  8 -1 -1</clus>
<clus scale="  125.573">  1  5  2 -1</clus>
<clus scale="   21.016">  2  5  1 -1</clus>
</clustering>
</event>
<event>
 9    1  0.1464797E-005  0.1670102E+03  0.7546771E-02  0.1181144E+00
         21   -1    0    0  501  502  0.00000000000E+00  0.00000000000E+00  0.34421643259E+03  0.34421643259E+03  0.00000000000E+00 0. -1.
          3   -1    0    0  502    0 -0.00000000000E+00 -0.00000000000E+00 -0.14236571949E+03  0.14236571949E+03  0.00000000000E+00 0. -1.
         23    2    1    2    0    0 -0.12256821021E+03  0.14335743704E+02  0.65701650350E+01  0.15384401034E+03  0.91631505216E+02 0.  0.
         23    2    1    2    0    0  0.16790137746E+03 -0.12581099616E+02  0.77166106836E+02  0.20621068994E+03  0.90659163799E+02 0.  0.
        -11    1    3    3    0    0 -0.10442106389E+03 -0.24027799616E+02 -0.11404957918E+02  0.10775512425E+03  0.00000000000E+00 0. -1.
         11    1    3    3    0    0 -0.18147146321E+02  0.38363543320E+02  0.17975122953E+02  0.46088886088E+02  0.00000000000E+00 0.  1.
        -13    1    4    4    0    0  0.95508778610E+02 -0.25217180805E+02  0.87547458931E+02  0.13199390351E+03  0.00000000000E+00 0.  1.
         13    1    4    4    0    0  0.72392598855E+02  0.12636081189E+02 -0.10381352095E+02  0.74216786431E+02  0.00000000000E+00 0. -1.
          3    1    1    2  501    0 -0.45333167258E+02 -0.17546440881E+01  0.11811444124E+03  0.12652745180E+03  0.00000000000E+00 0. -1.
<scales pt_clust_5="13000.00000" pt_clust_6="13000.00000" pt_clust_7="13000.00000" pt_clust_8="13000.00000" pt_clust_9="45.36711"></scales>
<clustering>
<clus scale="   45.367">  1  9  2 -1</clus>
<clus scale="   90.659">  7  8 -1 -1</clus>
<clus scale="   91.632">  5  6 -1 -1</clus>
<clus scale="  166.479">  1  7  2 -1</clus>
<clus scale="   45.367">  1  5  2 -1</clus>
</clustering>
</event>
<event>
 9    1  0.1464797E-005  0.1245531E+03  0.7546771E-02  0.1236318E+00
          2   -1    0    0  502    0 -0.00000000000E+00  0.00000000000E+00  0.57240170694E+03  0.57240170694E+03  0.00000000000E+00 0. -1.
         21   -1    0    0  501  502  0.00000000000E+00 -0.00000000000E+00 -0.57164396487E+02  0.57164396487E+02  0.00000000000E+00 0.  1.
         23    2    1    2    0    0  0.53669150070E+02 -0.58815811654E+02  0.35046999061E+03  0.37024915884E+03  0.88969365154E+02 0.  0.
         23    2    1    2    0    0 -0.52422980455E+02  0.10807508250E+03  0.10434846863E+03  0.18135242519E+03  0.87015555390E+02 0.  0.
        -11    1    4    4    0    0 -0.31662922512E+02  0.10436085036E+03  0.44307563410E+02  0.11771528332E+03  0.00000000000E+00 0.  1.
         11    1    4    4    0    0 -0.20760057943E+02  0.37142321335E+01  0.60040905221E+02  0.63637141874E+02  0.00000000000E+00 0. -1.
        -13    1    3    3    0    0  0.43893470299E+02 -0.82413836094E+02  0.28801899997E+03  0.30277652066E+03  0.00000000000E+00 0. -1.
         13    1    3    3    0    0  0.97756797712E+01  0.23598024440E+02  0.62450990632E+02  0.67472638183E+02  0.00000000000E+00 0.  1.
          2    1    1    2  501    0 -0.12461696153E+01 -0.49259270843E+02  0.60418851219E+02  0.77964519400E+02  0.00000000000E+00 0. -1.
<scales pt_clust_5="13000.00000" pt_clust_6="13000.00000" pt_clust_7="13000.00000" pt_clust_8="13000.00000" pt_clust_9="49.27503"></scales>
<clustering>
<clus scale="   49.275">  2  9  1 -1</clus>
<clus scale="   87.016">  5  6 -1 -1</clus>
<clus scale="   88.969">  7  8 -1 -1</clus>
<clus scale="  123.165">  2  5  1 -1</clus>
<clus scale="   49.275">  2  5  1 -1</clus>
</clustering>
</event>
<event>
 9    1  0.1878974E-005  0.1411671E+03  0.7546771E-02  0.1213357E+00
          2   -1    0    0  502    0 -0.00000000000E+00  0.00000000000E+00  0.38222141316E+03  0.38222141316E+03  0.00000000000E+00 0. -1.
         21   -1    0    0  501  502  0.00000000000E+00 -0.00000000000E+00 -0.19938032377E+03  0.19938032377E+03  0.00000000000E+00 0.  1.
         23    2    1    2    0    0  0.17100248189E+02 -0.10553729221E+03  0.33402907843E+03  0.36398627397E+03  0.97365516841E+02 0.  0.
         23    2    1    2    0    0 -0.16792607577E+02  0.58217382312E+02 -0.11193464698E+03  0.15613299897E+03  0.90426173757E+02 0.  0.
        -13    1    4    4    0    0  0.62420971984E+01 -0.23181984047E+02 -0.20529701312E+02  0.31588554854E+02  0.00000000000E+00 0. -1.
         13    1    4    4    0    0 -0.23034704775E+02  0.81399366359E+02 -0.91404945670E+02  0.12454444412E+03  0.00000000000E+00 0.  1.
        -13    1    3    3    0    0 -0.26171699884E+02  0.36693993899E+01  0.48388486509E+02  0.55134997900E+02  0.00000000000E+00 0.  1.
         13    1    3    3    0    0  0.43271948074E+02 -0.10920669160E+03  0.28564059192E+03  0.30885127608E+03  0.00000000000E+00 0. -1.
          2    1    1    2  501    0 -0.30764061260E+00  0.47319909893E+02 -0.39253342060E+02  0.61482463987E+02  0.00000000000E+00 0. -1.
<scales pt_clust_5="13000.00000" pt_clust_6="13000.00000" pt_clust_7="13000.00000" pt_clust_8="13000.00000" pt_clust_9="47.32091"></scales>
<clustering>
<clus scale="   47.321">  2  9  1 -1</clus>
<clus scale="   90.426">  5  6 -1 -1</clus>
<clus scale="   97.366">  7  8 -1 -1</clus>
<clus scale="  136.473">  2  5  1 -1</clus>
<clus scale="   47.321">  2  5  1 -1</clus>
</clustering>
</event>
<event>
 9    1  0.1464797E-005  0.1020036E+03  0.7546771E-02  0.1279604E+00
         21   -1    0    0  501  502  0.00000000000E+00  0.00000000000E+00  0.51145665546E+02  0.51145665546E+02  0.00000000000E+00 0.  1.
         -1   -1    0    0    0  501 -0.00000000000E+00 -0.00000000000E+00 -0.62207164493E+03  0.62207164493E+03  0.00000000000E+00 0.  1.
         23    2    1    2    0    0  0.34991901545E+02  0.60519758205E+01 -0.32552632896E+03  0.33907790679E+03  0.88007820330E+02 0.  0.
         23    2    1    2    0    0 -0.39500119028E+02  0.16083421241E+02 -0.27662841497E+03  0.29559675765E+03  0.95053812756E+02 0.  0.
        -11    1    3    3    0    0  0.14181281396E+02 -0.39167525754E+02 -0.10409434735E+03  0.11211974387E+03  0.00000000000E+00 0. -1.
         11    1    3    3    0    0  0.20810620149E+02  0.45219501574E+02 -0.22143198162E+03  0.22695816292E+03  0.00000000000E+00 0.  1.
        -13    1    4    4    0    0 -0.68263364302E+02 -0.26941990681E+01 -0.15899649513E+03  0.17305210509E+03  0.00000000000E+00 0. -1.
         13    1    4    4    0    0  0.28763245274E+02  0.18777620309E+02 -0.11763191985E+03  0.12254465256E+03  0.00000000000E+00 0.  1.
         -1    1    1    2    0  502  0.45082174832E+01 -0.22135397061E+02  0.31228764554E+02  0.38542646037E+02  0.00000000000E+00 0.  1.
<scales pt_clust_5="13000.00000" pt_clust_6="13000.00000" pt_clust_7="13000.00000" pt_clust_8="13000.00000" pt_clust_9="22.58982"></scales>
<clustering>
<clus scale="   22.590">  1  9  2 -1</clus>
<clus scale="   88.008">  5  6 -1 -1</clus>
<clus scale="   95.054">  7  8 -1 -1</clus>
<clus scale="   95.472">  2  5  1 -1</clus>
<clus scale="   22.590">  1  5  2 -1</clus>
</clustering>
</event>
<event>
 9    1  0.1464797E-005  0.1197273E+03  0.7546771E-02  0.1245147E+00
         -3   -1    0    0    0  501 -0.00000000000E+00  0.00000000000E+00  0.16235223712E+03  0.16235223712E+03  0.00000000000E+00 0.  1.
         21   -1    0    0  501  502  0.00000000000E+00 -0.00000000000E+00 -0.15621907225E+03  0.15621907225E+03  0.00000000000E+00 0.  1.
         23    2    1    2    0    0  0.74114002475E+02  0.18714792795E+02  0.86713710382E+02  0.15079082330E+03  0.96827041635E+02 0.  0.
         23    2    1    2    0    0 -0.50124947861E+02 -0.29854268488E+02 -0.33962332207E+02  0.11418178765E+03  0.92088288496E+02 0.  0.
        -11    1    4    4    0    0  0.25217830358E+02  0.44285547354E+01 -0.28909650225E+01  0.25766426678E+02  0.00000000000E+00 0.  1.
         11    1    4    4    0    0 -0.75342778219E+02 -0.34282823224E+02 -0.31071367185E+02  0.88415360977E+02  0.00000000000E+00 0. -1.
        -13    1    3    3    0    0  0.87797927706E+02 -0.89812588168E+01  0.80128807038E+02  0.11920471818E+03  0.00000000000E+00 0.  1.
         13    1    3    3    0    0 -0.13683925231E+02  0.27696051612E+02  0.65849033439E+01  0.31586105121E+02  0.00000000000E+00 0. -1.
         -3    1    1    2    0  502 -0.23989054614E+02  0.11139475693E+02 -0.46618213308E+02  0.53598698418E+02  0.00000000000E+00 0.  1.
<scales pt_clust_5="13000.00000" pt_clust_6="13000.00000" pt_clust_7="13000.00000" pt_clust_8="13000.00000" pt_clust_9="26.44925"></scales>
<clustering>
<clus scale="   26.449">  2  9  1 -1</clus>
<clus scale="   92.088">  5  6 -1 -1</clus>
<clus scale="   96.827">  7  8 -1 -1</clus>
<clus scale="  115.928">  2  5  1 -1</clus>
<clus scale="   26.449">  2  5  1 -1</clus>
</clustering>
</event>
<event>
 9    1  0.1464797E-005  0.1110435E+03  0.7546771E-02  0.1262472E+00
         21   -1    0    0  501  502  0.00000000000E+00  0.00000000000E+00  0.29020065543E+03  0.29020065543E+03  0.00000000000E+00 0. -1.
         -3   -1    0    0    0  501 -0.00000000000E+00 -0.00000000000E+00 -0.97980590850E+02  0.97980590850E+02  0.00000000000E+00 0.  1.
         23    2    1    2    0    0 -0.26089211114E+02 -0.42125417372E+02 -0.86438016328E+01  0.11187634933E+03  0.99931999413E+02 0.  0.
         23    2    1    2    0    0 -0.12874168784E+01  0.51773996143E+02  0.38706463847E+02  0.11156996449E+03  0.90925587781E+02 0.  0.
        -11    1    4    4    0    0 -0.11462025316E+02 -0.24837849129E+02  0.98922622034E+01  0.29088719897E+02  0.00000000000E+00 0. -1.
         11    1    4    4    0    0  0.10174608438E+02  0.76611845272E+02  0.28814201644E+02  0.82481244591E+02  0.00000000000E+00 0.  1.
        -13    1    3    3    0    0 -0.14590946110E+02  0.32703028343E+02 -0.38785660837E+01  0.36019814631E+02  0.00000000000E+00 0.  1.
         13    1    3    3    0    0 -0.11498265004E+02 -0.74828445715E+02 -0.47652355490E+01  0.75856534696E+02  0.00000000000E+00 0. -1.
         -3    1    1    2    0  502  0.27376627993E+02 -0.96485787705E+01  0.16215740237E+03  0.16473493247E+03  0.00000000000E+00 0.  1.
<scales pt_clust_5="13000.00000" pt_clust_6="13000.00000" pt_clust_7="13000.00000" pt_clust_8="13000.00000" pt_clust_9="29.02714"></scales>
<clustering>
<clus scale="   29.027">  1  9  2 -1</clus>
<clus scale="   90.926">  5  6 -1 -1</clus>
<clus scale="   99.932">  7  8 -1 -1</clus>
<clus scale="  103.013">  1  5  2 -1</clus>
<clus scale="   29.027">  1  5  2 -1</clus>
</clustering>
</event>
<event>
 9    1  0.1464797E-005  0.1531728E+03  0.7546771E-02  0.1197317E+00
          1   -1    0    0  502    0 -0.00000000000E+00  0.00000000000E+00  0.47056568776E+03  0.47056568776E+03  0.00000000000E+00 0. -1.
         21   -1    0    0  501  502  0.00000000000E+00 -0.00000000000E+00 -0.17624591061E+03  0.17624591061E+03  0.00000000000E+00 0. -1.
         23    2    1    2    0    0  0.11462924127E+03  0.29670546811E+02  0.35077705347E+03  0.38236077709E+03  0.95577289722E+02 0.  0.
         23    2    1    2    0    0 -0.99551478179E+02 -0.10915484787E+03 -0.18070631001E+02  0.17490403132E+03  0.91867267540E+02 0.  0.
        -11    1    4    4    0    0 -0.16505833801E+02  0.13943772099E+02 -0.15139391702E+02  0.26383186140E+02  0.00000000000E+00 0.  1.
         11    1    4    4    0    0 -0.83045644379E+02 -0.12309861997E+03 -0.29312392982E+01  0.14852084518E+03  0.00000000000E+00 0. -1.
        -13    1    3    3    0    0  0.11441880871E+03 -0.74196707376E+01  0.27673698922E+03  0.29954978969E+03  0.00000000000E+00 0. -1.
         13    1    3    3    0    0  0.21043256337E+00  0.37090217549E+02  0.74040064256E+02  0.82810987403E+02  0.00000000000E+00 0.  1.
          1    1    1    2  501    0 -0.15077763093E+02  0.79484301057E+02 -0.38386645314E+02  0.89546789964E+02  0.00000000000E+00 0. -1.
<scales pt_clust_5="13000.00000" pt_clust_6="13000.00000" pt_clust_7="13000.00000" pt_clust_8="13000.00000" pt_clust_9="80.90175"></scales>
<clustering>
<clus scale="   80.902">  2  9  1 -1</clus>
<clus scale="   91.867">  5  6 -1 -1</clus>
<clus scale="   95.577">  7  8 -1 -1</clus>
<clus scale="  150.886">  2  5  1 -1</clus>
<clus scale="   80.902">  2  5  1 -1</clus>
</clustering>
</event>
<event>
 9    1  0.1464797E-005  0.1678322E+03  0.7546771E-02  0.1180240E+00
         21   -1    0    0  501  502  0.00000000000E+00  0.00000000000E+00  0.94754146750E+02  0.94754146750E+02  0.00000000000E+00 0.  1.
          2   -1    0    0  502    0 -0.00000000000E+00 -0.00000000000E+00 -0.80079150650E+03  0.80079150650E+03  0.00000000000E+00 0. -1.
         23    2    1    2    0    0  0.57405503029E+02  0.12187154883E+03 -0.59007893906E+03  0.61197778000E+03  0.90418928919E+02 0.  0.
         23    2    1    2    0    0 -0.50127210016E+02 -0.16833519577E+03 -0.12791159189E+03  0.23504239192E+03  0.89633003622E+02 0.  0.
        -13    1    4    4    0    0 -0.64027946996E+02 -0.10098750856E+03 -0.46063093231E+02  0.12814001498E+03  0.00000000000E+00 0.  1.
         13    1    4    4    0    0  0.13900736980E+02 -0.67347687217E+02 -0.81848498663E+02  0.10690237694E+03  0.00000000000E+00 0. -1.
        -13    1    3    3    0    0  0.20027121709E+02  0.39603833509E+02 -0.62133447151E+02  0.76355186382E+02  0.00000000000E+00 0.  1.
         13    1    3    3    0    0  0.37378381320E+02  0.82267715326E+02 -0.52794549191E+03  0.53562259362E+03  0.00000000000E+00 0. -1.
          2    1    1    2  501    0 -0.72782930123E+01  0.46463646938E+02  0.11953171204E+02  0.48525481324E+02  0.00000000000E+00 0. -1.
<scales pt_clust_5="13000.00000" pt_clust_6="13000.00000" pt_clust_7="13000.00000" pt_clust_8="13000.00000" pt_clust_9="47.03025"></scales>
<clustering>
<clus scale="   47.030">  1  9  2 -1</clus>
<clus scale="   89.633">  5  6 -1 -1</clus>
<clus scale="   90.419">  7  8 -1 -1</clus>
<clus scale="  167.410">  1  5  2 -1</clus>
<clus scale="   47.030">  1  5  2 -1</clus>
</clustering>
</event>
<event>
 9    1  0.1464797E-005  0.1040123E+03  0.7546771E-02  0.1272124E+00
         21   -1    0    0  501  502  0.00000000000E+00  0.00000000000E+00  0.16272555639E+03  0.16272555639E+03  0.00000000000E+00 0.  1.
          2   -1    0    0  502    0 -0.00000000000E+00 -0.00000000000E+00 -0.26005869547E+03  0.26005869547E+03  0.00000000000E+00 0.  1.
         23    2    1    2    0    0 -0.62735458853E+02  0.27245956357E+02 -0.16178536503E+03  0.19830241070E+03  0.92039457932E+02 0.  0.
         23    2    1    2    0    0  0.10466402784E+00  0.55853755402E+02  0.95690845915E+01  0.10683687629E+03  0.90569850438E+02 0.  0.
        -11    1    3    3    0    0 -0.42718146139E+02  0.61563445556E+02 -0.10453653650E+03  0.12861875953E+03  0.00000000000E+00 0.  1.
         11    1    3    3    0    0 -0.20017312714E+02 -0.34317489198E+02 -0.57248828521E+02  0.69683651169E+02  0.00000000000E+00 0. -1.
        -11    1    4    4    0    0  0.37730754586E+02  0.44797429640E+02  0.26295654606E+02  0.64201876882E+02  0.00000000000E+00 0. -1.
         11    1    4    4    0    0 -0.37626090558E+02  0.11056325762E+02 -0.16726570014E+02  0.42634999408E+02  0.00000000000E+00 0.  1.
          2    1    1    2  501    0  0.62630794825E+02 -0.83099711759E+02  0.54883141350E+02  0.11764496487E+03  0.00000000000E+00 0.  1.
<scales pt_clust_5="13000.00000" pt_clust_6="13000.00000" pt_clust_7="13000.00000" pt_clust_8="13000.00000" pt_clust_9="104.05853"></scales>
<clustering>
<clus scale="   90.570">  7  8 -1 -1</clus>
<clus scale="   92.039">  5  6 -1 -1</clus>
<clus scale="  104.059">  1  9  2 -1</clus>
<clus scale="  104.059">  1  7  2 -1</clus>
<clus scale="  104.012">  1  5  2 -1</clus>
</clustering>
</event>
<event>
 9    1  0.2419666E-005  0.1520210E+03  0.7546771E-02  0.1201188E+00
         21   -1    0    0  501  502  0.00000000000E+00  0.00000000000E+00  0.21961092845E+03  0.21961092845E+03  0.00000000000E+00 0. -1.
          3   -1    0    0  502    0 -0.00000000000E+00 -0.00000000000E+00 -0.12056235576E+04  0.12056235576E+04  0.00000000000E+00 0. -1.
         23    2    1    2    0    0 -0.72876365526E+02 -0.30835949457E+02 -0.45747093690E+03  0.47612674233E+03  0.10561816237E+03 0.  0.
         23    2    1    2    0    0  0.15664047073E+03 -0.48342776075E+02 -0.70992773513E+03  0.73419708222E+03  0.90414077251E+02 0.  0.
        -13    1    4    4    0    0  0.41022644154E+02  0.10239576265E-01 -0.62559045159E+02  0.74809702375E+02  0.00000000000E+00 0.  1.
         13    1    4    4    0    0  0.11561782657E+03 -0.48353015651E+02 -0.64736868997E+03  0.65938737984E+03  0.00000000000E+00 0. -1.
        -13    1    3    3    0    0 -0.37844765737E+02  0.38674875190E+02 -0.19202941181E+03  0.19950756193E+03  0.00000000000E+00 0.  1.
         13    1    3    3    0    0 -0.35031599789E+02 -0.69510824647E+02 -0.26544152509E+03  0.27661918040E+03  0.00000000000E+00 0. -1.
          3    1    1    2  501    0 -0.83764105202E+02  0.79178725532E+02  0.18138604285E+03  0.21491066153E+03  0.00000000000E+00 0. -1.
<scales pt_clust_5="13000.00000" pt_clust_6="13000.00000" pt_clust_7="13000.00000" pt_clust_8="13000.00000" pt_clust_9="115.26359"></scales>
<clustering>
<clus scale="   90.414">  5  6 -1 -1</clus>
<clus scale="  105.618">  7  8 -1 -1</clus>
<clus scale="  115.264">  1  9  2 -1</clus>
<clus scale="  141.880">  1  5  2 -1</clus>
<clus scale="  115.264">  1  5  2 -1</clus>
</clustering>
</event>
<event>
 9    1  0.1464797E-005  0.1816610E+03  0.7546771E-02  0.1177320E+00
         21   -1    0    0  501  502  0.00000000000E+00  0.00000000000E+00  0.58628087012E+02  0.58628087012E+02  0.00000000000E+00 0. -1.
          2   -1    0    0  502    0 -0.00000000000E+00 -0.00000000000E+00 -0.12610358329E+04  0.12610358329E+04  0.00000000000E+00 0.  1.
         23    2    1    2    0    0  0.11093818581E+03  0.58354008043E+01 -0.53047252796E+03  0.54888846198E+03  0.86810758564E+02 0.  0.
         23    2    1    2    0    0 -0.13956233733E+03 -0.14913003328E+03 -0.48126551063E+03  0.53055133128E+03  0.90281839680E+02 0.  0.
        -11    1    3    3    0    0  0.82977581393E+02 -0.11015731182E+02 -0.48897981265E+03  0.49609261487E+03  0.00000000000E+00 0.  1.
         11    1    3    3    0    0  0.27960604417E+02  0.16851131986E+02 -0.41492715308E+02  0.52795847111E+02  0.00000000000E+00 0. -1.
        -11    1    4    4    0    0 -0.32446033414E+01 -0.60649878995E+02 -0.13645835171E+03  0.14936471144E+03  0.00000000000E+00 0.  1.
         11    1    4    4    0    0 -0.13631773398E+03 -0.88480154280E+02 -0.34480715891E+03  0.38118661983E+03  0.00000000000E+00 0. -1.
          2    1    1    2  501    0  0.28624151517E+02  0.14329463247E+03 -0.19066970730E+03  0.24022412666E+03  0.00000000000E+00 0.  1.
<scales pt_clust_5="13000.00000" pt_clust_6="13000.00000" pt_clust_7="13000.00000" pt_clust_8="13000.00000" pt_clust_9="157.63859"></scales>
<clustering>
<clus scale="   86.811">  5  6 -1 -1</clus>
<clus scale="   90.282">  7  8 -1 -1</clus>
<clus scale="  140.987">  2  5  1 -1</clus>
<clus scale="  157.639">  1  9  2 -1</clus>
<clus scale="  157.639">  1  5  2 -1</clus>
</clustering>
</event>
<event>
 9    1  0.1464797E-005  0.1630656E+03  0.7546771E-02  0.1185607E+00
          3   -1    0    0  502    0 -0.00000000000E+00  0.00000000000E+00  0.55323295222E+03  0.55323295222E+03  0.00000000000E+00 0. -1.
         21   -1    0    0  501  502  0.00000000000E+00 -0.00000000000E+00 -0.11522039355E+03  0.11522039355E+03  0.00000000000E+00 0.  1.
         23    2    1    2    0    0  0.55906320217E+02  0.12337571293E+03  0.41522623952E+03  0.44601029450E+03  0.90361881487E+02 0.  0.
         23    2    1    2    0    0 -0.98093474379E+02 -0.94519338512E+02 -0.40885361386E+01  0.16469615381E+03  0.92476331480E+02 0.  0.
        -11    1    4    4    0    0 -0.65655964224E+02 -0.10246954543E+03 -0.26402205218E+02  0.12453027672E+03  0.00000000000E+00 0.  1.
         11    1    4    4    0    0 -0.32437510154E+02  0.79502069168E+01  0.22313669079E+02  0.40165877095E+02  0.00000000000E+00 0. -1.
        -13    1    3    3    0    0 -0.13850443276E+02  0.68478107143E+02  0.13418636378E+03  0.15128471886E+03  0.00000000000E+00 0. -1.
         13    1    3    3    0    0  0.69756763493E+02  0.54897605787E+02  0.28103987574E+03  0.29472557563E+03  0.00000000000E+00 0.  1.
          3    1    1    2  501    0  0.42187154161E+02 -0.28856374419E+02  0.26874855281E+02  0.57746897468E+02  0.00000000000E+00 0. -1.
<scales pt_clust_5="13000.00000" pt_clust_6="13000.00000" pt_clust_7="13000.00000" pt_clust_8="13000.00000" pt_clust_9="51.11210"></scales>
<clustering>
<clus scale="   51.112">  2  9  1 -1</clus>
<clus scale="   90.362">  7  8 -1 -1</clus>
<clus scale="   92.476">  5  6 -1 -1</clus>
<clus scale="  161.876">  1  7  2 -1</clus>
<clus scale="   51.112">  2  5  1 -1</clus>
</clustering>
</event>
<event>
 9    1  0.1464797E-005  0.1053026E+03  0.7546771E-02  0.1270080E+00
          1   -1    0    0  502    0 -0.00000000000E+00  0.00000000000E+00  0.22016895087E+03  0.22016895087E+03  0.00000000000E+00 0. -1.
         21   -1    0    0  501  502  0.00000000000E+00 -0.00000000000E+00 -0.35662060689E+03  0.35662060689E+03  0.00000000000E+00 0. -1.
         23    2    1    2    0    0 -0.48891524584E+02 -0.61250239735E+01  0.14517928182E+03  0.17862663955E+03  0.91665453644E+02 0.  0.
         23    2    1    2    0    0  0.62892788965E+02 -0.64460760086E+02 -0.22914767813E+02  0.12962531386E+03  0.90371139833E+02 0.  0.
        -13    1    3    3    0    0  0.25879965068E+02  0.62172463581E+01  0.52890216737E+02  0.59209811440E+02  0.00000000000E+00 0.  1.
         13    1    3    3    0    0 -0.74771489653E+02 -0.12342270332E+02  0.92289065087E+02  0.11941682811E+03  0.00000000000E+00 0. -1.
        -13    1    4    4    0    0 -0.56206885532E+01 -0.51898062708E+02  0.90589453451E+01  0.52981747267E+02  0.00000000000E+00 0. -1.
         13    1    4    4    0    0  0.68513477518E+02 -0.12562697378E+02 -0.31973713158E+02  0.76643566593E+02  0.00000000000E+00 0.  1.
          1    1    1    2  501    0 -0.14001264380E+02  0.70585784060E+02 -0.25871617003E+03  0.26853760435E+03  0.00000000000E+00 0. -1.
<scales pt_clust_5="13000.00000" pt_clust_6="13000.00000" pt_clust_7="13000.00000" pt_clust_8="13000.00000" pt_clust_9="71.96102"></scales>
<clustering>
<clus scale="   71.961">  2  9  1 -1</clus>
<clus scale="   90.371">  7  8 -1 -1</clus>
<clus scale="   91.665">  5  6 -1 -1</clus>
<clus scale="  104.178">  2  7  1 -1</clus>
<clus scale="   71.961">  2  5  1 -1</clus>
</clustering>
</event>
<event>
 9    1  0.1464797E-005  0.2887623E+03  0.7546771E-02  0.1135085E+00
          4   -1    0    0  502    0 -0.00000000000E+00  0.00000000000E+00  0.53722684073E+03  0.53722684073E+03  0.00000000000E+00 0. -1.
         21   -1    0    0  501  502  0.00000000000E+00 -0.00000000000E+00 -0.56499972325E+03  0.56499972325E+03  0.00000000000E+00 0. -1.
         23    2    1    2    0    0  0.36470148258E+01 -0.32155808761E+02  0.32748074693E+03  0.34083842136E+03  0.88768762046E+02 0.  0.
         23    2    1    2    0    0 -0.16758042151E+03  0.24472313478E+03  0.77046435038E+01  0.30994851451E+03  0.89644351440E+02 0.  0.
        -11    1    4    4    0    0 -0.13383357834E+03  0.22065947335E+03  0.34830438499E+02  0.26041349680E+03  0.00000000000E+00 0. -1.
         11    1    4    4    0    0 -0.33746843173E+02  0.24063661436E+02 -0.27125794995E+02  0.49535017714E+02  0.00000000000E+00 0.  1.
        -13    1    3    3    0    0  0.41642508636E+02  0.41104835445E+01  0.13695007919E+03  0.14320027511E+03  0.00000000000E+00 0.  1.
         13    1    3    3    0    0 -0.37995493810E+02 -0.36266292305E+02  0.19053066773E+03  0.19763814625E+03  0.00000000000E+00 0. -1.
          4    1    1    2  501    0  0.16393340669E+03 -0.21256732602E+03 -0.36295827295E+03  0.45143962810E+03  0.00000000000E+00 0. -1.
<scales pt_clust_5="13000.00000" pt_clust_6="13000.00000" pt_clust_7="13000.00000" pt_clust_8="13000.00000" pt_clust_9="274.49506"></scales>
<clustering>
<clus scale="   88.769">  7  8 -1 -1</clus>
<clus scale="   89.644">  5  6 -1 -1</clus>
<clus scale="   94.484">  1  7  2 -1</clus>
<clus scale="  274.495">  2  9  1 -1</clus>
<clus scale="  274.495">  2  5  1 -1</clus>
</clustering>
</event>
<event>
 9    1  0.1464797E-005  0.2305495E+03  0.7546771E-02  0.1126845E+00
          1   -1    0    0  502    0 -0.00000000000E+00  0.00000000000E+00  0.98103085578E+03  0.98103085578E+03  0.00000000000E+00 0. -1.
         21   -1    0    0  501  502  0.00000000000E+00 -0.00000000000E+00 -0.35453372726E+03  0.35453372726E+03  0.00000000000E+00 0. -1.
         23    2    1    2    0    0  0.14953955821E+02 -0.20407014985E+03  0.77081510805E+03  0.80366522974E+03  0.99265421136E+02 0.  0.
         23    2    1    2    0    0  0.11274189199E+03  0.23458609072E+03  0.66352820028E+02  0.28366632169E+03  0.91227831108E+02 0.  0.
        -11    1    4    4    0    0  0.97442125479E+02  0.20366948832E+03  0.21096795192E+02  0.22676265799E+03  0.00000000000E+00 0. -1.
         11    1    4    4    0    0  0.15299766512E+02  0.30916602401E+02  0.45256024836E+02  0.56903663707E+02  0.00000000000E+00 0.  1.
        -13    1    3    3    0    0 -0.40610797748E+02 -0.55376057106E+02  0.23721068310E+03  0.24695070920E+03  0.00000000000E+00 0.  1.
         13    1    3    3    0    0  0.55564753569E+02 -0.14869409275E+03  0.53360442495E+03  0.55671452054E+03  0.00000000000E+00 0. -1.
          1    1    1    2  501    0 -0.12769584781E+03 -0.30515940866E+02 -0.21067079956E+03  0.24823303161E+03  0.00000000000E+00 0. -1.
<scales pt_clust_5="13000.00000" pt_clust_6="13000.00000" pt_clust_7="13000.00000" pt_clust_8="13000.00000" pt_clust_9="131.29148"></scales>
<clustering>
<clus scale="   91.228">  5  6 -1 -1</clus>
<clus scale="   99.265">  7  8 -1 -1</clus>
<clus scale="  131.291">  2  9  1 -1</clus>
<clus scale="  227.205">  2  5  1 -1</clus>
<clus scale="  131.291">  2  5  1 -1</clus>
</clustering>
</event>
<event>
 9    1  0.1464797E-005  0.1764545E+03  0.7546771E-02  0.1171431E+00
         21   -1    0    0  501  502  0.00000000000E+00  0.00000000000E+00  0.42684012958E+02  0.42684012958E+02  0.00000000000E+00 0.  1.
          2   -1    0    0  502    0 -0.00000000000E+00 -0.00000000000E+00 -0.92522392236E+03  0.92522392236E+03  0.00000000000E+00 0. -1.
         23    2    1    2    0    0 -0.12679251352E+03 -0.54101770097E+02 -0.37829148300E+03  0.41246241278E+03  0.89540230256E+02 0.  0.
         23    2    1    2    0    0  0.15734351952E+03  0.64529813602E+02 -0.36800372410E+03  0.41542864154E+03  0.90736625909E+02 0.  0.
        -11    1    3    3    0    0 -0.42500496068E+02  0.23446322629E+02 -0.90065675193E+02  0.10231250197E+03  0.00000000000E+00 0.  1.
         11    1    3    3    0    0 -0.84292017453E+02 -0.77548092726E+02 -0.28822580781E+03  0.31014991081E+03  0.00000000000E+00 0. -1.
        -13    1    4    4    0    0  0.72907561428E+02 -0.87204799494E+01 -0.20522138467E+03  0.21796186824E+03  0.00000000000E+00 0.  1.
         13    1    4    4    0    0  0.84435958091E+02  0.73250293551E+02 -0.16278233943E+03  0.19746677329E+03  0.00000000000E+00 0. -1.
          2    1    1    2  501    0 -0.30551005999E+02 -0.10428043505E+02 -0.13624470231E+03  0.14001688101E+03  0.00000000000E+00 0. -1.
<scales pt_clust_5="13000.00000" pt_clust_6="13000.00000" pt_clust_7="13000.00000" pt_clust_8="13000.00000" pt_clust_9="32.28171"></scales>
<clustering>
<clus scale="   32.282">  1  9  2 -1</clus>
<clus scale="   89.540">  5  6 -1 -1</clus>
<clus scale="   90.737">  7  8 -1 -1</clus>
<clus scale="  175.842">  2  5  1 -1</clus>
<clus scale="   32.282">  1  5  2 -1</clus>
</clustering>
</event>
<event>
 9    1  0.1464797E-005  0.1362246E+03  0.7546771E-02  0.1238203E+00
         21   -1    0    0  501  502  0.00000000000E+00  0.00000000000E+00  0.52038872659E+02  0.52038872659E+02  0.00000000000E+00 0. -1.
          2   -1    0    0  502    0 -0.00000000000E+00 -0.00000000000E+00 -0.68409749532E+03  0.68409749532E+03  0.00000000000E+00 0. -1.
         23    2    1    2    0    0 -0.17001925542E+01 -0.98845211265E+01 -0.68636620232E+02  0.11365541102E+03  0.90033173912E+02 0.  0.
         23    2    1    2    0    0  0.23632744119E+02 -0.90085036816E+02 -0.45455020433E+03  0.47305533080E+03  0.92150080207E+02 0.  0.
        -11    1    3    3    0    0 -0.87823169840E+01 -0.40795080544E+02 -0.43285190318E+01  0.41953590611E+02  0.00000000000E+00 0. -1.
         11    1    3    3    0    0  0.70821244297E+01  0.30910559417E+02 -0.64308101200E+02  0.71701820408E+02  0.00000000000E+00 0.  1.
        -13    1    4    4    0    0  0.13495026194E+02  0.17056950441E+02 -0.10842098249E+03  0.11058103244E+03  0.00000000000E+00 0.  1.
         13    1    4    4    0    0  0.10137717925E+02 -0.10714198726E+03 -0.34612922184E+03  0.36247429836E+03  0.00000000000E+00 0. -1.
          2    1    1    2  501    0 -0.21932551565E+02  0.99969557943E+02 -0.10887179809E+03  0.14942562616E+03  0.00000000000E+00 0. -1.
<scales pt_clust_5="13000.00000" pt_clust_6="13000.00000" pt_clust_7="13000.00000" pt_clust_8="13000.00000" pt_clust_9="100.32703"></scales>
<clustering>
<clus scale="   90.033">  5  6 -1 -1</clus>
<clus scale="   90.590">  2  5  1 -1</clus>
<clus scale="   92.150">  7  8 -1 -1</clus>
<clus scale="  100.327">  1  9  2 -1</clus>
<clus scale="  100.327">  1  5  2 -1</clus>
</clustering>
</event>
<event>
 9    1  0.1464797E-005  0.9943961E+02  0.7546771E-02  0.1281987E+00
         -2   -1    0    0    0  501 -0.00000000000E+00  0.00000000000E+00  0.13365830802E+03  0.13365830802E+03  0.00000000000E+00 0.  1.
         21   -1    0    0  501  502  0.00000000000E+00 -0.00000000000E+00 -0.24995981268E+03  0.24995981268E+03  0.00000000000E+00 0. -1.
         23    2    1    2    0    0  0.88211501894E+01 -0.43753886257E+02  0.69256173173E+02  0.12206756277E+03  0.90065848717E+02 0.  0.
         23    2    1    2    0    0  0.60360657179E+02  0.19530196079E+02 -0.11061224717E+03  0.15671865815E+03  0.91108896888E+02 0.  0.
        -11    1    4    4    0    0  0.74712338517E+02 -0.75075471168E+00 -0.10856260193E+03  0.13178898170E+03  0.00000000000E+00 0. -1.
         11    1    4    4    0    0 -0.14351681338E+02  0.20280950791E+02 -0.20496452466E+01  0.24929676449E+02  0.00000000000E+00 0.  1.
        -13    1    3    3    0    0  0.30854995746E+02 -0.12575806237E+02  0.76288433345E+02  0.83247262581E+02  0.00000000000E+00 0. -1.
         13    1    3    3    0    0 -0.22033845557E+02 -0.31178080020E+02 -0.70322601721E+01  0.38820300190E+02  0.00000000000E+00 0.  1.
         -2    1    1    2    0  502 -0.69181807368E+02  0.24223690178E+02 -0.74945430656E+02  0.10483189979E+03  0.00000000000E+00 0.  1.
<scales pt_clust_5="13000.00000" pt_clust_6="13000.00000" pt_clust_7="13000.00000" pt_clust_8="13000.00000" pt_clust_9="73.30013"></scales>
<clustering>
<clus scale="   73.300">  2  9  1 -1</clus>
<clus scale="   90.066">  7  8 -1 -1</clus>
<clus scale="   91.109">  5  6 -1 -1</clus>
<clus scale="   98.485">  1  7  2 -1</clus>
<clus scale="   73.300">  2  5  1 -1</clus>
</clustering>
</event>
<event>
 9    1  0.1464797E-005  0.9686834E+02  0.7546771E-02  0.1287518E+00
          2   -1    0    0  502    0 -0.00000000000E+00  0.00000000000E+00  0.40522732710E+03  0.40522732710E+03  0.00000000000E+00 0. -1.
         21   -1    0    0  501  502  0.00000000000E+00 -0.00000000000E+00 -0.54503293451E+02  0.54503293451E+02  0.00000000000E+00 0. -1.
         23    2    1    2    0    0  0.36159184073E+01  0.43202190578E+02  0.27471232512E+03  0.29160745542E+03  0.87684333532E+02 0.  0.
         23    2    1    2    0    0 -0.24324319886E+02 -0.32483387225E+02  0.97343094542E+02  0.13652002183E+03  0.86690226219E+02 0.  0.
        -11    1    4    4    0    0  0.13844978696E+02 -0.27871192007E+02 -0.78340095716E+00  0.31130378990E+02  0.00000000000E+00 0.  1.
         11    1    4    4    0    0 -0.38169298582E+02 -0.46121952172E+01  0.98126495499E+02  0.10538964284E+03  0.00000000000E+00 0. -1.
        -11    1    3    3    0    0  0.31638397471E+01  0.70396595003E+02  0.19076998260E+03  0.20336881947E+03  0.00000000000E+00 0.  1.
         11    1    3    3    0    0  0.45207866018E+00 -0.27194404425E+02  0.83942342515E+02  0.88238635949E+02  0.00000000000E+00 0. -1.
          2    1    1    2  501    0  0.20708401479E+02 -0.10718803353E+02 -0.21331386015E+02  0.31603143300E+02  0.00000000000E+00 0. -1.
<scales pt_clust_5="13000.00000" pt_clust_6="13000.00000" pt_clust_7="13000.00000" pt_clust_8="13000.00000" pt_clust_9="23.31803"></scales>
<clustering>
<clus scale="   23.318">  2  9  1 -1</clus>
<clus scale="   86.690">  5  6 -1 -1</clus>
<clus scale="   87.684">  7  8 -1 -1</clus>
<clus scale="   95.969">  2  5  1 -1</clus>
<clus scale="   23.318">  2  5  1 -1</clus>
</clustering>
</event>
<event>
 9    1  0.1464797E-005  0.1124810E+03  0.7546771E-02  0.1259040E+00
          1   -1    0    0  502    0 -0.00000000000E+00  0.00000000000E+00  0.64748219649E+03  0.64748219649E+03  0.00000000000E+00 0. -1.
         21   -1    0    0  501  502  0.00000000000E+00 -0.00000000000E+00 -0.48284579158E+02  0.48284579158E+02  0.00000000000E+00 0. -1.
         23    2    1    2    0    0  0.18844571243E+02  0.34908020347E+02  0.26629520430E+03  0.28500449815E+03  0.93491926844E+02 0.  0.
         23    2    1    2    0    0 -0.20737675094E+02 -0.12367355379E+03  0.21118704648E+03  0.26010526895E+03  0.85612985333E+02 0.  0.
        -13    1    4    4    0    0 -0.83430698444E+01 -0.61810273319E+02  0.17842771444E+03  0.18901472425E+03  0.00000000000E+00 0. -1.
         13    1    4    4    0    0 -0.12394605250E+02 -0.61863280470E+02  0.32759332040E+02  0.71090544698E+02  0.00000000000E+00 0.  1.
        -13    1    3    3    0    0  0.27212601189E+02 -0.26451856437E+02  0.12732902103E+03  0.13286423886E+03  0.00000000000E+00 0. -1.
         13    1    3    3    0    0 -0.83680299468E+01  0.61359876784E+02  0.13896618327E+03  0.15214025929E+03  0.00000000000E+00 0.  1.
          1    1    1    2  501    0  0.18931038515E+01  0.88765533442E+02  0.12171536655E+03  0.15065700854E+03  0.00000000000E+00 0. -1.
<scales pt_clust_5="13000.00000" pt_clust_6="13000.00000" pt_clust_7="13000.00000" pt_clust_8="13000.00000" pt_clust_9="88.78572"></scales>
<clustering>
<clus scale="   85.613">  5  6 -1 -1</clus>
<clus scale="   88.786">  2  9  1 -1</clus>
<clus scale="   93.492">  7  8 -1 -1</clus>
<clus scale="  106.023">  2  5  1 -1</clus>
<clus scale="   88.786">  2  5  1 -1</clus>
</clustering>
</event>
<event>
 9    1  0.1464797E-005  0.1042150E+03  0.7546771E-02  0.1272471E+00
         21   -1    0    0  501  502  0.00000000000E+00  0.00000000000E+00  0.13723589223E+03  0.13723589223E+03  0.00000000000E+00 0. -1.
          1   -1    0    0  502    0 -0.00000000000E+00 -0.00000000000E+00 -0.16575152071E+03  0.16575152071E+03  0.00000000000E+00 0. -1.
         23    2    1    2    0    0  0.52872440019E+02  0.30137166571E+02 -0.84107309254E+02  0.13681037007E+03  0.89102716947E+02 0.  0.
         23    2    1    2    0    0 -0.38610975749E+02  0.85605371654E+01  0.28138624356E+01  0.99196450558E+02  0.90928146009E+02 0.  0.
        -13    1    4    4    0    0  0.22295405590E+02 -0.18764923959E+02  0.12561496033E+02  0.31733242257E+02  0.00000000000E+00 0. -1.
         13    1    4    4    0    0 -0.60906381339E+02  0.27325461124E+02 -0.97476335970E+01  0.67463208300E+02  0.00000000000E+00 0.  1.
        -13    1    3    3    0    0  0.45713217621E+02  0.54482053573E+02 -0.85721939530E+02  0.11138331717E+03  0.00000000000E+00 0. -1.
         13    1    3    3    0    0  0.71592223983E+01 -0.24344887003E+02  0.16146302758E+01  0.25427052905E+02  0.00000000000E+00 0.  1.
          1    1    1    2  501    0 -0.14261464270E+02 -0.38697703736E+02  0.52777818337E+02  0.66980592309E+02  0.00000000000E+00 0. -1.
<scales pt_clust_5="13000.00000" pt_clust_6="13000.00000" pt_clust_7="13000.00000" pt_clust_8="13000.00000" pt_clust_9="41.24199"></scales>
<clustering>
<clus scale="   41.242">  1  9  2 -1</clus>
<clus scale="   89.103">  7  8 -1 -1</clus>
<clus scale="   90.928">  5  6 -1 -1</clus>
<clus scale="  102.626">  2  7  1 -1</clus>
<clus scale="   41.242">  1  5  2 -1</clus>
</clustering>
</event>
<event>
 9    1  0.1464797E-005  0.9070446E+02  0.7546771E-02  0.1302381E+00
         21   -1    0    0  501  502  0.00000000000E+00  0.00000000000E+00  0.31444442331E+02  0.31444442331E+02  0.00000000000E+00 0. -1.
          1   -1    0    0  502    0 -0.00000000000E+00 -0.00000000000E+00 -0.50779259608E+03  0.50779259608E+03  0.00000000000E+00 0. -1.
         23    2    1    2    0    0 -0.10582170833E+02 -0.44635592284E+01 -0.32204422051E+03  0.33475613293E+03  0.90649229803E+02 0.  0.
         23    2    1    2    0    0 -0.10915401789E+02 -0.89809037626E+01 -0.15501003421E+03  0.17911561833E+03  0.88625568516E+02 0.  0.
        -11    1    4    4    0    0 -0.35310037208E+02 -0.37968484556E+02 -0.90850391084E+02  0.10460496215E+03  0.00000000000E+00 0. -1.
         11    1    4    4    0    0  0.24394635419E+02  0.28987580793E+02 -0.64159643130E+02  0.74510656178E+02  0.00000000000E+00 0.  1.
        -11    1    3    3    0    0 -0.46279789792E+02  0.43341426675E-01 -0.10495885166E+03  0.11470911630E+03  0.00000000000E+00 0. -1.
         11    1    3    3    0    0  0.35697618959E+02 -0.45069006551E+01 -0.21708536886E+03  0.22004701662E+03  0.00000000000E+00 0.  1.
          1    1    1    2  501    0  0.21497572622E+02  0.13444462991E+02  0.70610098036E+00  0.25365287153E+02  0.00000000000E+00 0. -1.
<scales pt_clust_5="13000.00000" pt_clust_6="13000.00000" pt_clust_7="13000.00000" pt_clust_8="13000.00000" pt_clust_9="25.35546"></scales>
<clustering>
<clus scale="   25.355">  1  9  2 -1</clus>
<clus scale="   88.626">  5  6 -1 -1</clus>
<clus scale="   88.682">  1  5  2 -1</clus>
<clus scale="   90.649">  7  8 -1 -1</clus>
<clus scale="   25.355">  1  5  2 -1</clus>
</clustering>
</event>
<event>
 9    1  0.1464797E-005  0.1969426E+03  0.7546771E-02  0.1152611E+00
         21   -1    0    0  501  502  0.00000000000E+00  0.00000000000E+00  0.37240568594E+03  0.37240568594E+03  0.00000000000E+00 0. -1.
          1   -1    0    0  502    0 -0.00000000000E+00 -0.00000000000E+00 -0.18341380924E+03  0.18341380924E+03  0.00000000000E+00 0. -1.
         23    2    1    2    0    0 -0.18597465001E+03  0.68518123785E+01 -0.60561885906E+02  0.21701215489E+03  0.93771080643E+02 0.  0.
         23    2    1    2    0    0  0.14352955884E+03  0.99000731538E+01  0.14119062966E+03  0.22122851562E+03  0.91151064223E+02 0.  0.
        -11    1    3    3    0    0 -0.15556337295E+03 -0.18883003591E+02 -0.76155519835E+02  0.17423029022E+03  0.00000000000E+00 0. -1.
         11    1    3    3    0    0 -0.30411277057E+02  0.25734815969E+02  0.15593633929E+02  0.42781864666E+02  0.00000000000E+00 0.  1.
        -11    1    4    4    0    0  0.51900730299E+02  0.47654860494E+02  0.48537396928E+02  0.85560215257E+02  0.00000000000E+00 0. -1.
         11    1    4    4    0    0  0.91628828543E+02 -0.37754787340E+02  0.92653232737E+02  0.13566830036E+03  0.00000000000E+00 0.  1.
          1    1    1    2  501    0  0.42445091165E+02 -0.16751885532E+02  0.10836313294E+03  0.11757882468E+03  0.00000000000E+00 0. -1.
<scales pt_clust_5="13000.00000" pt_clust_6="13000.00000" pt_clust_7="13000.00000" pt_clust_8="13000.00000" pt_clust_9="45.63126"></scales>
<clustering>
<clus scale="   45.631">  1  9  2 -1</clus>
<clus scale="   91.151">  7  8 -1 -1</clus>
<clus scale="   93.771">  5  6 -1 -1</clus>
<clus scale="  195.709">  1  7  2 -1</clus>
<clus scale="   45.631">  1  5  2 -1</clus>
</clustering>
</event>
<event>
 9    1  0.1464797E-005  0.1217448E+03  0.7546771E-02  0.1240883E+00
          3   -1    0    0  502    0 -0.00000000000E+00  0.00000000000E+00  0.13729622668E+03  0.13729622668E+03  0.00000000000E+00 0. -1.
         21   -1    0    0  501  502  0.00000000000E+00 -0.00000000000E+00 -0.30774059396E+03  0.30774059396E+03  0.00000000000E+00 0. -1.
         23    2    1    2    0    0 -0.48789582542E+02  0.49926256771E+02  0.19937106765E+02  0.11745982533E+03  0.92337792158E+02 0.  0.
         23    2    1    2    0    0  0.82758798620E+02 -0.34772837910E+02  0.33722856388E+01  0.13028519838E+03  0.94364673478E+02 0.  0.
        -13    1    4    4    0    0  0.22071832424E+02 -0.51584987158E+02 -0.24742030528E+02  0.61321650021E+02  0.00000000000E+00 0.  1.
         13    1    4    4    0    0  0.60686966196E+02  0.16812149248E+02  0.28114316166E+02  0.68963548357E+02  0.00000000000E+00 0. -1.
        -13    1    3    3    0    0 -0.55346492273E+02  0.71263321622E+02  0.45452345426E+01  0.90345749057E+02  0.00000000000E+00 0. -1.
         13    1    3    3    0    0  0.65569097308E+01 -0.21337064851E+02  0.15391872223E+02  0.27114076274E+02  0.00000000000E+00 0.  1.
          3    1    1    2  501    0 -0.33969216078E+02 -0.15153418862E+02 -0.19375375968E+03  0.19729179693E+03  0.00000000000E+00 0. -1.
<scales pt_clust_5="13000.00000" pt_clust_6="13000.00000" pt_clust_7="13000.00000" pt_clust_8="13000.00000" pt_clust_9="37.19588"></scales>
<clustering>
<clus scale="   37.196">  2  9  1 -1</clus>
<clus scale="   92.338">  7  8 -1 -1</clus>
<clus scale="   94.365">  5  6 -1 -1</clus>
<clus scale="  120.181">  1  7  2 -1</clus>
<clus scale="   37.196">  2  5  1 -1</clus>
</clustering>
</event>
<event>
 9    1  0.1464797E-005  0.2714280E+03  0.7546771E-02  0.1100726E+00
          1   -1    0    0  502    0 -0.00000000000E+00  0.00000000000E+00  0.14716586954E+04  0.14716586954E+04  0.00000000000E+00 0. -1.
         21   -1    0    0  501  502  0.00000000000E+00 -0.00000000000E+00 -0.90764957189E+02  0.90764957189E+02  0.00000000000E+00 0. -1.
         23    2    1    2    0    0  0.24695504739E+03  0.23135752662E+02  0.67879239408E+03  0.72833661341E+03  0.90515466625E+02 0.  0.
         23    2    1    2    0    0 -0.25935837099E+03  0.97008240154E+02  0.62638427510E+03  0.69153355452E+03  0.95833364120E+02 0.  0.
        -13    1    3    3    0    0  0.22877190839E+03  0.10742563551E+02  0.66246338634E+03  0.70093489496E+03  0.00000000000E+00 0. -1.
         13    1    3    3    0    0  0.18183139000E+02  0.12393189111E+02  0.16329007741E+02  0.27401718451E+02  0.00000000000E+00 0.  1.
        -13    1    4    4    0    0 -0.43500232929E+02 -0.19224681604E+02  0.11373789192E+03  0.12328084485E+03  0.00000000000E+00 0.  1.
         13    1    4    4    0    0 -0.21585813806E+03  0.11623292176E+03  0.51264638318E+03  0.56825270968E+03  0.00000000000E+00 0. -1.
          1    1    1    2  501    0  0.12403323600E+02 -0.12014399282E+03  0.75717069051E+02  0.14255348467E+03  0.00000000000E+00 0. -1.
<scales pt_clust_5="13000.00000" pt_clust_6="13000.00000" pt_clust_7="13000.00000" pt_clust_8="13000.00000" pt_clust_9="120.78254"></scales>
<clustering>
<clus scale="   90.515">  5  6 -1 -1</clus>
<clus scale="   95.833">  7  8 -1 -1</clus>
<clus scale="  120.783">  2  9  1 -1</clus>
<clus scale="  269.596">  1  5  2 -1</clus>
<clus scale="  120.783">  2  5  1 -1</clus>
</clustering>
</event>
<event>
 9    1  0.1464797E-005  0.1293947E+03  0.7546771E-02  0.1228393E+00
          3   -1    0    0  502    0 -0.00000000000E+00  0.00000000000E+00  0.44729959051E+03  0.44729959051E+03  0.00000000000E+00 0. -1.
         21   -1    0    0  501  502  0.00000000000E+00 -0.00000000000E+00 -0.97115014202E+02  0.97115014202E+02  0.00000000000E+00 0. -1.
         23    2    1    2    0    0 -0.30389592997E+02 -0.94117130233E+02  0.32095930858E+03  0.34793269037E+03  0.90888490451E+02 0.  0.
         23    2    1    2    0    0  0.60248688840E+02  0.54464704018E+02  0.62155245570E+02  0.13691460830E+03  0.91027616261E+02 0.  0.
        -11    1    4    4    0    0  0.81929516714E+02  0.29953129286E+02  0.55873586257E+02  0.10359292111E+03  0.00000000000E+00 0.  1.
         11    1    4    4    0    0 -0.21680827874E+02  0.24511574732E+02  0.62816593132E+01  0.33321687185E+02  0.00000000000E+00 0. -1.
        -13    1    3    3    0    0 -0.42800898761E+02 -0.26735625056E+02  0.61372647727E+02  0.79456355762E+02  0.00000000000E+00 0.  1.
         13    1    3    3    0    0  0.12411305764E+02 -0.67381505177E+02  0.25958666085E+03  0.26847633460E+03  0.00000000000E+00 0. -1.
          3    1    1    2  501    0 -0.29859095844E+02  0.39652426215E+02 -0.32929977841E+02  0.59567306049E+02  0.00000000000E+00 0. -1.
<scales pt_clust_5="13000.00000" pt_clust_6="13000.00000" pt_clust_7="13000.00000" pt_clust_8="13000.00000" pt_clust_9="49.63749"></scales>
<clustering>
<clus scale="   49.637">  2  9  1 -1</clus>
<clus scale="   90.888">  7  8 -1 -1</clus>
<clus scale="   91.028">  5  6 -1 -1</clus>
<clus scale="  129.297">  1  7  2 -1</clus>
<clus scale="   49.637">  2  5  1 -1</clus>
</clustering>
</event>
<event>
 9    1  0.1464797E-005  0.1132163E+03  0.7546771E-02  0.1255052E+00
         -4   -1    0    0    0  501 -0.00000000000E+00  0.00000000000E+00  0.14705242710E+03  0.14705242710E+03  0.00000000000E+00 0.  1.
         21   -1    0    0  501  502  0.00000000000E+00 -0.00000000000E+00 -0.14932578343E+03  0.14932578343E+03  0.00000000000E+00 0.  1.
         23    2    1    2    0    0 -0.62804858406E+02  0.14481917823E+02  0.20987530535E+02  0.11409726292E+03  0.91779805976E+02 0.  0.
         23    2    1    2    0    0  0.41145629154E+02 -0.68602781941E+02 -0.18230549854E+02  0.12377031238E+03  0.92668402328E+02 0.  0.
        -13    1    4    4    0    0 -0.16535922853E+02 -0.34321499612E+02 -0.38010079428E+02  0.53816059112E+02  0.00000000000E+00 0.  1.
         13    1    4    4    0    0  0.57681552007E+02 -0.34281282329E+02  0.19779529573E+02  0.69954253268E+02  0.00000000000E+00 0. -1.
        -13    1    3    3    0    0 -0.34960854027E+02  0.49263332158E+02  0.31776236527E+02  0.68255889251E+02  0.00000000000E+00 0.  1.
         13    1    3    3    0    0 -0.27844004379E+02 -0.34781414335E+02 -0.10788705991E+02  0.45841373670E+02  0.00000000000E+00 0. -1.
         -4    1    1    2    0  502  0.21659229252E+02  0.54120864117E+02 -0.50303370010E+01  0.58510635229E+02  0.00000000000E+00 0.  1.
<scales pt_clust_5="13000.00000" pt_clust_6="13000.00000" pt_clust_7="13000.00000" pt_clust_8="13000.00000" pt_clust_9="58.29400"></scales>
<clustering>
<clus scale="   58.294">  2  9  1 -1</clus>
<clus scale="   91.780">  7  8 -1 -1</clus>
<clus scale="   92.668">  5  6 -1 -1</clus>
<clus scale="  112.490">  1  7  2 -1</clus>
<clus scale="   58.294">  2  5  1 -1</clus>
</clustering>
</event>
<event>
 9    1  0.1464797E-005  0.3230116E+03  0.7546771E-02  0.1074323E+00
          2   -1    0    0  502    0 -0.00000000000E+00  0.00000000000E+00  0.19511821361E+04  0.19511821361E+04  0.00000000000E+00 0. -1.
         21   -1    0    0  501  502  0.00000000000E+00 -0.00000000000E+00 -0.11740393701E+03  0.11740393701E+03  0.00000000000E+00 0. -1.
         23    2    1    2    0    0 -0.29121218595E+03 -0.55898188996E+02  0.13665117532E+04  0.14012960005E+04  0.91361724613E+02 0.  0.
         23    2    1    2    0    0  0.34275997416E+03  0.12715567558E+03  0.42934108402E+03  0.57151357786E+03  0.92957181160E+02 0.  0.
        -11    1    3    3    0    0 -0.10033049535E+03 -0.64279943216E+02  0.53861157282E+03  0.55163443128E+03  0.00000000000E+00 0.  1.
         11    1    3    3    0    0 -0.19088169060E+03  0.83817542207E+01  0.82790018036E+03  0.84966156924E+03  0.00000000000E+00 0. -1.
        -11    1    4    4    0    0  0.29528281507E+03  0.10880516527E+03  0.41048847964E+03  0.51723427650E+03  0.00000000000E+00 0. -1.
         11    1    4    4    0    0  0.47477159096E+02  0.18350510309E+02  0.18852604374E+02  0.54279301360E+02  0.00000000000E+00 0.  1.
          2    1    1    2  501    0 -0.51547788208E+02 -0.71257486581E+02  0.37925361847E+02  0.95776494685E+02  0.00000000000E+00 0. -1.
<scales pt_clust_5="13000.00000" pt_clust_6="13000.00000" pt_clust_7="13000.00000" pt_clust_8="13000.00000" pt_clust_9="87.94773"></scales>
<clustering>
<clus scale="   87.948">  2  9  1 -1</clus>
<clus scale="   91.362">  5  6 -1 -1</clus>
<clus scale="   92.957">  7  8 -1 -1</clus>
<clus scale="  322.556">  1  5  2 -1</clus>
<clus scale="   87.948">  2  5  1 -1</clus>
</clustering>
</event>
<event>
 9    1  0.1464797E-005  0.1397527E+03  0.7546771E-02  0.1216533E+00
         21   -1    0    0  501  502  0.00000000000E+00  0.00000000000E+00  0.25122676725E+03  0.25122676725E+03  0.00000000000E+00 0. -1.
         -2   -1    0    0    0  501 -0.00000000000E+00 -0.00000000000E+00 -0.14465967198E+03  0.14465967198E+03  0.00000000000E+00 0.  1.
         23    2    1    2    0    0  0.96356464760E+02  0.27775052106E+02 -0.64717021656E+02  0.15049420876E+03  0.91674381149E+02 0.  0.
         23    2    1    2    0    0 -0.75040297838E+02 -0.21096494568E+02  0.81413392367E+02  0.15278699717E+03  0.10314852235E+03 0.  0.
        -11    1    4    4    0    0 -0.93479193525E+02  0.65462297747E+01  0.72225211509E+02  0.11831185031E+03  0.00000000000E+00 0. -1.
         11    1    4    4    0    0  0.18438895687E+02 -0.27642724343E+02  0.91881808585E+01  0.34475146856E+02  0.00000000000E+00 0.  1.
        -13    1    3    3    0    0  0.76939079189E+02  0.59284693131E+02 -0.57216275982E+02  0.11272976086E+03  0.00000000000E+00 0. -1.
         13    1    3    3    0    0  0.19417385570E+02 -0.31509641025E+02 -0.75007456745E+01  0.37764447905E+02  0.00000000000E+00 0.  1.
         -2    1    1    2    0  502 -0.21316166921E+02 -0.66785575381E+01  0.89870724552E+02  0.92605233300E+02  0.00000000000E+00 0.  1.
<scales pt_clust_5="13000.00000" pt_clust_6="13000.00000" pt_clust_7="13000.00000" pt_clust_8="13000.00000" pt_clust_9="22.33791"></scales>
<clustering>
<clus scale="   22.338">  1  9  2 -1</clus>
<clus scale="   91.674">  7  8 -1 -1</clus>
<clus scale="  103.149">  5  6 -1 -1</clus>
<clus scale="  131.512">  2  7  1 -1</clus>
<clus scale="   22.338">  1  5  2 -1</clus>
</clustering>
</event>
<event>
 9    1  0.1464797E-005  0.1072398E+03  0.7546771E-02  0.1268824E+00
         21   -1    0    0  501  502  0.00000000000E+00  0.00000000000E+00  0.30736495318E+03  0.30736495318E+03  0.00000000000E+00 0.  1.
          1   -1    0    0  502    0 -0.00000000000E+00 -0.00000000000E+00 -0.78374938798E+02  0.78374938798E+02  0.00000000000E+00 0. -1.
         23    2    1    2    0    0  0.49804017763E+02  0.23672242207E+00 -0.41205148205E+01  0.10336658115E+03  0.90483010749E+02 0.  0.
         23    2    1    2    0    0 -0.32066368524E+02 -0.21280009566E+02  0.94370970858E+02  0.14093035701E+03  0.97336501831E+02 0.  0.
        -11    1    4    4    0    0 -0.42130436922E+02  0.26080501123E+02  0.22857043798E+02  0.54567487621E+02  0.00000000000E+00 0. -1.
         11    1    4    4    0    0  0.10064068398E+02 -0.47360510689E+02  0.71513927060E+02  0.86362869388E+02  0.00000000000E+00 0.  1.
        -13    1    3    3    0    0 -0.23156672886E+02  0.10041621068E+02 -0.14363338547E+02  0.29040853070E+02  0.00000000000E+00 0. -1.
         13    1    3    3    0    0  0.72960690649E+02 -0.98048986458E+01  0.10242823726E+02  0.74325728085E+02  0.00000000000E+00 0.  1.
          1    1    1    2  501    0 -0.17737649239E+02  0.21043287144E+02  0.13873955835E+03  0.14144295382E+03  0.00000000000E+00 0. -1.
<scales pt_clust_5="13000.00000" pt_clust_6="13000.00000" pt_clust_7="13000.00000" pt_clust_8="13000.00000" pt_clust_9="27.52170"></scales>
<clustering>
<clus scale="   27.522">  1  9  2 -1</clus>
<clus scale="   90.483">  7  8 -1 -1</clus>
<clus scale="   97.337">  5  6 -1 -1</clus>
<clus scale="  101.060">  2  7  1 -1</clus>
<clus scale="   27.522">  1  5  2 -1</clus>
</clustering>
</event>
<event>
 9    1  0.1464797E-005  0.1034136E+03  0.7546771E-02  0.1274844E+00
         21   -1    0    0  501  502  0.00000000000E+00  0.00000000000E+00  0.57113142658E+02  0.57113142658E+02  0.00000000000E+00 0.  1.
          3   -1    0    0  502    0 -0.00000000000E+00 -0.00000000000E+00 -0.28335673362E+03  0.28335673362E+03  0.00000000000E+00 0.  1.
         23    2    1    2    0    0  0.90098088936E+01 -0.27057414718E+02 -0.84411196673E+02  0.12657593787E+03  0.89905158784E+02 0.  0.
         23    2    1    2    0    0 -0.18566386049E+02  0.65153331393E+02 -0.78943560280E+02  0.13974791709E+03  0.93315204221E+02 0.  0.
        -11    1    3    3    0    0  0.15146193028E+02  0.28711947217E+02 -0.53338571011E+02  0.62440261320E+02  0.00000000000E+00 0.  1.
         11    1    3    3    0    0 -0.61363841340E+01 -0.55769361935E+02 -0.31072625662E+02  0.64135676549E+02  0.00000000000E+00 0. -1.
        -13    1    4    4    0    0 -0.47951996758E+01  0.20009929482E+02 -0.89121314164E+02  0.91465839832E+02  0.00000000000E+00 0.  1.
         13    1    4    4    0    0 -0.13771186374E+02  0.45143401912E+02  0.10177753884E+02  0.48282077259E+02  0.00000000000E+00 0. -1.
          3    1    1    2  501    0  0.95565771558E+01 -0.38095916676E+02 -0.62888834007E+02  0.74146021317E+02  0.00000000000E+00 0.  1.
<scales pt_clust_5="13000.00000" pt_clust_6="13000.00000" pt_clust_7="13000.00000" pt_clust_8="13000.00000" pt_clust_9="39.27631"></scales>
<clustering>
<clus scale="   39.276">  1  9  2 -1</clus>
<clus scale="   89.905">  5  6 -1 -1</clus>
<clus scale="   93.315">  7  8 -1 -1</clus>
<clus scale="  100.347">  2  5  1 -1</clus>
<clus scale="   39.276">  1  5  2 -1</clus>
</clustering>
</event>
<event>
 9    1  0.1464797E-005  0.1379495E+03  0.7546771E-02  0.1216372E+00
         21   -1    0    0  501  502  0.00000000000E+00  0.00000000000E+00  0.73767566379E+02  0.73767566379E+02  0.00000000000E+00 0.  1.
          2   -1    0    0  502    0 -0.00000000000E+00 -0.00000000000E+00 -0.43089513875E+03  0.43089513875E+03  0.00000000000E+00 0. -1.
         23    2    1    2    0    0  0.28623472659E+02  0.10155564951E+03 -0.22175741821E+03  0.26244845887E+03  0.92574229098E+02 0.  0.
         23    2    1    2    0    0 -0.73404322358E+01 -0.99200991427E+02 -0.16009994416E+03  0.20950224941E+03  0.91457540655E+02 0.  0.
        -13    1    4    4    0    0 -0.30565796313E+02  0.23260229547E+01 -0.42686724644E+02  0.52553161159E+02  0.00000000000E+00 0. -1.
         13    1    4    4    0    0  0.23225364077E+02 -0.10152701438E+03 -0.11741321952E+03  0.15694908825E+03  0.00000000000E+00 0.  1.
        -13    1    3    3    0    0 -0.26146000867E+02  0.45324963718E+01 -0.64294812989E+02  0.69555588287E+02  0.00000000000E+00 0. -1.
         13    1    3    3    0    0  0.54769473526E+02  0.97023153143E+02 -0.15746260523E+03  0.19289287058E+03  0.00000000000E+00 0.  1.
          2    1    1    2  501    0 -0.21283040424E+02 -0.23546580877E+01  0.24729790005E+02  0.32711996852E+02  0.00000000000E+00 0. -1.
<scales pt_clust_5="13000.00000" pt_clust_6="13000.00000" pt_clust_7="13000.00000" pt_clust_8="13000.00000" pt_clust_9="21.41290"></scales>
<clustering>
<clus scale="   21.413">  1  9  2 -1</clus>
<clus scale="   91.458">  5  6 -1 -1</clus>
<clus scale="   92.574">  7  8 -1 -1</clus>
<clus scale="  137.203">  1  5  2 -1</clus>
<clus scale="   21.413">  1  5  2 -1</clus>
</clustering>
</event>
<event>
 9    1  0.1464797E-005  0.1110632E+03  0.7546771E-02  0.1259745E+00
         21   -1    0    0  501  502  0.00000000000E+00  0.00000000000E+00  0.24279005941E+03  0.24279005941E+03  0.00000000000E+00 0.  1.
          1   -1    0    0  502    0 -0.00000000000E+00 -0.00000000000E+00 -0.94989531979E+02  0.94989531979E+02  0.00000000000E+00 0. -1.
         23    2    1    2    0    0 -0.64485895138E+02 -0.82842307371E+01 -0.32180479546E+01  0.11250767064E+03  0.91763614630E+02 0.  0.
         23    2    1    2    0    0  0.47774423762E+02 -0.22519083719E+02  0.51959238456E+02  0.12019637797E+03  0.94646194424E+02 0.  0.
        -13    1    4    4    0    0  0.16298565116E+02  0.28288919107E+02  0.50837405826E+02  0.60418109870E+02  0.00000000000E+00 0.  1.
         13    1    4    4    0    0  0.31475858646E+02 -0.50808002827E+02  0.11218326304E+01  0.59778268101E+02  0.00000000000E+00 0. -1.
        -13    1    3    3    0    0 -0.55401894322E+02 -0.40415993736E+02 -0.24601518851E+02  0.72856414775E+02  0.00000000000E+00 0. -1.
         13    1    3    3    0    0 -0.90840008152E+01  0.32131762999E+02  0.21383470896E+02  0.39651255866E+02  0.00000000000E+00 0.  1.
          1    1    1    2  501    0  0.16711471376E+02  0.30803314456E+02  0.99059336930E+02  0.10507554278E+03  0.00000000000E+00 0. -1.
<scales pt_clust_5="13000.00000" pt_clust_6="13000.00000" pt_clust_7="13000.00000" pt_clust_8="13000.00000" pt_clust_9="35.04451"></scales>
<clustering>
<clus scale="   35.045">  1  9  2 -1</clus>
<clus scale="   91.764">  7  8 -1 -1</clus>
<clus scale="   94.646">  5  6 -1 -1</clus>
<clus scale="  108.617">  2  7  1 -1</clus>
<clus scale="   35.045">  1  5  2 -1</clus>
</clustering>
</event>
<event>
 9    1  0.1464797E-005  0.1024763E+03  0.7546771E-02  0.1277063E+00
          2   -1    0    0  502    0 -0.00000000000E+00  0.00000000000E+00  0.56317894346E+03  0.56317894346E+03  0.00000000000E+00 0. -1.
         21   -1    0    0  501  502  0.00000000000E+00 -0.00000000000E+00 -0.23310821825E+03  0.23310821825E+03  0.00000000000E+00 0. -1.
         23    2    1    2    0    0  0.20561974705E+02  0.42659078058E+02  0.51989831827E+03  0.52914841636E+03  0.86378200143E+02 0.  0.
         23    2    1    2    0    0 -0.22632897977E+01 -0.84588222218E+02 -0.18281966324E+03  0.22085693380E+03  0.90523290508E+02 0.  0.
        -13    1    3    3    0    0 -0.23633001283E+02  0.48287592818E+02  0.26762830449E+03  0.27297457709E+03  0.00000000000E+00 0.  1.
         13    1    3    3    0    0  0.44194975988E+02 -0.56285147599E+01  0.25227001377E+03  0.25617383928E+03  0.00000000000E+00 0. -1.
        -13    1    4    4    0    0  0.27867318765E+02 -0.77843783114E+02 -0.16657915529E+03  0.18597004329E+03  0.00000000000E+00 0. -1.
         13    1    4    4    0    0 -0.30130608563E+02 -0.67444391047E+01 -0.16240507945E+02  0.34886890511E+02  0.00000000000E+00 0.  1.
          2    1    1    2  501    0 -0.18298684907E+02  0.41929144161E+02 -0.70079298133E+01  0.46281811542E+02  0.00000000000E+00 0. -1.
<scales pt_clust_5="13000.00000" pt_clust_6="13000.00000" pt_clust_7="13000.00000" pt_clust_8="13000.00000" pt_clust_9="45.74817"></scales>
<clustering>
<clus scale="   45.748">  2  9  1 -1</clus>
<clus scale="   86.378">  5  6 -1 -1</clus>
<clus scale="   90.523">  7  8 -1 -1</clus>
<clus scale="   98.834">  1  5  2 -1</clus>
<clus scale="   45.748">  2  5  1 -1</clus>
</clustering>
</event>
<event>
 9    1  0.1464797E-005  0.9645515E+02  0.7546771E-02  0.1289299E+00
          2   -1    0    0  502    0 -0.00000000000E+00  0.00000000000E+00  0.50478018834E+03  0.50478018834E+03  0.00000000000E+00 0. -1.
         21   -1    0    0  501  502  0.00000000000E+00 -0.00000000000E+00 -0.27936719716E+02  0.27936719716E+02  0.00000000000E+00 0.  1.
         23    2    1    2    0    0 -0.37928314604E+02  0.60406422186E+00  0.24865392007E+03  0.26857844835E+03  0.94163097911E+02 0.  0.
         23    2    1    2    0    0 -0.21102780867E+01 -0.80026499292E+01  0.14999269577E+03  0.17597624694E+03  0.91658796758E+02 0.  0.
        -11    1    3    3    0    0  0.14868453333E+02 -0.33595629700E+02  0.68067681151E+02  0.77349508446E+02  0.00000000000E+00 0.  1.
         11    1    3    3    0    0 -0.52796767937E+02  0.34199693922E+02  0.18058623892E+03  0.19122893990E+03  0.00000000000E+00 0. -1.
        -13    1    4    4    0    0 -0.41342261104E+02 -0.11653875898E+02  0.38341429745E+02  0.57576563040E+02  0.00000000000E+00 0.  1.
         13    1    4    4    0    0  0.39231983017E+02  0.36512259688E+01  0.11165126603E+03  0.11839968390E+03  0.00000000000E+00 0. -1.
          2    1    1    2  501    0  0.40038592690E+02  0.73985857073E+01  0.78196852778E+02  0.88162212764E+02  0.00000000000E+00 0. -1.
<scales pt_clust_5="13000.00000" pt_clust_6="13000.00000" pt_clust_7="13000.00000" pt_clust_8="13000.00000" pt_clust_9="40.71643"></scales>
<clustering>
<clus scale="   40.716">  2  9  1 -1</clus>
<clus scale="   91.659">  7  8 -1 -1</clus>
<clus scale="   94.012">  2  7  1 -1</clus>
<clus scale="   94.163">  5  6 -1 -1</clus>
<clus scale="   40.716">  2  5  1 -1</clus>
</clustering>
</event>
<event>
 9    1  0.1464797E-005  0.1040937E+03  0.7546771E-02  0.1272468E+00
         21   -1    0    0  501  502  0.00000000000E+00  0.00000000000E+00  0.11889966442E+03  0.11889966442E+03  0.00000000000E+00 0. -1.
         -3   -1    0    0    0  501 -0.00000000000E+00 -0.00000000000E+00 -0.13198191928E+03  0.13198191928E+03  0.00000000000E+00 0.  1.
         23    2    1    2    0    0 -0.41689544725E+02  0.10169585276E+02 -0.50705617183E+02  0.11360710502E+03  0.92163312082E+02 0.  0.
         23    2    1    2    0    0  0.60878352152E+02 -0.20070683738E+01  0.23054264865E+02  0.11183640459E+03  0.90915786189E+02 0.  0.
        -11    1    4    4    0    0  0.66647871724E+02  0.32316024112E+02  0.10366280049E+02  0.74791202569E+02  0.00000000000E+00 0. -1.
         11    1    4    4    0    0 -0.57695195719E+01 -0.34323092486E+02  0.12687984816E+02  0.37045202018E+02  0.00000000000E+00 0.  1.
        -13    1    3    3    0    0 -0.17075921091E+02 -0.39208492922E+02 -0.72495618176E+01  0.43375674575E+02  0.00000000000E+00 0.  1.
         13    1    3    3    0    0 -0.24613623634E+02  0.49378078198E+02 -0.43456055365E+02  0.70231430449E+02  0.00000000000E+00 0. -1.
         -3    1    1    2    0  502 -0.19188807426E+02 -0.81625169022E+01  0.14569097464E+02  0.25438074093E+02  0.00000000000E+00 0.  1.
<scales pt_clust_5="13000.00000" pt_clust_6="13000.00000" pt_clust_7="13000.00000" pt_clust_8="13000.00000" pt_clust_9="20.85275"></scales>
<clustering>
<clus scale="   20.853">  1  9  2 -1</clus>
<clus scale="   90.916">  5  6 -1 -1</clus>
<clus scale="   92.163">  7  8 -1 -1</clus>
<clus scale="  102.991">  1  5  2 -1</clus>
<clus scale="   20.853">  1  5  2 -1</clus>
</clustering>
</event>
<event>
 9    1  0.1464797E-005  0.1537098E+03  0.7546771E-02  0.1196321E+00
         21   -1    0    0  501  502  0.00000000000E+00  0.00000000000E+00  0.36737318557E+03  0.36737318557E+03  0.00000000000E+00 0.  1.
          2   -1    0    0  502    0 -0.00000000000E+00 -0.00000000000E+00 -0.34747759796E+03  0.34747759796E+03  0.00000000000E+00 0. -1.
         23    2    1    2    0    0  0.10710316181E+03 -0.57573251038E+02 -0.28903875030E+03  0.32595918629E+03  0.88995648460E+02 0.  0.
         23    2    1    2    0    0 -0.12569341358E+03  0.81795969709E+02  0.16173411489E+03  0.23855782452E+03  0.90898277442E+02 0.  0.
        -11    1    4    4    0    0 -0.52225181171E+02  0.69671949960E+02  0.13252853136E+03  0.15857320638E+03  0.00000000000E+00 0.  1.
         11    1    4    4    0    0 -0.73468232414E+02  0.12124019748E+02  0.29205583531E+02  0.79984618136E+02  0.00000000000E+00 0. -1.
        -11    1    3    3    0    0  0.25607383719E+02 -0.46784228323E+02 -0.49720081766E+02  0.72914941209E+02  0.00000000000E+00 0.  1.
         11    1    3    3    0    0  0.81495778090E+02 -0.10789022715E+02 -0.23931866854E+03  0.25304424508E+03  0.00000000000E+00 0. -1.
          2    1    1    2  501    0  0.18590251777E+02 -0.24222718670E+02  0.14720022303E+03  0.15033377272E+03  0.00000000000E+00 0. -1.
<scales pt_clust_5="13000.00000" pt_clust_6="13000.00000" pt_clust_7="13000.00000" pt_clust_8="13000.00000" pt_clust_9="30.53420"></scales>
<clustering>
<clus scale="   30.534">  1  9  2 -1</clus>
<clus scale="   88.996">  7  8 -1 -1</clus>
<clus scale="   90.898">  5  6 -1 -1</clus>
<clus scale="  152.592">  2  7  1 -1</clus>
<clus scale="   30.534">  1  5  2 -1</clus>
</clustering>
</event>
<event>
 9    1  0.1464797E-005  0.1008991E+03  0.7546771E-02  0.1279355E+00
         21   -1    0    0  501  502  0.00000000000E+00  0.00000000000E+00  0.46528534687E+02  0.46528534687E+02  0.00000000000E+00 0. -1.
         -1   -1    0    0    0  501 -0.00000000000E+00 -0.00000000000E+00 -0.47597594210E+03  0.47597594210E+03  0.00000000000E+00 0.  1.
         23    2    1    2    0    0 -0.78779890669E+01  0.46558891881E+02 -0.37568112510E+03  0.38906088396E+03  0.89455410973E+02 0.  0.
         23    2    1    2    0    0 -0.22261230289E+01 -0.21055969376E+02 -0.34814529739E+02  0.10010201123E+03  0.91433318327E+02 0.  0.
        -11    1    4    4    0    0  0.11283525334E+02  0.33696109749E+02 -0.37884618985E+01  0.35736510738E+02  0.00000000000E+00 0. -1.
         11    1    4    4    0    0 -0.13509648363E+02 -0.54752079125E+02 -0.31026067840E+02  0.64365500488E+02  0.00000000000E+00 0.  1.
        -13    1    3    3    0    0  0.85893363856E+01  0.71025177005E+02 -0.25725289377E+03  0.26701573703E+03  0.00000000000E+00 0. -1.
         13    1    3    3    0    0 -0.16467325453E+02 -0.24466285124E+02 -0.11842823132E+03  0.12204514693E+03  0.00000000000E+00 0.  1.
         -1    1    1    2    0  502  0.10104112096E+02 -0.25502922505E+02 -0.18951752574E+02  0.33341581593E+02  0.00000000000E+00 0.  1.
<scales pt_clust_5="13000.00000" pt_clust_6="13000.00000" pt_clust_7="13000.00000" pt_clust_8="13000.00000" pt_clust_9="27.43159"></scales>
<clustering>
<clus scale="   27.432">  1  9  2 -1</clus>
<clus scale="   89.455">  7  8 -1 -1</clus>
<clus scale="   91.433">  5  6 -1 -1</clus>
<clus scale="   99.110">  2  7  1 -1</clus>
<clus scale="   27.432">  1  5  2 -1</clus>
</clustering>
</event>
<event>
 9    1  0.1464797E-005  0.1050284E+03  0.7546771E-02  0.1270238E+00
         21   -1    0    0  501  502  0.00000000000E+00  0.00000000000E+00  0.14517582655E+03  0.14517582655E+03  0.00000000000E+00 0. -1.
         -3   -1    0    0    0  501 -0.00000000000E+00 -0.00000000000E+00 -0.11776148592E+03  0.11776148592E+03  0.00000000000E+00 0.  1.
         23    2    1    2    0    0 -0.21697391904E+02  0.48924919187E+02 -0.37201698156E+02  0.11128329186E+03  0.90197451010E+02 0.  0.
         23    2    1    2    0    0 -0.61201590943E+01 -0.57137227612E+02  0.43497703209E+02  0.11577586219E+03  0.90608393405E+02 0.  0.
        -11    1    4    4    0    0  0.23062579164E+02 -0.70846545561E+02  0.35631724066E+02  0.82587743253E+02  0.00000000000E+00 0. -1.
         11    1    4    4    0    0 -0.29182738258E+02  0.13709317950E+02  0.78659791431E+01  0.33188118940E+02  0.00000000000E+00 0.  1.
        -11    1    3    3    0    0 -0.37987355874E+02  0.64322848303E+02 -0.89764228466E+01  0.75239910867E+02  0.00000000000E+00 0.  1.
         11    1    3    3    0    0  0.16289963970E+02 -0.15397929116E+02 -0.28225275310E+02  0.36043380994E+02  0.00000000000E+00 0. -1.
         -3    1    1    2    0  502  0.27817550998E+02  0.82123084246E+01  0.21118335578E+02  0.35878158409E+02  0.00000000000E+00 0.  1.
<scales pt_clust_5="13000.00000" pt_clust_6="13000.00000" pt_clust_7="13000.00000" pt_clust_8="13000.00000" pt_clust_9="29.00445"></scales>
<clustering>
<clus scale="   29.004">  1  9  2 -1</clus>
<clus scale="   90.197">  7  8 -1 -1</clus>
<clus scale="   90.608">  5  6 -1 -1</clus>
<clus scale="  104.674">  2  7  1 -1</clus>
<clus scale="   29.004">  1  5  2 -1</clus>
</clustering>
</event>
<event>
 9    1  0.1464797E-005  0.1083497E+03  0.7546771E-02  0.1270271E+00
         -3   -1    0    0    0  501 -0.00000000000E+00  0.00000000000E+00  0.59531599570E+02  0.59531599570E+02  0.00000000000E+00 0.  1.
         21   -1    0    0  501  502  0.00000000000E+00 -0.00000000000E+00 -0.32984544987E+03  0.32984544987E+03  0.00000000000E+00 0. -1.
         23    2    1    2    0    0 -0.23605222342E+01  0.35408519772E+02 -0.30734120613E+02  0.10236207098E+03  0.90961926470E+02 0.  0.
         23    2    1    2    0    0  0.64753727164E+01 -0.14700053702E+02 -0.99118098536E+02  0.14497539811E+03  0.10457268558E+03 0.  0.
        -11    1    4    4    0    0 -0.16861193262E+02  0.25653451396E+02  0.48087274692E+01  0.31072870267E+02  0.00000000000E+00 0.  1.
         11    1    4    4    0    0  0.23336565979E+02 -0.40353505098E+02 -0.10392682601E+03  0.11390252784E+03  0.00000000000E+00 0. -1.
        -13    1    3    3    0    0  0.44024206397E+02  0.20746931328E+02 -0.19539735699E+02  0.52443943212E+02  0.00000000000E+00 0.  1.
         13    1    3    3    0    0 -0.46384728631E+02  0.14661588444E+02 -0.11194384914E+02  0.49918127764E+02  0.00000000000E+00 0. -1.
         -3    1    1    2    0  502 -0.41148504823E+01 -0.20708466070E+02 -0.14046163115E+03  0.14203958035E+03  0.00000000000E+00 0.  1.
<scales pt_clust_5="13000.00000" pt_clust_6="13000.00000" pt_clust_7="13000.00000" pt_clust_8="13000.00000" pt_clust_9="21.11333"></scales>
<clustering>
<clus scale="   21.113">  2  9  1 -1</clus>
<clus scale="   90.962">  7  8 -1 -1</clus>
<clus scale="   95.280">  1  7  2 -1</clus>
<clus scale="  104.573">  5  6 -1 -1</clus>
<clus scale="   21.113">  2  5  1 -1</clus>
</clustering>
</event>
<event>
 9    1  0.1464797E-005  0.1142827E+03  0.7546771E-02  0.1253782E+00
         21   -1    0    0  501  502  0.00000000000E+00  0.00000000000E+00  0.50864892036E+02  0.50864892036E+02  0.00000000000E+00 0.  1.
          1   -1    0    0  502    0 -0.00000000000E+00 -0.00000000000E+00 -0.35794617853E+03  0.35794617853E+03  0.00000000000E+00 0. -1.
         23    2    1    2    0    0  0.51129165367E+01  0.70949296339E+02 -0.22117186383E+03  0.25056383466E+03  0.93836545788E+02 0.  0.
         23    2    1    2    0    0  0.12431088190E+02 -0.53086913662E+02 -0.59306916116E+02  0.12171574029E+03  0.91239568062E+02 0.  0.
        -11    1    4    4    0    0  0.43334985857E+02  0.13072798448E+01 -0.29333605425E+02  0.52345872684E+02  0.00000000000E+00 0. -1.
         11    1    4    4    0    0 -0.30903897667E+02 -0.54394193507E+02 -0.29973310691E+02  0.69369867609E+02  0.00000000000E+00 0.  1.
        -13    1    3    3    0    0  0.26197816925E+02 -0.13935657317E+02 -0.67714133102E+02  0.73930588921E+02  0.00000000000E+00 0. -1.
         13    1    3    3    0    0 -0.21084900388E+02  0.84884953657E+02 -0.15345773072E+03  0.17663324574E+03  0.00000000000E+00 0.  1.
          1    1    1    2  501    0 -0.17544004726E+02 -0.17862382677E+02 -0.26602506552E+02  0.36531495611E+02  0.00000000000E+00 0. -1.
<scales pt_clust_5="13000.00000" pt_clust_6="13000.00000" pt_clust_7="13000.00000" pt_clust_8="13000.00000" pt_clust_9="25.03711"></scales>
<clustering>
<clus scale="   25.037">  1  9  2 -1</clus>
<clus scale="   91.240">  5  6 -1 -1</clus>
<clus scale="   93.837">  7  8 -1 -1</clus>
<clus scale="  112.160">  1  5  2 -1</clus>
<clus scale="   25.037">  1  5  2 -1</clus>
</clustering>
</event>
<event>
 9    1  0.1464797E-005  0.1172869E+03  0.7546771E-02  0.1248333E+00
          2   -1    0    0  502    0 -0.00000000000E+00  0.00000000000E+00  0.80475099306E+03  0.80475099306E+03  0.00000000000E+00 0. -1.
         21   -1    0    0  501  502  0.00000000000E+00 -0.00000000000E+00 -0.66937923879E+02  0.66937923879E+02  0.00000000000E+00 0. -1.
         23    2    1    2    0    0 -0.81257625419E+01 -0.65693842241E+02  0.61722757021E+03  0.62760349806E+03  0.92382727971E+02 0.  0.
         23    2    1    2    0    0 -0.19865294368E+02  0.87605872260E+02  0.14945941854E+03  0.19828869894E+03  0.94397412894E+02 0.  0.
        -11    1    3    3    0    0 -0.48317767179E+02 -0.51109403321E+02  0.41331678813E+03  0.41925832738E+03  0.00000000000E+00 0. -1.
         11    1    3    3    0    0  0.40192004637E+02 -0.14584438920E+02  0.20391078208E+03  0.20834517067E+03  0.00000000000E+00 0.  1.
        -13    1    4    4    0    0 -0.51362273660E+02  0.32058567750E+02  0.10241920167E+03  0.11897700531E+03  0.00000000000E+00 0. -1.
         13    1    4    4    0    0  0.31496979292E+02  0.55547304510E+02  0.47040216869E+02  0.79311693627E+02  0.00000000000E+00 0.  1.
          2    1    1    2  501    0  0.27991056910E+02 -0.21912030018E+02 -0.28873919566E+02  0.45796719943E+02  0.00000000000E+00 0. -1.
<scales pt_clust_5="13000.00000" pt_clust_6="13000.00000" pt_clust_7="13000.00000" pt_clust_8="13000.00000" pt_clust_9="35.54766"></scales>
<clustering>
<clus scale="   35.548">  2  9  1 -1</clus>
<clus scale="   92.383">  5  6 -1 -1</clus>
<clus scale="   94.397">  7  8 -1 -1</clus>
<clus scale="  115.672">  1  5  2 -1</clus>
<clus scale="   35.548">  2  5  1 -1</clus>
</clustering>
</event>
<event>
 9    1  0.1464797E-005  0.1392116E+03  0.7546771E-02  0.1214865E+00
         21   -1    0    0  501  502  0.00000000000E+00  0.00000000000E+00  0.15536028162E+03  0.15536028162E+03  0.00000000000E+00 0.  1.
          2   -1    0    0  502    0 -0.00000000000E+00 -0.00000000000E+00 -0.16404103819E+03  0.16404103819E+03  0.00000000000E+00 0. -1.
         23    2    1    2    0    0 -0.71895743171E+02 -0.57828277126E+02 -0.62359559701E+01  0.12952941708E+03  0.90696610852E+02 0.  0.
         23    2    1    2    0    0  0.10379630375E+03  0.60714634537E+02  0.16303908849E+02  0.15275733780E+03  0.92784951838E+02 0.  0.
        -11    1    4    4    0    0  0.27633778957E+02  0.50121205325E+02  0.42753736558E+02  0.71439785501E+02  0.00000000000E+00 0. -1.
         11    1    4    4    0    0  0.76162524795E+02  0.10593429211E+02 -0.26449827709E+02  0.81317552296E+02  0.00000000000E+00 0.  1.
        -13    1    3    3    0    0 -0.67616433972E+01 -0.41572461456E+02  0.31429509780E+02  0.52552863461E+02  0.00000000000E+00 0.  1.
         13    1    3    3    0    0 -0.65134099774E+02 -0.16255815670E+02 -0.37665465750E+02  0.76976553616E+02  0.00000000000E+00 0. -1.
          2    1    1    2  501    0 -0.31900560581E+02 -0.28863574109E+01 -0.18748709454E+02  0.37114564939E+02  0.00000000000E+00 0. -1.
<scales pt_clust_5="13000.00000" pt_clust_6="13000.00000" pt_clust_7="13000.00000" pt_clust_8="13000.00000" pt_clust_9="32.03089"></scales>
<clustering>
<clus scale="   32.031">  1  9  2 -1</clus>
<clus scale="   90.697">  7  8 -1 -1</clus>
<clus scale="   92.785">  5  6 -1 -1</clus>
<clus scale="  137.829">  2  7  1 -1</clus>
<clus scale="   32.031">  1  5  2 -1</clus>
</clustering>
</event>
<event>
 9    1  0.1464797E-005  0.1696268E+03  0.7546771E-02  0.1178435E+00
         21   -1    0    0  501  502  0.00000000000E+00  0.00000000000E+00  0.73217248725E+03  0.73217248725E+03  0.00000000000E+00 0. -1.
          1   -1    0    0  502    0 -0.00000000000E+00 -0.00000000000E+00 -0.44126255045E+03  0.44126255045E+03  0.00000000000E+00 0. -1.
         23    2    1    2    0    0 -0.11390885301E+03  0.11339630770E+03 -0.32963535465E+03  0.37756047291E+03  0.89769116474E+02 0.  0.
         23    2    1    2    0    0  0.24116066516E+02 -0.10908747228E+03 -0.23044902584E+02  0.14603639384E+03  0.91180587404E+02 0.  0.
        -11    1    3    3    0    0 -0.34607316055E+02  0.89750883780E+02 -0.22075735304E+03  0.24080426987E+03  0.00000000000E+00 0. -1.
         11    1    3    3    0    0 -0.79301536958E+02  0.23645423924E+02 -0.10887800161E+03  0.13675620304E+03  0.00000000000E+00 0.  1.
        -13    1    4    4    0    0  0.44269780303E+02 -0.11292281426E+03 -0.99498213174E+01  0.12169788155E+03  0.00000000000E+00 0.  1.
         13    1    4    4    0    0 -0.20153713788E+02  0.38353419793E+01 -0.13095081267E+02  0.24338512299E+02  0.00000000000E+00 0. -1.
          1    1    1    2  501    0  0.89792786497E+02 -0.43088354224E+01  0.64359019403E+03  0.64983817095E+03  0.00000000000E+00 0. -1.
<scales pt_clust_5="13000.00000" pt_clust_6="13000.00000" pt_clust_7="13000.00000" pt_clust_8="13000.00000" pt_clust_9="89.89611"></scales>
<clustering>
<clus scale="   89.769">  5  6 -1 -1</clus>
<clus scale="   89.896">  1  9  2 -1</clus>
<clus scale="   91.181">  7  8 -1 -1</clus>
<clus scale="  168.872">  2  5  1 -1</clus>
<clus scale="   89.896">  1  5  2 -1</clus>
</clustering>
</event>
<event>
 9    1  0.1464797E-005  0.1099134E+03  0.7546771E-02  0.1260783E+00
         21   -1    0    0  501  502  0.00000000000E+00  0.00000000000E+00  0.21014702951E+03  0.21014702951E+03  0.00000000000E+00 0. -1.
         -4   -1    0    0    0  501 -0.00000000000E+00 -0.00000000000E+00 -0.10860379577E+03  0.10860379577E+03  0.00000000000E+00 0.  1.
         23    2    1    2    0    0 -0.52415988392E+02 -0.99305923692E+01 -0.14517574893E+02  0.10684475820E+03  0.91427511560E+02 0.  0.
         23    2    1    2    0    0  0.65754263098E+02  0.37311885507E+02  0.32711671050E+02  0.12316642812E+03  0.91564816812E+02 0.  0.
        -11    1    3    3    0    0 -0.32984178081E+02  0.39961802039E+02 -0.19817896549E+01  0.51853920933E+02  0.00000000000E+00 0.  1.
         11    1    3    3    0    0 -0.19431810311E+02 -0.49892394408E+02 -0.12535785239E+02  0.54990837267E+02  0.00000000000E+00 0. -1.
        -11    1    4    4    0    0  0.88823618488E+02  0.30417045606E+02  0.31602007339E+02  0.99063205745E+02  0.00000000000E+00 0.  1.
         11    1    4    4    0    0 -0.23069355390E+02  0.68948399015E+01  0.11096637108E+01  0.24103222377E+02  0.00000000000E+00 0. -1.
         -4    1    1    2    0  502 -0.13338274706E+02 -0.27381293138E+02  0.83349137587E+02  0.88739638958E+02  0.00000000000E+00 0.  1.
<scales pt_clust_5="13000.00000" pt_clust_6="13000.00000" pt_clust_7="13000.00000" pt_clust_8="13000.00000" pt_clust_9="30.45726"></scales>
<clustering>
<clus scale="   30.457">  1  9  2 -1</clus>
<clus scale="   91.428">  5  6 -1 -1</clus>
<clus scale="   91.565">  7  8 -1 -1</clus>
<clus scale="  109.799">  2  5  1 -1</clus>
<clus scale="   30.457">  1  5  2 -1</clus>
</clustering>
</event>
<event>
 9    1  0.1464797E-005  0.1896436E+03  0.7546771E-02  0.1159243E+00
         21   -1    0    0  501  502  0.00000000000E+00  0.00000000000E+00  0.70142131049E+03  0.70142131049E+03  0.00000000000E+00 0.  1.
          1   -1    0    0  502    0 -0.00000000000E+00 -0.00000000000E+00 -0.17330601995E+03  0.17330601995E+03  0.00000000000E+00 0. -1.
         23    2    1    2    0    0  0.12395483420E+03  0.11085780435E+03 -0.97596317988E+02  0.21438638410E+03  0.93713535293E+02 0.  0.
         23    2    1    2    0    0 -0.10100893232E+03 -0.11649786183E+03  0.46704681776E+03  0.49992635694E+03  0.89549294623E+02 0.  0.
        -11    1    4    4    0    0 -0.70918640517E+02 -0.11875431794E+03  0.30233392217E+03  0.33247231779E+03  0.00000000000E+00 0.  1.
         11    1    4    4    0    0 -0.30090291798E+02  0.22564561091E+01  0.16471289559E+03  0.16745403915E+03  0.00000000000E+00 0. -1.
        -13    1    3    3    0    0  0.54718941960E+02  0.36261150040E+02 -0.91256615134E+02  0.11241353752E+03  0.00000000000E+00 0. -1.
         13    1    3    3    0    0  0.69235892243E+02  0.74596654309E+02 -0.63397028542E+01  0.10197284659E+03  0.00000000000E+00 0.  1.
          1    1    1    2  501    0 -0.22945901889E+02  0.56400574843E+01  0.15866479077E+03  0.16041458940E+03  0.00000000000E+00 0. -1.
<scales pt_clust_5="13000.00000" pt_clust_6="13000.00000" pt_clust_7="13000.00000" pt_clust_8="13000.00000" pt_clust_9="23.62889"></scales>
<clustering>
<clus scale="   23.629">  1  9  2 -1</clus>
<clus scale="   89.549">  5  6 -1 -1</clus>
<clus scale="   93.714">  7  8 -1 -1</clus>
<clus scale="  187.621">  1  5  2 -1</clus>
<clus scale="   23.629">  1  5  2 -1</clus>
</clustering>
</event>
<event>
 9    1  0.1464797E-005  0.1653453E+03  0.7546771E-02  0.1202161E+00
          1   -1    0    0  502    0 -0.00000000000E+00  0.00000000000E+00  0.47291830574E+03  0.47291830574E+03  0.00000000000E+00 0. -1.
         21   -1    0    0  501  502  0.00000000000E+00 -0.00000000000E+00 -0.20857105522E+03  0.20857105522E+03  0.00000000000E+00 0. -1.
         23    2    1    2    0    0 -0.38111675006E+02  0.41593429311E+02  0.13347987015E+03  0.17168106566E+03  0.92059760134E+02 0.  0.
         23    2    1    2    0    0 -0.60156650698E+02 -0.13831393578E+03  0.26453416377E+03  0.31777098332E+03  0.90832299220E+02 0.  0.
        -11    1    3    3    0    0  0.28053839207E+02 -0.26872873903E+01  0.39256627456E+02  0.48325171567E+02  0.00000000000E+00 0.  1.
         11    1    3    3    0    0 -0.66165514213E+02  0.44280716702E+02  0.94223242698E+02  0.12335589409E+03  0.00000000000E+00 0. -1.
        -13    1    4    4    0    0 -0.48145190114E+02 -0.11019527921E+03  0.26051619106E+03  0.28693142856E+03  0.00000000000E+00 0. -1.
         13    1    4    4    0    0 -0.12011460584E+02 -0.28118656576E+02  0.40179727113E+01  0.30839554759E+02  0.00000000000E+00 0.  1.
          1    1    1    2  501    0  0.98268325704E+02  0.96720506471E+02 -0.13366678340E+03  0.19203731199E+03  0.00000000000E+00 0. -1.
<scales pt_clust_5="13000.00000" pt_clust_6="13000.00000" pt_clust_7="13000.00000" pt_clust_8="13000.00000" pt_clust_9="138.16132"></scales>
<clustering>
<clus scale="   90.832">  7  8 -1 -1</clus>
<clus scale="   92.060">  5  6 -1 -1</clus>
<clus scale="  107.970">  1  5  2 -1</clus>
<clus scale="  138.161">  2  9  1 -1</clus>
<clus scale="  138.161">  2  5  1 -1</clus>
</clustering>
</event>
<event>
 9    1  0.1464797E-005  0.1758961E+03  0.7546771E-02  0.1172166E+00
         21   -1    0    0  501  502  0.00000000000E+00  0.00000000000E+00  0.56901473790E+02  0.56901473790E+02  0.00000000000E+00 0. -1.
          1   -1    0    0  502    0 -0.00000000000E+00 -0.00000000000E+00 -0.84755063752E+03  0.84755063752E+03  0.00000000000E+00 0. -1.
         23    2    1    2    0    0 -0.11138204939E+03 -0.13176052465E+03 -0.56686127444E+03  0.59953451822E+03  0.91340775610E+02 0.  0.
         23    2    1    2    0    0  0.62350627132E+02  0.96849434378E+02 -0.17429161445E+03  0.22698976869E+03  0.88765841293E+02 0.  0.
        -11    1    3    3    0    0 -0.67511376412E+02 -0.26779452764E+02 -0.31341848405E+03  0.32172359438E+03  0.00000000000E+00 0.  1.
         11    1    3    3    0    0 -0.43870672980E+02 -0.10498107189E+03 -0.25344279039E+03  0.27781092384E+03  0.00000000000E+00 0. -1.
        -11    1    4    4    0    0  0.28112897727E+02 -0.92567433353E+01 -0.16817161018E+02  0.34041727637E+02  0.00000000000E+00 0. -1.
         11    1    4    4    0    0  0.34237729405E+02  0.10610617771E+03 -0.15747445343E+03  0.19294804105E+03  0.00000000000E+00 0.  1.
          1    1    1    2  501    0  0.49031422260E+02  0.34911090276E+02 -0.49496274846E+02  0.77927824407E+02  0.00000000000E+00 0. -1.
<scales pt_clust_5="13000.00000" pt_clust_6="13000.00000" pt_clust_7="13000.00000" pt_clust_8="13000.00000" pt_clust_9="60.19024"></scales>
<clustering>
<clus scale="   60.190">  1  9  2 -1</clus>
<clus scale="   88.766">  7  8 -1 -1</clus>
<clus scale="   91.341">  5  6 -1 -1</clus>
<clus scale="  174.573">  1  7  2 -1</clus>
<clus scale="   60.190">  1  5  2 -1</clus>
</clustering>
</event>
<event>
 9    1  0.1464797E-005  0.1396419E+03  0.7546771E-02  0.1214076E+00
         21   -1    0    0  501  502  0.00000000000E+00  0.00000000000E+00  0.12805078728E+03  0.12805078728E+03  0.00000000000E+00 0. -1.
          1   -1    0    0  502    0 -0.00000000000E+00 -0.00000000000E+00 -0.73942827535E+03  0.73942827535E+03  0.00000000000E+00 0. -1.
         23    2    1    2    0    0 -0.29088476069E+02 -0.91527313849E+02 -0.38625837250E+03  0.40840732861E+03  0.91529378421E+02 0.  0.
         23    2    1    2    0    0  0.54182529847E+02  0.10761186336E+03 -0.32320144864E+03  0.35656042573E+03  0.90333278044E+02 0.  0.
        -11    1    3    3    0    0 -0.61442849513E+02 -0.59124750783E+02 -0.21963545385E+03  0.23560707226E+03  0.00000000000E+00 0.  1.
         11    1    3    3    0    0  0.32354373444E+02 -0.32402563067E+02 -0.16662291865E+03  0.17280025635E+03  0.00000000000E+00 0. -1.
        -13    1    4    4    0    0  0.18464433625E+02  0.39203142184E+02 -0.23671643639E+03  0.24065014632E+03  0.00000000000E+00 0. -1.
         13    1    4    4    0    0  0.35718096222E+02  0.68408721179E+02 -0.86485012249E+02  0.11591027942E+03  0.00000000000E+00 0.  1.
          1    1    1    2  501    0 -0.25094053778E+02 -0.16084549513E+02  0.98082333068E+02  0.10251130829E+03  0.00000000000E+00 0. -1.
<scales pt_clust_5="13000.00000" pt_clust_6="13000.00000" pt_clust_7="13000.00000" pt_clust_8="13000.00000" pt_clust_9="29.80645"></scales>
<clustering>
<clus scale="   29.806">  1  9  2 -1</clus>
<clus scale="   90.333">  7  8 -1 -1</clus>
<clus scale="   91.529">  5  6 -1 -1</clus>
<clus scale="  138.861">  1  7  2 -1</clus>
<clus scale="   29.806">  1  5  2 -1</clus>
</clustering>
</event>
<event>
 9    1  0.1464797E-005  0.9417162E+02  0.7546771E-02  0.1293759E+00
          1   -1    0    0  502    0 -0.00000000000E+00  0.00000000000E+00  0.23299424950E+03  0.23299424950E+03  0.00000000000E+00 0. -1.
         21   -1    0    0  501  502  0.00000000000E+00 -0.00000000000E+00 -0.91015607565E+02  0.91015607565E+02  0.00000000000E+00 0.  1.
         23    2    1    2    0    0 -0.33961500044E-01 -0.37118354528E+02  0.12010620390E+03  0.15361977266E+03  0.88293606441E+02 0.  0.
         23    2    1    2    0    0  0.91184886764E+01  0.17568963393E+02  0.71476314543E+02  0.11630448657E+03  0.89588251154E+02 0.  0.
        -11    1    3    3    0    0  0.33084318856E+02 -0.49951281315E+02  0.81609138465E+02  0.10124106943E+03  0.00000000000E+00 0.  1.
         11    1    3    3    0    0 -0.33118280356E+02  0.12832926788E+02  0.38497065440E+02  0.52378703222E+02  0.00000000000E+00 0. -1.
        -13    1    4    4    0    0 -0.28766147816E+02 -0.22511198506E+02  0.30718489346E+02  0.47727045855E+02  0.00000000000E+00 0.  1.
         13    1    4    4    0    0  0.37884636492E+02  0.40080161899E+02  0.40757825196E+02  0.68577440713E+02  0.00000000000E+00 0. -1.
          1    1    1    2  501    0 -0.90845271764E+01  0.19549391134E+02 -0.49603876517E+02  0.54085597836E+02  0.00000000000E+00 0. -1.
<scales pt_clust_5="13000.00000" pt_clust_6="13000.00000" pt_clust_7="13000.00000" pt_clust_8="13000.00000" pt_clust_9="21.55707"></scales>
<clustering>
<clus scale="   21.557">  2  9  1 -1</clus>
<clus scale="   88.294">  5  6 -1 -1</clus>
<clus scale="   89.588">  7  8 -1 -1</clus>
<clus scale="   92.941">  1  5  2 -1</clus>
<clus scale="   21.557">  2  5  1 -1</clus>
</clustering>
</event>
<event>
 9    1  0.1464797E-005  0.1150563E+03  0.7546771E-02  0.1256047E+00
          1   -1    0    0  502    0 -0.00000000000E+00  0.00000000000E+00  0.23122753032E+03  0.23122753032E+03  0.00000000000E+00 0. -1.
         21   -1    0    0  501  502  0.00000000000E+00 -0.00000000000E+00 -0.70722374607E+02  0.70722374607E+02  0.00000000000E+00 0. -1.
         23    2    1    2    0    0  0.26353632363E+02 -0.75826796728E+01  0.68783511002E+02  0.12381457581E+03  0.99231380251E+02 0.  0.
         23    2    1    2    0    0 -0.33461058282E+02  0.33699564425E+02  0.52753752177E+02  0.13068953035E+03  0.10973373187E+03 0.  0.
        -11    1    4    4    0    0  0.29166335119E+02 -0.20851667351E+02  0.97157387915E+01  0.37146503414E+02  0.00000000000E+00 0.  1.
         11    1    4    4    0    0 -0.62627393401E+02  0.54551231776E+02  0.43038013385E+02  0.93543026937E+02  0.00000000000E+00 0. -1.
        -13    1    3    3    0    0 -0.10509481248E+02 -0.19408315411E+02  0.80417085435E+02  0.83390883993E+02  0.00000000000E+00 0.  1.
         13    1    3    3    0    0  0.36863113610E+02  0.11825635739E+02 -0.11633574434E+02  0.40423691813E+02  0.00000000000E+00 0. -1.
          1    1    1    2  501    0  0.71074259192E+01 -0.26116884752E+02  0.38967892536E+02  0.47445798771E+02  0.00000000000E+00 0. -1.
<scales pt_clust_5="13000.00000" pt_clust_6="13000.00000" pt_clust_7="13000.00000" pt_clust_8="13000.00000" pt_clust_9="27.06673"></scales>
<clustering>
<clus scale="   27.067">  2  9  1 -1</clus>
<clus scale="   99.231">  7  8 -1 -1</clus>
<clus scale="  105.087">  1  7  2 -1</clus>
<clus scale="  109.734">  5  6 -1 -1</clus>
<clus scale="   27.067">  2  5  1 -1</clus>
</clustering>
</event>
<event>
 9    1  0.1464797E-005  0.1523995E+03  0.7546771E-02  0.1197747E+00
         21   -1    0    0  501  502  0.00000000000E+00  0.00000000000E+00  0.75066510232E+03  0.75066510232E+03  0.00000000000E+00 0.  1.
         -3   -1    0    0    0  501 -0.00000000000E+00 -0.00000000000E+00 -0.85815851772E+02  0.85815851772E+02  0.00000000000E+00 0.  1.
         23    2    1    2    0    0 -0.79675826486E+02 -0.91050278334E+02  0.17197191643E+02  0.15343850472E+03  0.92785994733E+02 0.  0.
         23    2    1    2    0    0  0.37328163145E+02  0.12501692791E+03  0.52983057177E+03  0.55331596517E+03  0.91736026177E+02 0.  0.
        -11    1    4    4    0    0  0.18045615539E+02  0.89962219008E+02  0.48337866841E+03  0.49200994112E+03  0.00000000000E+00 0.  1.
         11    1    4    4    0    0  0.19282547607E+02  0.35054708904E+02  0.46451903361E+02  0.61306024047E+02  0.00000000000E+00 0. -1.
        -11    1    3    3    0    0 -0.15892806825E+02 -0.58093053222E+02  0.46302079978E+02  0.75968853826E+02  0.00000000000E+00 0.  1.
         11    1    3    3    0    0 -0.63783019661E+02 -0.32957225112E+02 -0.29104888335E+02  0.77469650891E+02  0.00000000000E+00 0. -1.
         -3    1    1    2    0  502  0.42347663341E+02 -0.33966649578E+02  0.11782148713E+03  0.12972648420E+03  0.00000000000E+00 0.  1.
<scales pt_clust_5="13000.00000" pt_clust_6="13000.00000" pt_clust_7="13000.00000" pt_clust_8="13000.00000" pt_clust_9="54.28681"></scales>
<clustering>
<clus scale="   54.287">  1  9  2 -1</clus>
<clus scale="   91.736">  5  6 -1 -1</clus>
<clus scale="   92.786">  7  8 -1 -1</clus>
<clus scale="  151.763">  1  5  2 -1</clus>
<clus scale="   54.287">  1  5  2 -1</clus>
</clustering>
</event>
<event>
 9    1  0.1464797E-005  0.1057452E+03  0.7546771E-02  0.1269271E+00
         21   -1    0    0  501  502  0.00000000000E+00  0.00000000000E+00  0.15531471440E+03  0.15531471440E+03  0.00000000000E+00 0. -1.
          1   -1    0    0  502    0 -0.00000000000E+00 -0.00000000000E+00 -0.32093172720E+03  0.32093172720E+03  0.00000000000E+00 0. -1.
         23    2    1    2    0    0  0.34183912134E+02 -0.14759485232E+02 -0.23108549644E+03  0.25290684810E+03  0.95786141485E+02 0.  0.
         23    2    1    2    0    0 -0.53332205586E+02  0.25397089076E+02 -0.36214545186E+02  0.11932394991E+03  0.97146155115E+02 0.  0.
        -11    1    3    3    0    0 -0.12382744958E+02  0.33493198435E+02 -0.80969163443E+02  0.88493684197E+02  0.00000000000E+00 0.  1.
         11    1    3    3    0    0  0.46566657093E+02 -0.48252683667E+02 -0.15011633300E+03  0.16441316391E+03  0.00000000000E+00 0. -1.
        -13    1    4    4    0    0  0.13373385328E+02 -0.24297083566E+02 -0.20940145037E+02  0.34751767999E+02  0.00000000000E+00 0. -1.
         13    1    4    4    0    0 -0.66705590914E+02  0.49694172641E+02 -0.15274400150E+02  0.84572181914E+02  0.00000000000E+00 0.  1.
          1    1    1    2  501    0  0.19148293452E+02 -0.10637603844E+02  0.10168302883E+03  0.10401564358E+03  0.00000000000E+00 0. -1.
<scales pt_clust_5="13000.00000" pt_clust_6="13000.00000" pt_clust_7="13000.00000" pt_clust_8="13000.00000" pt_clust_9="21.90470"></scales>
<clustering>
<clus scale="   21.905">  1  9  2 -1</clus>
<clus scale="   95.786">  5  6 -1 -1</clus>
<clus scale="   97.146">  7  8 -1 -1</clus>
<clus scale="  104.497">  2  5  1 -1</clus>
<clus scale="   21.905">  1  5  2 -1</clus>
</clustering>
</event>
<event>
 9    1  0.1464797E-005  0.1042331E+03  0.7546771E-02  0.1272920E+00
          2   -1    0    0  502    0 -0.00000000000E+00  0.00000000000E+00  0.11121700888E+04  0.11121700888E+04  0.00000000000E+00 0. -1.
         21   -1    0    0  501  502  0.00000000000E+00 -0.00000000000E+00 -0.24072675080E+02  0.24072675080E+02  0.00000000000E+00 0.  1.
         23    2    1    2    0    0 -0.13317703826E+01 -0.23167294263E+02  0.27937552840E+03  0.29582422696E+03  0.94460522173E+02 0.  0.
         23    2    1    2    0    0  0.87369951570E+02  0.27100085004E+02  0.33945953445E+03  0.36331772011E+03  0.91646424748E+02 0.  0.
        -11    1    3    3    0    0  0.35029762867E+02 -0.43299569298E+02  0.15775249691E+03  0.16729550882E+03  0.00000000000E+00 0.  1.
         11    1    3    3    0    0 -0.36361533250E+02  0.20132275035E+02  0.12162303149E+03  0.12852871814E+03  0.00000000000E+00 0. -1.
        -13    1    4    4    0    0 -0.95158364552E+01 -0.19588960310E+02  0.50662887141E+02  0.55145322947E+02  0.00000000000E+00 0. -1.
         13    1    4    4    0    0  0.96885788026E+02  0.46689045313E+02  0.28879664731E+03  0.30817239716E+03  0.00000000000E+00 0.  1.
          2    1    1    2  501    0 -0.86038181188E+02 -0.39327907407E+01  0.46926235091E+03  0.47710081686E+03  0.00000000000E+00 0. -1.
<scales pt_clust_5="13000.00000" pt_clust_6="13000.00000" pt_clust_7="13000.00000" pt_clust_8="13000.00000" pt_clust_9="86.12806"></scales>
<clustering>
<clus scale="   86.128">  2  9  1 -1</clus>
<clus scale="   91.646">  7  8 -1 -1</clus>
<clus scale="   94.461">  5  6 -1 -1</clus>
<clus scale="  101.690">  2  7  1 -1</clus>
<clus scale="   86.128">  2  5  1 -1</clus>
</clustering>
</event>
<event>
 9    1  0.1464797E-005  0.2777278E+03  0.7546771E-02  0.1097165E+00
         21   -1    0    0  501  502  0.00000000000E+00  0.00000000000E+00  0.15924751546E+03  0.15924751546E+03  0.00000000000E+00 0.  1.
          2   -1    0    0  502    0 -0.00000000000E+00 -0.00000000000E+00 -0.11524829461E+04  0.11524829461E+04  0.00000000000E+00 0. -1.
         23    2    1    2    0    0 -0.23347296196E+03  0.79094433932E+02 -0.65253927350E+03  0.70381744319E+03  0.93733326182E+02 0.  0.
         23    2    1    2    0    0  0.25524672307E+03 -0.14869618586E+03 -0.40609978623E+03  0.50995315284E+03  0.88734076815E+02 0.  0.
        -11    1    3    3    0    0 -0.76147411204E+02 -0.11416357493E+02 -0.26353362049E+03  0.27455187230E+03  0.00000000000E+00 0. -1.
         11    1    3    3    0    0 -0.15732555076E+03  0.90510791426E+02 -0.38900565300E+03  0.42926557089E+03  0.00000000000E+00 0.  1.
        -11    1    4    4    0    0  0.59738597552E+02 -0.76927423782E+02 -0.16257558104E+03  0.18951872762E+03  0.00000000000E+00 0. -1.
         11    1    4    4    0    0  0.19550812552E+03 -0.71768762076E+02 -0.24352420518E+03  0.32043442522E+03  0.00000000000E+00 0.  1.
          2    1    1    2  501    0 -0.21773761109E+02  0.69601751926E+02  0.65403629130E+02  0.97959865493E+02  0.00000000000E+00 0. -1.
<scales pt_clust_5="13000.00000" pt_clust_6="13000.00000" pt_clust_7="13000.00000" pt_clust_8="13000.00000" pt_clust_9="72.92805"></scales>
<clustering>
<clus scale="   72.928">  1  9  2 -1</clus>
<clus scale="   88.734">  7  8 -1 -1</clus>
<clus scale="   93.733">  5  6 -1 -1</clus>
<clus scale="  276.081">  1  7  2 -1</clus>
<clus scale="   72.928">  1  5  2 -1</clus>
</clustering>
</event>
<event>
 9    1  0.1464797E-005  0.1002755E+03  0.7546771E-02  0.1280257E+00
          2   -1    0    0  502    0 -0.00000000000E+00  0.00000000000E+00  0.35131394453E+02  0.35131394453E+02  0.00000000000E+00 0. -1.
         21   -1    0    0  501  502  0.00000000000E+00 -0.00000000000E+00 -0.37846528537E+03  0.37846528537E+03  0.00000000000E+00 0.  1.
         23    2    1    2    0    0 -0.37468691525E+02  0.24268297759E+02 -0.10599560459E+03  0.14704752183E+03  0.91624518355E+02 0.  0.
         23    2    1    2    0    0  0.15961376129E+02 -0.26275958398E+02 -0.17296709648E+03  0.19865037009E+03  0.92731664240E+02 0.  0.
        -11    1    3    3    0    0 -0.24130228394E+02  0.54283961700E+02 -0.35320111782E+02  0.69112420856E+02  0.00000000000E+00 0. -1.
         11    1    3    3    0    0 -0.13338463131E+02 -0.30015663942E+02 -0.70675492807E+02  0.77935100976E+02  0.00000000000E+00 0.  1.
        -13    1    4    4    0    0  0.92642654165E+01 -0.57693965731E+02 -0.14396435998E+03  0.15537103089E+03  0.00000000000E+00 0.  1.
         13    1    4    4    0    0  0.66971107121E+01  0.31418007333E+02 -0.29002736500E+02  0.43279339195E+02  0.00000000000E+00 0. -1.
          2    1    1    2  501    0  0.21507315397E+02  0.20076606387E+01 -0.64371189841E+02  0.67898787900E+02  0.00000000000E+00 0. -1.
<scales pt_clust_5="13000.00000" pt_clust_6="13000.00000" pt_clust_7="13000.00000" pt_clust_8="13000.00000" pt_clust_9="21.60082"></scales>
<clustering>
<clus scale="   21.601">  2  9  1 -1</clus>
<clus scale="   91.625">  5  6 -1 -1</clus>
<clus scale="   92.732">  7  8 -1 -1</clus>
<clus scale="   99.253">  1  5  2 -1</clus>
<clus scale="   21.601">  2  5  1 -1</clus>
</clustering>
</event>
<event>
 9    1  0.1464797E-005  0.9213043E+02  0.7546771E-02  0.1302835E+00
          2   -1    0    0  502    0 -0.00000000000E+00  0.00000000000E+00  0.50519866739E+02  0.50519866739E+02  0.00000000000E+00 0. -1.
         21   -1    0    0  501  502  0.00000000000E+00 -0.00000000000E+00 -0.21841613316E+03  0.21841613316E+03  0.00000000000E+00 0.  1.
         23    2    1    2    0    0 -0.32043732472E+02 -0.12243637962E+02 -0.51693503554E+02  0.10868812099E+03  0.89242265066E+02 0.  0.
         23    2    1    2    0    0  0.10059188676E+02 -0.61699503179E+01 -0.88403292518E+02  0.12030803726E+03  0.80744201879E+02 0.  0.
        -11    1    3    3    0    0 -0.14633278316E+02  0.18053654547E+02 -0.66719448622E+02  0.70650917200E+02  0.00000000000E+00 0.  1.
         11    1    3    3    0    0 -0.17410454156E+02 -0.30297292509E+02  0.15025945067E+02  0.38037203794E+02  0.00000000000E+00 0. -1.
        -13    1    4    4    0    0  0.20780235530E+02 -0.40386835746E+02 -0.44030141520E+02  0.63257948532E+02  0.00000000000E+00 0.  1.
         13    1    4    4    0    0 -0.10721046854E+02  0.34216885428E+02 -0.44373150998E+02  0.57050088725E+02  0.00000000000E+00 0. -1.
          2    1    1    2  501    0  0.21984543796E+02  0.18413588280E+02 -0.27799470350E+02  0.39939841649E+02  0.00000000000E+00 0. -1.
<scales pt_clust_5="13000.00000" pt_clust_6="13000.00000" pt_clust_7="13000.00000" pt_clust_8="13000.00000" pt_clust_9="28.67718"></scales>
<clustering>
<clus scale="   28.677">  2  9  1 -1</clus>
<clus scale="   80.744">  7  8 -1 -1</clus>
<clus scale="   83.925">  2  7  1 -1</clus>
<clus scale="   89.242">  5  6 -1 -1</clus>
<clus scale="   28.677">  2  5  1 -1</clus>
</clustering>
</event>
<event>
 9    1  0.1464797E-005  0.1000170E+03  0.7546771E-02  0.1280815E+00
          1   -1    0    0  502    0 -0.00000000000E+00  0.00000000000E+00  0.55933602130E+02  0.55933602130E+02  0.00000000000E+00 0. -1.
         21   -1    0    0  501  502  0.00000000000E+00 -0.00000000000E+00 -0.23808816734E+03  0.23808816734E+03  0.00000000000E+00 0. -1.
         23    2    1    2    0    0 -0.57656617144E+01  0.38614311517E+02 -0.46132333032E+02  0.10892201973E+03  0.90617362142E+02 0.  0.
         23    2    1    2    0    0 -0.15836651904E+02 -0.41366895319E+02 -0.98527693712E+02  0.14173989405E+03  0.91763127477E+02 0.  0.
        -13    1    4    4    0    0  0.23604310235E+02  0.98501545150E+01 -0.62961257259E+02  0.67958140949E+02  0.00000000000E+00 0.  1.
         13    1    4    4    0    0 -0.39440962140E+02 -0.51217049833E+02 -0.35566436453E+02  0.73781753097E+02  0.00000000000E+00 0. -1.
        -13    1    3    3    0    0 -0.45472746886E+02  0.11610650406E+02 -0.37632406271E+02  0.60156262467E+02  0.00000000000E+00 0. -1.
         13    1    3    3    0    0  0.39707085172E+02  0.27003661112E+02 -0.84999267612E+01  0.48765757261E+02  0.00000000000E+00 0.  1.
          1    1    1    2  501    0  0.21602313619E+02  0.27525838012E+01 -0.37494538468E+02  0.43359855699E+02  0.00000000000E+00 0. -1.
<scales pt_clust_5="13000.00000" pt_clust_6="13000.00000" pt_clust_7="13000.00000" pt_clust_8="13000.00000" pt_clust_9="21.77698"></scales>
<clustering>
<clus scale="   21.777">  2  9  1 -1</clus>
<clus scale="   90.617">  7  8 -1 -1</clus>
<clus scale="   91.763">  5  6 -1 -1</clus>
<clus scale="   98.967">  1  7  2 -1</clus>
<clus scale="   21.777">  2  5  1 -1</clus>
</clustering>
</event>
<event>
 9    1  0.1464797E-005  0.1083789E+03  0.7546771E-02  0.1266520E+00
         21   -1    0    0  501  502  0.00000000000E+00  0.00000000000E+00  0.12421158030E+03  0.12421158030E+03  0.00000000000E+00 0.  1.
          3   -1    0    0  502    0 -0.00000000000E+00 -0.00000000000E+00 -0.18651444955E+03  0.18651444955E+03  0.00000000000E+00 0. -1.
         23    2    1    2    0    0  0.29221032799E+01  0.42451487192E+02 -0.92052614695E+02  0.13900836368E+03  0.95073518122E+02 0.  0.
         23    2    1    2    0    0 -0.35117865935E+02 -0.21503170382E+02 -0.17394388112E+02  0.11090674250E+03  0.10149921157E+03 0.  0.
        -11    1    3    3    0    0 -0.26864652327E+02  0.28383301476E+01  0.72969100195E+01  0.27982325824E+02  0.00000000000E+00 0.  1.
         11    1    3    3    0    0  0.29786755607E+02  0.39613157044E+02 -0.99349524715E+02  0.11102603785E+03  0.00000000000E+00 0. -1.
        -13    1    4    4    0    0 -0.37534738155E+00 -0.35944295487E+02  0.32470257801E+02  0.48440178627E+02  0.00000000000E+00 0.  1.
         13    1    4    4    0    0 -0.34742518554E+02  0.14441125105E+02 -0.49864645913E+02  0.62466563871E+02  0.00000000000E+00 0. -1.
          3    1    1    2  501    0  0.32195762655E+02 -0.20948316810E+02  0.47144133556E+02  0.60810923680E+02  0.00000000000E+00 0. -1.
<scales pt_clust_5="13000.00000" pt_clust_6="13000.00000" pt_clust_7="13000.00000" pt_clust_8="13000.00000" pt_clust_9="38.41092"></scales>
<clustering>
<clus scale="   38.411">  1  9  2 -1</clus>
<clus scale="   95.074">  5  6 -1 -1</clus>
<clus scale="  101.499">  7  8 -1 -1</clus>
<clus scale="  102.386">  2  5  1 -1</clus>
<clus scale="   38.411">  1  5  2 -1</clus>
</clustering>
</event>
<event>
 9    1  0.1464797E-005  0.1031335E+03  0.7546771E-02  0.1275176E+00
         21   -1    0    0  501  502  0.00000000000E+00  0.00000000000E+00  0.23765553623E+03  0.23765553623E+03  0.00000000000E+00 0. -1.
          1   -1    0    0  502    0 -0.00000000000E+00 -0.00000000000E+00 -0.14090343988E+03  0.14090343988E+03  0.00000000000E+00 0. -1.
         23    2    1    2    0    0 -0.18750371483E+02  0.18308780304E+02 -0.47191517594E+02  0.10891262111E+03  0.94594565585E+02 0.  0.
         23    2    1    2    0    0  0.53836416630E+02 -0.95281793488E+02  0.99845164888E+02  0.17424955980E+03  0.91743513197E+02 0.  0.
        -11    1    4    4    0    0  0.78883980931E+02 -0.70506370487E+02  0.86192386492E+02  0.13646595992E+03  0.00000000000E+00 0. -1.
         11    1    4    4    0    0 -0.25047564302E+02 -0.24775423002E+02  0.13652778396E+02  0.37783599885E+02  0.00000000000E+00 0.  1.
        -13    1    3    3    0    0  0.10036025436E+02  0.21777001605E+02 -0.68730535441E+02  0.72793173495E+02  0.00000000000E+00 0.  1.
         13    1    3    3    0    0 -0.28786396919E+02 -0.34682213017E+01  0.21539017846E+02  0.36119447620E+02  0.00000000000E+00 0. -1.
          1    1    1    2  501    0 -0.35086045147E+02  0.76973013185E+02  0.44098449058E+02  0.95396795188E+02  0.00000000000E+00 0. -1.
<scales pt_clust_5="13000.00000" pt_clust_6="13000.00000" pt_clust_7="13000.00000" pt_clust_8="13000.00000" pt_clust_9="84.59241"></scales>
<clustering>
<clus scale="   84.592">  1  9  2 -1</clus>
<clus scale="   91.744">  5  6 -1 -1</clus>
<clus scale="   94.595">  7  8 -1 -1</clus>
<clus scale="  100.525">  1  5  2 -1</clus>
<clus scale="   84.592">  1  5  2 -1</clus>
</clustering>
</event>
<event>
 9    1  0.1464797E-005  0.9309110E+02  0.7546771E-02  0.1296381E+00
         21   -1    0    0  501  502  0.00000000000E+00  0.00000000000E+00  0.19177264520E+03  0.19177264520E+03  0.00000000000E+00 0.  1.
         -1   -1    0    0    0  501 -0.00000000000E+00 -0.00000000000E+00 -0.16051299356E+03  0.16051299356E+03  0.00000000000E+00 0.  1.
         23    2    1    2    0    0  0.20697952069E+01  0.10500805919E+02 -0.73423319364E+02  0.11785041075E+03  0.91559731931E+02 0.  0.
         23    2    1    2    0    0  0.33146997108E+02 -0.57940042144E+02  0.12867303857E+03  0.17066825429E+03  0.90084017808E+02 0.  0.
        -13    1    4    4    0    0  0.32678362484E+02 -0.78410529530E+02  0.12288851383E+03  0.14939100825E+03  0.00000000000E+00 0.  1.
         13    1    4    4    0    0  0.46863462327E+00  0.20470487386E+02  0.57845247448E+01  0.21277246033E+02  0.00000000000E+00 0. -1.
        -13    1    3    3    0    0 -0.44297217193E+01  0.33702385747E+02 -0.84685908295E+02  0.91253363244E+02  0.00000000000E+00 0.  1.
         13    1    3    3    0    0  0.64995169262E+01 -0.23201579828E+02  0.11262588931E+02  0.26597047510E+02  0.00000000000E+00 0. -1.
         -1    1    1    2    0  502 -0.35216792314E+02  0.47439236225E+02 -0.23990067571E+02  0.63766973714E+02  0.00000000000E+00 0.  1.
<scales pt_clust_5="13000.00000" pt_clust_6="13000.00000" pt_clust_7="13000.00000" pt_clust_8="13000.00000" pt_clust_9="59.08221"></scales>
<clustering>
<clus scale="   59.082">  1  9  2 -1</clus>
<clus scale="   90.084">  5  6 -1 -1</clus>
<clus scale="   91.560">  7  8 -1 -1</clus>
<clus scale="   91.640">  1  5  2 -1</clus>
<clus scale="   59.082">  1  5  2 -1</clus>
</clustering>
</event>
<event>
 9    1  0.1464797E-005  0.1178442E+03  0.7546771E-02  0.1249020E+00
         21   -1    0    0  501  502  0.00000000000E+00  0.00000000000E+00  0.32204313649E+03  0.32204313649E+03  0.00000000000E+00 0.  1.
         -1   -1    0    0    0  501 -0.00000000000E+00 -0.00000000000E+00 -0.91307584135E+02  0.91307584135E+02  0.00000000000E+00 0.  1.
         23    2    1    2    0    0  0.53104089957E+02  0.45769793874E+02 -0.28402931628E+02  0.11725776904E+03  0.89597653289E+02 0.  0.
         23    2    1    2    0    0 -0.27095675628E+02 -0.56109051573E+02  0.19685541006E+03  0.22781030984E+03  0.96244914117E+02 0.  0.
        -11    1    4    4    0    0 -0.25079672510E+02 -0.22171227629E+02  0.19025556333E+03  0.19317798188E+03  0.00000000000E+00 0.  1.
         11    1    4    4    0    0 -0.20160031180E+01 -0.33937823944E+02  0.65998467292E+01  0.34632327953E+02  0.00000000000E+00 0. -1.
        -11    1    3    3    0    0  0.44388458592E+02  0.69495611774E+02 -0.46828257603E+01  0.82594819264E+02  0.00000000000E+00 0.  1.
         11    1    3    3    0    0  0.87156313652E+01 -0.23725817901E+02 -0.23720105868E+02  0.34662949781E+02  0.00000000000E+00 0. -1.
         -1    1    1    2    0  502 -0.26008414329E+02  0.10339257699E+02  0.62283073931E+02  0.68282641747E+02  0.00000000000E+00 0.  1.
<scales pt_clust_5="13000.00000" pt_clust_6="13000.00000" pt_clust_7="13000.00000" pt_clust_8="13000.00000" pt_clust_9="27.98817"></scales>
<clustering>
<clus scale="   27.988">  1  9  2 -1</clus>
<clus scale="   89.598">  7  8 -1 -1</clus>
<clus scale="   96.245">  5  6 -1 -1</clus>
<clus scale="  112.481">  2  7  1 -1</clus>
<clus scale="   27.988">  1  5  2 -1</clus>
</clustering>
</event>
<event>
 9    1  0.1464797E-005  0.1241201E+03  0.7546771E-02  0.1236586E+00
          2   -1    0    0  502    0 -0.00000000000E+00  0.00000000000E+00  0.32336174939E+03  0.32336174939E+03  0.00000000000E+00 0. -1.
         21   -1    0    0  501  502  0.00000000000E+00 -0.00000000000E+00 -0.16114364569E+03  0.16114364569E+03  0.00000000000E+00 0.  1.
         23    2    1    2    0    0  0.18352635336E+02 -0.10901504791E+03  0.15548786838E+03  0.21101828113E+03  0.90172822212E+02 0.  0.
         23    2    1    2    0    0  0.49674035678E+02  0.58314886130E+02  0.94700985317E+02  0.15127014609E+03  0.89700862395E+02 0.  0.
        -13    1    4    4    0    0  0.33552399020E+02  0.21857564433E+02 -0.82377908974E+01  0.40882487715E+02  0.00000000000E+00 0.  1.
         13    1    4    4    0    0  0.16121636658E+02  0.36457321697E+02  0.10293877621E+03  0.11038765838E+03  0.00000000000E+00 0. -1.
        -13    1    3    3    0    0 -0.30199591277E+02 -0.28107763729E+02  0.80635203438E+02  0.90576474477E+02  0.00000000000E+00 0. -1.
         13    1    3    3    0    0  0.48552226613E+02 -0.80907284177E+02  0.74852664944E+02  0.12044180666E+03  0.00000000000E+00 0.  1.
          2    1    1    2  501    0 -0.68026671014E+02  0.50700161775E+02 -0.87970749998E+02  0.12221696784E+03  0.00000000000E+00 0. -1.
<scales pt_clust_5="13000.00000" pt_clust_6="13000.00000" pt_clust_7="13000.00000" pt_clust_8="13000.00000" pt_clust_9="84.84182"></scales>
<clustering>
<clus scale="   84.842">  2  9  1 -1</clus>
<clus scale="   89.701">  5  6 -1 -1</clus>
<clus scale="   90.173">  7  8 -1 -1</clus>
<clus scale="  123.778">  2  5  1 -1</clus>
<clus scale="   84.842">  2  5  1 -1</clus>
</clustering>
</event>
<event>
 9    1  0.1464797E-005  0.1373290E+03  0.7546771E-02  0.1235673E+00
         21   -1    0    0  501  502  0.00000000000E+00  0.00000000000E+00  0.13063241056E+03  0.13063241056E+03  0.00000000000E+00 0. -1.
          3   -1    0    0  502    0 -0.00000000000E+00 -0.00000000000E+00 -0.34326617674E+03  0.34326617674E+03  0.00000000000E+00 0. -1.
         23    2    1    2    0    0 -0.24111577830E+02 -0.22960038854E+01 -0.83984284103E+02  0.12538882138E+03  0.89901928412E+02 0.  0.
         23    2    1    2    0    0 -0.91426894714E+02  0.35657727783E+02  0.41390022505E+02  0.14024172618E+03  0.91237367187E+02 0.  0.
        -11    1    4    4    0    0 -0.69448380081E+02  0.63990424129E+02  0.14769276100E+02  0.95582338289E+02  0.00000000000E+00 0.  1.
         11    1    4    4    0    0 -0.21978514633E+02 -0.28332696346E+02  0.26620746405E+02  0.44659387892E+02  0.00000000000E+00 0. -1.
        -13    1    3    3    0    0  0.16325292461E+02 -0.35220507745E+02 -0.49352647476E+02  0.62790788756E+02  0.00000000000E+00 0.  1.
         13    1    3    3    0    0 -0.40436870290E+02  0.32924503860E+02 -0.34631636627E+02  0.62598032627E+02  0.00000000000E+00 0. -1.
          3    1    1    2  501    0  0.11553847254E+03 -0.33361723898E+02 -0.17003950457E+03  0.20826803974E+03  0.00000000000E+00 0. -1.
<scales pt_clust_5="13000.00000" pt_clust_6="13000.00000" pt_clust_7="13000.00000" pt_clust_8="13000.00000" pt_clust_9="102.64012"></scales>
<clustering>
<clus scale="   89.902">  7  8 -1 -1</clus>
<clus scale="   91.237">  5  6 -1 -1</clus>
<clus scale="   93.107">  2  7  1 -1</clus>
<clus scale="  102.640">  1  9  2 -1</clus>
<clus scale="  102.640">  1  5  2 -1</clus>
</clustering>
</event>
<event>
 9    1  0.1464797E-005  0.1499822E+03  0.7546771E-02  0.1222054E+00
         21   -1    0    0  501  502  0.00000000000E+00  0.00000000000E+00  0.85327480285E+02  0.85327480285E+02  0.00000000000E+00 0. -1.
          1   -1    0    0  502    0 -0.00000000000E+00 -0.00000000000E+00 -0.58605855678E+03  0.58605855678E+03  0.00000000000E+00 0. -1.
         23    2    1    2    0    0  0.43019546551E+01 -0.21051590717E+02 -0.31013540496E+03  0.32428252751E+03  0.92268694323E+02 0.  0.
         23    2    1    2    0    0  0.11576817412E+03  0.97386605231E+01 -0.40335733164E+02  0.15443055532E+03  0.93406174319E+02 0.  0.
        -11    1    3    3    0    0  0.24253302702E+02  0.27696655471E+02 -0.78075397358E+02  0.86319725954E+02  0.00000000000E+00 0.  1.
         11    1    3    3    0    0 -0.19951348047E+02 -0.48748246188E+02 -0.23206000760E+03  0.23796280156E+03  0.00000000000E+00 0. -1.
        -13    1    4    4    0    0  0.10446036981E+03 -0.28041394372E+02 -0.38989395929E+02  0.11497156890E+03  0.00000000000E+00 0.  1.
         13    1    4    4    0    0  0.11307804306E+02  0.37780054895E+02 -0.13463372341E+01  0.39458986430E+02  0.00000000000E+00 0. -1.
          1    1    1    2  501    0 -0.12007012877E+03  0.11312930194E+02 -0.15025993837E+03  0.19267295423E+03  0.00000000000E+00 0. -1.
<scales pt_clust_5="13000.00000" pt_clust_6="13000.00000" pt_clust_7="13000.00000" pt_clust_8="13000.00000" pt_clust_9="117.34553"></scales>
<clustering>
<clus scale="   92.269">  5  6 -1 -1</clus>
<clus scale="   93.406">  7  8 -1 -1</clus>
<clus scale="   94.737">  2  5  1 -1</clus>
<clus scale="  117.346">  1  9  2 -1</clus>
<clus scale="  117.346">  1  5  2 -1</clus>
</clustering>
</event>
<event>
 9    1  0.1464797E-005  0.1513826E+03  0.7546771E-02  0.1219383E+00
          1   -1    0    0  502    0 -0.00000000000E+00  0.00000000000E+00  0.46075733674E+02  0.46075733674E+02  0.00000000000E+00 0. -1.
         21   -1    0    0  501  502  0.00000000000E+00 -0.00000000000E+00 -0.85508573181E+03  0.85508573181E+03  0.00000000000E+00 0. -1.
         23    2    1    2    0    0  0.31904076365E+02  0.21011519878E+01 -0.92870181846E+02  0.13460860440E+03  0.92045210487E+02 0.  0.
         23    2    1    2    0    0 -0.93629536750E+02  0.91899855560E+02 -0.44640561870E+03  0.47431535626E+03  0.92114098641E+02 0.  0.
        -11    1    4    4    0    0 -0.43030246494E+02 -0.12007109920E+02 -0.11886058573E+03  0.12697878422E+03  0.00000000000E+00 0.  1.
         11    1    4    4    0    0 -0.50599290257E+02  0.10390696548E+03 -0.32754503297E+03  0.34733657204E+03  0.00000000000E+00 0. -1.
        -13    1    3    3    0    0  0.32115325107E+02  0.44527720167E+02 -0.55575649060E+02  0.78120194178E+02  0.00000000000E+00 0.  1.
         13    1    3    3    0    0 -0.21124874192E+00 -0.42426568179E+02 -0.37294532787E+02  0.56488410221E+02  0.00000000000E+00 0. -1.
          1    1    1    2  501    0  0.61725460386E+02 -0.94001007548E+02 -0.26973419759E+03  0.29223750483E+03  0.00000000000E+00 0. -1.
<scales pt_clust_5="13000.00000" pt_clust_6="13000.00000" pt_clust_7="13000.00000" pt_clust_8="13000.00000" pt_clust_9="120.13202"></scales>
<clustering>
<clus scale="   92.045">  7  8 -1 -1</clus>
<clus scale="   92.114">  5  6 -1 -1</clus>
<clus scale="   97.440">  1  7  2 -1</clus>
<clus scale="  120.132">  2  9  1 -1</clus>
<clus scale="  120.132">  2  5  1 -1</clus>
</clustering>
</event>
<event>
 9    1  0.1464797E-005  0.1043286E+03  0.7546771E-02  0.1272815E+00
         21   -1    0    0  501  502  0.00000000000E+00  0.00000000000E+00  0.19566067956E+03  0.19566067956E+03  0.00000000000E+00 0. -1.
          2   -1    0    0  502    0 -0.00000000000E+00 -0.00000000000E+00 -0.16603020140E+03  0.16603020140E+03  0.00000000000E+00 0. -1.
         23    2    1    2    0    0 -0.17493560249E+01 -0.66155900780E+02 -0.72332230034E+02  0.12838993451E+03  0.82899700411E+02 0.  0.
         23    2    1    2    0    0 -0.12008377388E+02  0.48333423091E+02 -0.26385444853E+02  0.10299298687E+03  0.86203496034E+02 0.  0.
        -13    1    3    3    0    0 -0.26106493650E+02 -0.43553958122E+02 -0.22492118356E+01  0.50828685136E+02  0.00000000000E+00 0.  1.
         13    1    3    3    0    0  0.24357137625E+02 -0.22601942658E+02 -0.70083018198E+02  0.77561249377E+02  0.00000000000E+00 0. -1.
        -13    1    4    4    0    0 -0.37982000821E+02  0.52249293317E+02 -0.37251108768E+02  0.74567192135E+02  0.00000000000E+00 0.  1.
         13    1    4    4    0    0  0.25973623433E+02 -0.39158702262E+01  0.10865663914E+02  0.28425794732E+02  0.00000000000E+00 0. -1.
          2    1    1    2  501    0  0.13757733413E+02  0.17822477689E+02  0.12834815304E+03  0.13030795958E+03  0.00000000000E+00 0. -1.
<scales pt_clust_5="13000.00000" pt_clust_6="13000.00000" pt_clust_7="13000.00000" pt_clust_8="13000.00000" pt_clust_9="22.51479"></scales>
<clustering>
<clus scale="   22.515">  1  9  2 -1</clus>
<clus scale="   82.900">  5  6 -1 -1</clus>
<clus scale="   86.203">  7  8 -1 -1</clus>
<clus scale="  101.616">  2  5  1 -1</clus>
<clus scale="   22.515">  1  5  2 -1</clus>
</clustering>
</event>
<event>
 9    1  0.1464797E-005  0.1163092E+03  0.7546771E-02  0.1250409E+00
         -1   -1    0    0    0  501 -0.00000000000E+00  0.00000000000E+00  0.18366140459E+03  0.18366140459E+03  0.00000000000E+00 0.  1.
         21   -1    0    0  501  502  0.00000000000E+00 -0.00000000000E+00 -0.11907276243E+03  0.11907276243E+03  0.00000000000E+00 0. -1.
         23    2    1    2    0    0  0.42656802180E+02 -0.53159232074E+02  0.10113027573E+03  0.15091561072E+03  0.88897031248E+02 0.  0.
         23    2    1    2    0    0 -0.32983571705E+02  0.74976518217E+02 -0.27418493053E+02  0.12626866285E+03  0.92101070405E+02 0.  0.
        -11    1    3    3    0    0  0.21290859796E+02 -0.62785511835E+02  0.10779611025E+03  0.12655165977E+03  0.00000000000E+00 0.  1.
         11    1    3    3    0    0  0.21365942384E+02  0.96262797615E+01 -0.66658345206E+01  0.24363950950E+02  0.00000000000E+00 0. -1.
        -13    1    4    4    0    0 -0.20200483598E+02  0.26281980148E+01 -0.46153032310E+02  0.50448680397E+02  0.00000000000E+00 0.  1.
         13    1    4    4    0    0 -0.12783088107E+02  0.72348320202E+02  0.18734539257E+02  0.75819982450E+02  0.00000000000E+00 0. -1.
         -1    1    1    2    0  502 -0.96732304750E+01 -0.21817286143E+02 -0.91231405185E+01  0.25549893451E+02  0.00000000000E+00 0.  1.
<scales pt_clust_5="13000.00000" pt_clust_6="13000.00000" pt_clust_7="13000.00000" pt_clust_8="13000.00000" pt_clust_9="23.86557"></scales>
<clustering>
<clus scale="   23.866">  2  9  1 -1</clus>
<clus scale="   88.897">  5  6 -1 -1</clus>
<clus scale="   92.101">  7  8 -1 -1</clus>
<clus scale="  113.789">  1  5  2 -1</clus>
<clus scale="   23.866">  2  5  1 -1</clus>
</clustering>
</event>
<event>
 9    1  0.1464797E-005  0.1266976E+03  0.7546771E-02  0.1232708E+00
         -1   -1    0    0    0  501 -0.00000000000E+00  0.00000000000E+00  0.51484962124E+02  0.51484962124E+02  0.00000000000E+00 0.  1.
         21   -1    0    0  501  502  0.00000000000E+00 -0.00000000000E+00 -0.58867457988E+03  0.58867457988E+03  0.00000000000E+00 0. -1.
         23    2    1    2    0    0  0.64540876335E+02  0.74517149758E+02 -0.12801786220E+03  0.18729381518E+03  0.94721010537E+02 0.  0.
         23    2    1    2    0    0  0.83672544992E+01 -0.75262547066E+02 -0.27221083527E+03  0.29770630930E+03  0.93786170737E+02 0.  0.
        -13    1    3    3    0    0  0.52299291641E+01  0.28403810506E+02  0.96581730835E+01  0.30453389263E+02  0.00000000000E+00 0.  1.
         13    1    3    3    0    0  0.59310947170E+02  0.46113339252E+02 -0.13767603528E+03  0.15684042592E+03  0.00000000000E+00 0. -1.
        -13    1    4    4    0    0  0.48380403181E+02 -0.45763289251E+02 -0.19322151785E+03  0.20437587190E+03  0.00000000000E+00 0. -1.
         13    1    4    4    0    0 -0.40013148682E+02 -0.29499257815E+02 -0.78989317418E+02  0.93330437400E+02  0.00000000000E+00 0.  1.
         -1    1    1    2    0  502 -0.72908130834E+02  0.74539730766E+00 -0.13696092029E+03  0.15515941752E+03  0.00000000000E+00 0.  1.
<scales pt_clust_5="13000.00000" pt_clust_6="13000.00000" pt_clust_7="13000.00000" pt_clust_8="13000.00000" pt_clust_9="72.91194"></scales>
<clustering>
<clus scale="   72.912">  2  9  1 -1</clus>
<clus scale="   93.786">  7  8 -1 -1</clus>
<clus scale="   94.721">  5  6 -1 -1</clus>
<clus scale="  126.000">  2  7  1 -1</clus>
<clus scale="   72.912">  2  5  1 -1</clus>
</clustering>
</event>
<event>
 9    1  0.1464797E-005  0.1211313E+03  0.7546771E-02  0.1241644E+00
          1   -1    0    0  502    0 -0.00000000000E+00  0.00000000000E+00  0.24430530711E+03  0.24430530711E+03  0.00000000000E+00 0. -1.
         21   -1    0    0  501  502  0.00000000000E+00 -0.00000000000E+00 -0.10061719866E+03  0.10061719866E+03  0.00000000000E+00 0.  1.
         23    2    1    2    0    0 -0.67818902192E+02 -0.14706381297E+02  0.12125831681E+03  0.16684962964E+03  0.91211503495E+02 0.  0.
         23    2    1    2    0    0  0.10154551565E+03  0.23544954255E+02  0.33162183079E+02  0.14159289459E+03  0.89905287889E+02 0.  0.
        -11    1    3    3    0    0 -0.24447194455E+02  0.28960685570E+02  0.90352846933E+02  0.97979710013E+02  0.00000000000E+00 0. -1.
         11    1    3    3    0    0 -0.43371707738E+02 -0.43667066868E+02  0.30905469875E+02  0.68869919625E+02  0.00000000000E+00 0.  1.
        -13    1    4    4    0    0  0.99967962703E+02  0.47848845399E+02  0.16421277425E+02  0.11203911784E+03  0.00000000000E+00 0.  1.
         13    1    4    4    0    0  0.15775529501E+01 -0.24303891145E+02  0.16740905653E+02  0.29553776750E+02  0.00000000000E+00 0. -1.
          1    1    1    2  501    0 -0.33726613461E+02 -0.88385729572E+01 -0.10732391441E+02  0.36479981544E+02  0.00000000000E+00 0. -1.
<scales pt_clust_5="13000.00000" pt_clust_6="13000.00000" pt_clust_7="13000.00000" pt_clust_8="13000.00000" pt_clust_9="34.86552"></scales>
<clustering>
<clus scale="   34.866">  2  9  1 -1</clus>
<clus scale="   89.905">  7  8 -1 -1</clus>
<clus scale="   91.212">  5  6 -1 -1</clus>
<clus scale="  120.151">  2  7  1 -1</clus>
<clus scale="   34.866">  2  5  1 -1</clus>
</clustering>
</event>
<event>
 9    1  0.1464797E-005  0.9979400E+02  0.7546771E-02  0.1282242E+00
          2   -1    0    0  502    0 -0.00000000000E+00  0.00000000000E+00  0.11227004676E+03  0.11227004676E+03  0.00000000000E+00 0. -1.
         21   -1    0    0  501  502  0.00000000000E+00 -0.00000000000E+00 -0.14739588569E+03  0.14739588569E+03  0.00000000000E+00 0.  1.
         23    2    1    2    0    0  0.12969064072E+02  0.25524467397E+02  0.99912056451E+01  0.96362287042E+02  0.91466776017E+02 0.  0.
         23    2    1    2    0    0  0.21916284950E+02 -0.45846344825E+02 -0.56673657411E+02  0.12130934128E+03  0.94455502525E+02 0.  0.
        -11    1    3    3    0    0 -0.97834309783E+01 -0.30197982774E+02 -0.94360611559E+01  0.33116052534E+02  0.00000000000E+00 0.  1.
         11    1    3    3    0    0  0.22752495051E+02  0.55722450171E+02  0.19427266801E+02  0.63246234508E+02  0.00000000000E+00 0. -1.
        -13    1    4    4    0    0 -0.62202081753E+00 -0.49602520153E+02 -0.76420783179E+02  0.91109456244E+02  0.00000000000E+00 0.  1.
         13    1    4    4    0    0  0.22538305768E+02  0.37561753275E+01  0.19747125768E+02  0.30199885034E+02  0.00000000000E+00 0. -1.
          2    1    1    2  501    0 -0.34885349023E+02  0.20321877428E+02  0.11556612844E+02  0.41994304126E+02  0.00000000000E+00 0. -1.
<scales pt_clust_5="13000.00000" pt_clust_6="13000.00000" pt_clust_7="13000.00000" pt_clust_8="13000.00000" pt_clust_9="40.37286"></scales>
<clustering>
<clus scale="   40.373">  2  9  1 -1</clus>
<clus scale="   91.467">  5  6 -1 -1</clus>
<clus scale="   94.456">  7  8 -1 -1</clus>
<clus scale="   96.970">  1  5  2 -1</clus>
<clus scale="   40.373">  2  5  1 -1</clus>
</clustering>
</event>
<event>
 9    1  0.1464797E-005  0.1065139E+03  0.7546771E-02  0.1274921E+00
          2   -1    0    0  502    0 -0.00000000000E+00  0.00000000000E+00  0.13141555144E+03  0.13141555144E+03  0.00000000000E+00 0. -1.
         21   -1    0    0  501  502  0.00000000000E+00 -0.00000000000E+00 -0.24327760984E+03  0.24327760984E+03  0.00000000000E+00 0. -1.
         23    2    1    2    0    0  0.67437553944E+01 -0.16934642873E+02  0.69946242203E+02  0.12782042802E+03  0.10541975457E+03 0.  0.
         23    2    1    2    0    0  0.41617991916E+02  0.64221201840E+01 -0.62521668884E+02  0.11772679936E+03  0.90428642186E+02 0.  0.
        -13    1    3    3    0    0 -0.13003026344E+02  0.20332534905E+02 -0.18117395643E+02  0.30178314974E+02  0.00000000000E+00 0.  1.
         13    1    3    3    0    0  0.19746781738E+02 -0.37267177778E+02  0.88063637846E+02  0.97642113042E+02  0.00000000000E+00 0. -1.
        -13    1    4    4    0    0 -0.28006411391E+02  0.10635076417E+02 -0.20388355550E+02  0.36237397415E+02  0.00000000000E+00 0.  1.
         13    1    4    4    0    0  0.69624403307E+02 -0.42129562331E+01 -0.42133313334E+02  0.81489401940E+02  0.00000000000E+00 0. -1.
          2    1    1    2  501    0 -0.48361747310E+02  0.10512522690E+02 -0.11928663172E+03  0.12914593390E+03  0.00000000000E+00 0. -1.
<scales pt_clust_5="13000.00000" pt_clust_6="13000.00000" pt_clust_7="13000.00000" pt_clust_8="13000.00000" pt_clust_9="49.49113"></scales>
<clustering>
<clus scale="   49.491">  2  9  1 -1</clus>
<clus scale="   90.429">  7  8 -1 -1</clus>
<clus scale="   91.702">  2  7  1 -1</clus>
<clus scale="  105.420">  5  6 -1 -1</clus>
<clus scale="   49.491">  2  5  1 -1</clus>
</clustering>
</event>
<event>
 9    1  0.1464797E-005  0.9740046E+02  0.7546771E-02  0.1288384E+00
          1   -1    0    0  502    0 -0.00000000000E+00  0.00000000000E+00  0.24211086136E+03  0.24211086136E+03  0.00000000000E+00 0. -1.
         21   -1    0    0  501  502  0.00000000000E+00 -0.00000000000E+00 -0.12269127048E+03  0.12269127048E+03  0.00000000000E+00 0. -1.
         23    2    1    2    0    0 -0.12095126035E+00 -0.34388145023E+00  0.12264871208E+03  0.15277309424E+03  0.91086655804E+02 0.  0.
         23    2    1    2    0    0  0.26647267636E+02 -0.73954159415E+02  0.28366413565E+02  0.12704596779E+03  0.95690803873E+02 0.  0.
        -11    1    3    3    0    0 -0.28452961449E+02 -0.30575385358E+02  0.92624494240E+02  0.10160571902E+03  0.00000000000E+00 0.  1.
         11    1    3    3    0    0  0.28332010189E+02  0.30231503908E+02  0.30024217843E+02  0.51167375221E+02  0.00000000000E+00 0. -1.
        -11    1    4    4    0    0  0.68699793385E+01 -0.69277025402E+02 -0.21774801213E+02  0.72942750377E+02  0.00000000000E+00 0.  1.
         11    1    4    4    0    0  0.19777288297E+02 -0.46771340127E+01  0.50141214778E+02  0.54103217413E+02  0.00000000000E+00 0. -1.
          1    1    1    2  501    0 -0.26526316376E+02  0.74298040865E+02 -0.31595534764E+02  0.84983069807E+02  0.00000000000E+00 0. -1.
<scales pt_clust_5="13000.00000" pt_clust_6="13000.00000" pt_clust_7="13000.00000" pt_clust_8="13000.00000" pt_clust_9="78.89135"></scales>
<clustering>
<clus scale="   78.891">  2  9  1 -1</clus>
<clus scale="   91.087">  5  6 -1 -1</clus>
<clus scale="   92.881">  1  5  2 -1</clus>
<clus scale="   95.691">  7  8 -1 -1</clus>
<clus scale="   78.891">  2  5  1 -1</clus>
</clustering>
</event>
<event>
 9    1  0.1464797E-005  0.1148311E+03  0.7546771E-02  0.1254336E+00
         -2   -1    0    0    0  501 -0.00000000000E+00  0.00000000000E+00  0.89972701467E+02  0.89972701467E+02  0.00000000000E+00 0.  1.
         21   -1    0    0  501  502  0.00000000000E+00 -0.00000000000E+00 -0.23433382466E+03  0.23433382466E+03  0.00000000000E+00 0. -1.
         23    2    1    2    0    0  0.62962696897E+02  0.31253000361E+02  0.10352290279E+02  0.11957531496E+03  0.96177101234E+02 0.  0.
         23    2    1    2    0    0 -0.43700992319E+02 -0.18355174851E+02 -0.88367619531E+02  0.13445225600E+03  0.89564969644E+02 0.  0.
        -11    1    4    4    0    0 -0.59162945053E+02  0.16317824981E+01 -0.21500643321E+02  0.62969789936E+02  0.00000000000E+00 0.  1.
         11    1    4    4    0    0  0.15461952734E+02 -0.19986957349E+02 -0.66866976210E+02  0.71482466059E+02  0.00000000000E+00 0. -1.
        -13    1    3    3    0    0  0.25632106343E+02 -0.25941685759E+02 -0.23461630946E+02  0.43363856635E+02  0.00000000000E+00 0. -1.
         13    1    3    3    0    0  0.37330590554E+02  0.57194686120E+02  0.33813921225E+02  0.76211458326E+02  0.00000000000E+00 0.  1.
         -2    1    1    2    0  502 -0.19261704579E+02 -0.12897825511E+02 -0.66345793942E+02  0.70278955171E+02  0.00000000000E+00 0.  1.
<scales pt_clust_5="13000.00000" pt_clust_6="13000.00000" pt_clust_7="13000.00000" pt_clust_8="13000.00000" pt_clust_9="23.18118"></scales>
<clustering>
<clus scale="   23.181">  2  9  1 -1</clus>
<clus scale="   89.565">  5  6 -1 -1</clus>
<clus scale="   96.177">  7  8 -1 -1</clus>
<clus scale="  109.353">  2  5  1 -1</clus>
<clus scale="   23.181">  2  5  1 -1</clus>
</clustering>
</event>
<event>
 9    1  0.1464797E-005  0.1914938E+03  0.7546771E-02  0.1181074E+00
         21   -1    0    0  501  502  0.00000000000E+00  0.00000000000E+00  0.26440931778E+03  0.26440931778E+03  0.00000000000E+00 0. -1.
          3   -1    0    0  502    0 -0.00000000000E+00 -0.00000000000E+00 -0.31858937009E+03  0.31858937009E+03  0.00000000000E+00 0. -1.
         23    2    1    2    0    0  0.57776602296E+02  0.22554529040E+02  0.13192468818E+03  0.17216097021E+03  0.91588393141E+02 0.  0.
         23    2    1    2    0    0 -0.12436795154E+03 -0.14900160823E+03 -0.67133811066E+02  0.22488784894E+03  0.91644581866E+02 0.  0.
        -11    1    4    4    0    0 -0.64100418559E+02 -0.14942724283E+02 -0.74114631180E+01  0.66235024375E+02  0.00000000000E+00 0.  1.
         11    1    4    4    0    0 -0.60267532984E+02 -0.13405888395E+03 -0.59722347947E+02  0.15865282456E+03  0.00000000000E+00 0. -1.
        -13    1    3    3    0    0  0.78316920749E+02  0.19533167520E+02  0.69975288499E+02  0.10682521102E+03  0.00000000000E+00 0. -1.
         13    1    3    3    0    0 -0.20540318454E+02  0.30213615201E+01  0.61949399683E+02  0.65335759189E+02  0.00000000000E+00 0.  1.
          3    1    1    2  501    0  0.66591349248E+02  0.12644707919E+03 -0.11897092942E+03  0.18594986872E+03  0.00000000000E+00 0. -1.
<scales pt_clust_5="13000.00000" pt_clust_6="13000.00000" pt_clust_7="13000.00000" pt_clust_8="13000.00000" pt_clust_9="168.14031"></scales>
<clustering>
<clus scale="   91.588">  7  8 -1 -1</clus>
<clus scale="   91.645">  5  6 -1 -1</clus>
<clus scale="  110.613">  2  7  1 -1</clus>
<clus scale="  168.140">  1  9  2 -1</clus>
<clus scale="  168.140">  1  5  2 -1</clus>
</clustering>
</event>
<event>
 9    1  0.1464797E-005  0.1202605E+03  0.7546771E-02  0.1244638E+00
         21   -1    0    0  501  502  0.00000000000E+00  0.00000000000E+00  0.31245729753E+03  0.31245729753E+03  0.00000000000E+00 0. -1.
         -1   -1    0    0    0  501 -0.00000000000E+00 -0.00000000000E+00 -0.42991669366E+03  0.42991669366E+03  0.00000000000E+00 0.  1.
         23    2    1    2    0    0  0.44730699813E+01 -0.72248891422E+02 -0.40246586493E+03  0.41888811991E+03  0.90821659865E+02 0.  0.
         23    2    1    2    0    0 -0.19193426857E+02  0.51200430718E+02  0.15347263088E+03  0.18946767430E+03  0.96717523927E+02 0.  0.
        -11    1    4    4    0    0  0.24769554155E+02 -0.16559026253E+02  0.49968694143E+02  0.58177337150E+02  0.00000000000E+00 0.  1.
         11    1    4    4    0    0 -0.43962981012E+02  0.67759456971E+02  0.10350393674E+03  0.13129033715E+03  0.00000000000E+00 0. -1.
        -11    1    3    3    0    0  0.44719791869E+02 -0.43704077700E+02 -0.16734322570E+03  0.17864395142E+03  0.00000000000E+00 0. -1.
         11    1    3    3    0    0 -0.40246721888E+02 -0.28544813722E+02 -0.23512263923E+03  0.24024416849E+03  0.00000000000E+00 0.  1.
         -1    1    1    2    0  502  0.14720356876E+02  0.21048460704E+02  0.13153383792E+03  0.13401819698E+03  0.00000000000E+00 0.  1.
<scales pt_clust_5="13000.00000" pt_clust_6="13000.00000" pt_clust_7="13000.00000" pt_clust_8="13000.00000" pt_clust_9="25.68514"></scales>
<clustering>
<clus scale="   25.685">  1  9  2 -1</clus>
<clus scale="   90.822">  7  8 -1 -1</clus>
<clus scale="   96.718">  5  6 -1 -1</clus>
<clus scale="  115.572">  2  7  1 -1</clus>
<clus scale="   25.685">  1  5  2 -1</clus>
</clustering>
</event>
<event>
 9    1  0.1464797E-005  0.2485788E+03  0.7546771E-02  0.1114217E+00
         21   -1    0    0  501  502  0.00000000000E+00  0.00000000000E+00  0.38486454705E+03  0.38486454705E+03  0.00000000000E+00 0. -1.
         -2   -1    0    0    0  501 -0.00000000000E+00 -0.00000000000E+00 -0.18890046676E+03  0.18890046676E+03  0.00000000000E+00 0.  1.
         23    2    1    2    0    0  0.18452252195E+03 -0.14376335485E+03  0.66917431386E+02  0.26008863272E+03  0.91933078630E+02 0.  0.
         23    2    1    2    0    0 -0.15758300163E+03  0.16569183747E+03  0.13069942922E+03  0.27890099054E+03  0.91745486619E+02 0.  0.
        -11    1    3    3    0    0  0.17881883413E+03 -0.95632535540E+02  0.51403503283E+02  0.20919865545E+03  0.00000000000E+00 0.  1.
         11    1    3    3    0    0  0.57036878223E+01 -0.48130819307E+02  0.15513928103E+02  0.50889977276E+02  0.00000000000E+00 0. -1.
        -11    1    4    4    0    0 -0.21736988427E+02  0.20626731824E+02  0.61579166545E+02  0.68483227757E+02  0.00000000000E+00 0.  1.
         11    1    4    4    0    0 -0.13584601321E+03  0.14506510565E+03  0.69120262674E+02  0.21041776278E+03  0.00000000000E+00 0. -1.
         -2    1    1    2    0  502 -0.26939520314E+02 -0.21928482624E+02 -0.16527803156E+01  0.34775390547E+02  0.00000000000E+00 0.  1.
<scales pt_clust_5="13000.00000" pt_clust_6="13000.00000" pt_clust_7="13000.00000" pt_clust_8="13000.00000" pt_clust_9="34.73611"></scales>
<clustering>
<clus scale="   34.736">  1  9  2 -1</clus>
<clus scale="   91.745">  7  8 -1 -1</clus>
<clus scale="   91.933">  5  6 -1 -1</clus>
<clus scale="  248.509">  1  7  2 -1</clus>
<clus scale="   34.736">  1  5  2 -1</clus>
</clustering>
</event>
<event>
 9    1  0.1464797E-005  0.1017216E+03  0.7546771E-02  0.1277155E+00
         21   -1    0    0  501  502  0.00000000000E+00  0.00000000000E+00  0.66446713956E+03  0.66446713956E+03  0.00000000000E+00 0. -1.
         -3   -1    0    0    0  501 -0.00000000000E+00 -0.00000000000E+00 -0.66136170583E+02  0.66136170583E+02  0.00000000000E+00 0.  1.
         23    2    1    2    0    0 -0.19059920323E+02  0.33902191949E+02 -0.14871123332E+02  0.10205692250E+03  0.93176316411E+02 0.  0.
         23    2    1    2    0    0  0.21144781722E+02 -0.59821596837E+02  0.48965271934E+03  0.50229026004E+03  0.92249631576E+02 0.  0.
        -11    1    3    3    0    0  0.60229286182E+01  0.44479720996E+02 -0.43532471343E+02  0.62528372042E+02  0.00000000000E+00 0.  1.
         11    1    3    3    0    0 -0.25082848941E+02 -0.10577529047E+02  0.28661348011E+02  0.39528550461E+02  0.00000000000E+00 0. -1.
        -13    1    4    4    0    0  0.27392173400E+02  0.12794329265E+02  0.68466340055E+02  0.74844276637E+02  0.00000000000E+00 0.  1.
         13    1    4    4    0    0 -0.62473916781E+01 -0.72615926102E+02  0.42118637929E+03  0.42744598340E+03  0.00000000000E+00 0. -1.
         -3    1    1    2    0  502 -0.20848613990E+01  0.25919404888E+02  0.12354937297E+03  0.12625612760E+03  0.00000000000E+00 0.  1.
<scales pt_clust_5="13000.00000" pt_clust_6="13000.00000" pt_clust_7="13000.00000" pt_clust_8="13000.00000" pt_clust_9="26.00312"></scales>
<clustering>
<clus scale="   26.003">  1  9  2 -1</clus>
<clus scale="   92.250">  7  8 -1 -1</clus>
<clus scale="   93.176">  5  6 -1 -1</clus>
<clus scale="  100.873">  1  7  2 -1</clus>
<clus scale="   26.003">  1  5  2 -1</clus>
</clustering>
</event>
<event>
 9    1  0.1464797E-005  0.1852236E+03  0.7546771E-02  0.1172082E+00
         21   -1    0    0  501  502  0.00000000000E+00  0.00000000000E+00  0.56023568978E+03  0.56023568978E+03  0.00000000000E+00 0.  1.
          1   -1    0    0  502    0 -0.00000000000E+00 -0.00000000000E+00 -0.12530778363E+03  0.12530778363E+03  0.00000000000E+00 0. -1.
         23    2    1    2    0    0  0.82496599839E+02 -0.86301700391E+02  0.18764416096E+03  0.24009965063E+03  0.90464571048E+02 0.  0.
         23    2    1    2    0    0 -0.12922422712E+03 -0.91359533998E+02  0.14960627465E+03  0.23738644222E+03  0.94471266563E+02 0.  0.
        -11    1    3    3    0    0  0.14135128781E+02 -0.79732924062E+02  0.96365007249E+02  0.12587039234E+03  0.00000000000E+00 0.  1.
         11    1    3    3    0    0  0.68361471059E+02 -0.65687763282E+01  0.91279153709E+02  0.11422925829E+03  0.00000000000E+00 0. -1.
        -13    1    4    4    0    0 -0.71822131649E+02 -0.95411372110E+02  0.13015951427E+03  0.17664441026E+03  0.00000000000E+00 0.  1.
         13    1    4    4    0    0 -0.57402095474E+02  0.40518381112E+01  0.19446760387E+02  0.60742031958E+02  0.00000000000E+00 0. -1.
          1    1    1    2  501    0  0.46727627283E+02  0.17766123439E+03  0.97677470541E+02  0.20805738056E+03  0.00000000000E+00 0. -1.
<scales pt_clust_5="13000.00000" pt_clust_6="13000.00000" pt_clust_7="13000.00000" pt_clust_8="13000.00000" pt_clust_9="159.32039"></scales>
<clustering>
<clus scale="   90.465">  5  6 -1 -1</clus>
<clus scale="   94.471">  7  8 -1 -1</clus>
<clus scale="  149.792">  2  5  1 -1</clus>
<clus scale="  159.320">  1  9  2 -1</clus>
<clus scale="  159.320">  1  5  2 -1</clus>
</clustering>
</event>
<event>
 9    1  0.1464797E-005  0.9551742E+02  0.7546771E-02  0.1291120E+00
         21   -1    0    0  501  502  0.00000000000E+00  0.00000000000E+00  0.43099301199E+02  0.43099301199E+02  0.00000000000E+00 0. -1.
          2   -1    0    0  502    0 -0.00000000000E+00 -0.00000000000E+00 -0.79896334084E+03  0.79896334084E+03  0.00000000000E+00 0. -1.
         23    2    1    2    0    0 -0.28314287665E+01 -0.38279410552E+02 -0.48796182034E+03  0.49774282962E+03  0.90376191968E+02 0.  0.
         23    2    1    2    0    0 -0.30328928911E+02 -0.51665932933E+01 -0.27259033904E+03  0.28946415602E+03  0.92398414845E+02 0.  0.
        -11    1    3    3    0    0 -0.36216997559E+02 -0.50350643148E+02 -0.28158226745E+03  0.28833215485E+03  0.00000000000E+00 0. -1.
         11    1    3    3    0    0  0.33385568792E+02  0.12071232596E+02 -0.20637955288E+03  0.20941067477E+03  0.00000000000E+00 0.  1.
        -11    1    4    4    0    0 -0.50186892216E+02 -0.34707767575E+02 -0.18914488349E+03  0.19874390615E+03  0.00000000000E+00 0. -1.
         11    1    4    4    0    0  0.19857963305E+02  0.29541174281E+02 -0.83445455551E+02  0.90720249871E+02  0.00000000000E+00 0.  1.
          2    1    1    2  501    0  0.33160357678E+02  0.43446003846E+02  0.46881197424E+01  0.54855656392E+02  0.00000000000E+00 0. -1.
<scales pt_clust_5="13000.00000" pt_clust_6="13000.00000" pt_clust_7="13000.00000" pt_clust_8="13000.00000" pt_clust_9="54.65496"></scales>
<clustering>
<clus scale="   54.655">  1  9  2 -1</clus>
<clus scale="   90.376">  5  6 -1 -1</clus>
<clus scale="   92.398">  7  8 -1 -1</clus>
<clus scale="   93.563">  2  5  1 -1</clus>
<clus scale="   54.655">  1  5  2 -1</clus>
</clustering>
</event>
<event>
 9    1  0.1464797E-005  0.9656882E+02  0.7546771E-02  0.1287934E+00
         21   -1    0    0  501  502  0.00000000000E+00  0.00000000000E+00  0.60421341155E+02  0.60421341155E+02  0.00000000000E+00 0. -1.
         -1   -1    0    0    0  501 -0.00000000000E+00 -0.00000000000E+00 -0.24910919909E+03  0.24910919909E+03  0.00000000000E+00 0.  1.
         23    2    1    2    0    0  0.39517266959E+02  0.20230676994E+02 -0.10248104087E+03  0.14465871796E+03  0.91939579430E+02 0.  0.
         23    2    1    2    0    0 -0.18363370888E+02  0.17127592876E+02 -0.73829397522E+02  0.12019153400E+03  0.91458499209E+02 0.  0.
        -11    1    4    4    0    0  0.27106859113E+02  0.18676904889E+01 -0.66286910090E+02  0.71639545839E+02  0.00000000000E+00 0.  1.
         11    1    4    4    0    0 -0.45470230001E+02  0.15259902387E+02 -0.75424874322E+01  0.48551988156E+02  0.00000000000E+00 0. -1.
        -13    1    3    3    0    0  0.90253369713E+01  0.53495444017E+02 -0.72216739632E+02  0.90324286441E+02  0.00000000000E+00 0.  1.
         13    1    3    3    0    0  0.30491929988E+02 -0.33264767023E+02 -0.30264301233E+02  0.54334431520E+02  0.00000000000E+00 0. -1.
         -1    1    1    2    0  502 -0.21153896071E+02 -0.37358269870E+02 -0.12377419545E+02  0.44680288285E+02  0.00000000000E+00 0.  1.
<scales pt_clust_5="13000.00000" pt_clust_6="13000.00000" pt_clust_7="13000.00000" pt_clust_8="13000.00000" pt_clust_9="42.93166"></scales>
<clustering>
<clus scale="   42.932">  1  9  2 -1</clus>
<clus scale="   91.458">  5  6 -1 -1</clus>
<clus scale="   91.940">  7  8 -1 -1</clus>
<clus scale="   96.111">  1  5  2 -1</clus>
<clus scale="   42.932">  1  5  2 -1</clus>
</clustering>
</event>
<event>
 9    1  0.1464797E-005  0.9823183E+02  0.7546771E-02  0.1284966E+00
          1   -1    0    0  502    0 -0.00000000000E+00  0.00000000000E+00  0.26625353788E+03  0.26625353788E+03  0.00000000000E+00 0. -1.
         21   -1    0    0  501  502  0.00000000000E+00 -0.00000000000E+00 -0.73982508267E+02  0.73982508267E+02  0.00000000000E+00 0.  1.
         23    2    1    2    0    0  0.21565199900E+02  0.31110672505E+02  0.18450252966E+03  0.20906549473E+03  0.90742855611E+02 0.  0.
         23    2    1    2    0    0 -0.23724926553E+02  0.19418771686E+01 -0.50255249143E+01  0.95662488513E+02  0.92517094534E+02 0.  0.
        -11    1    3    3    0    0  0.56321430355E+02  0.87947991213E+01  0.10873783940E+03  0.12277365241E+03  0.00000000000E+00 0. -1.
         11    1    3    3    0    0 -0.34756230455E+02  0.22315873383E+02  0.75764690261E+02  0.86291842318E+02  0.00000000000E+00 0.  1.
        -13    1    4    4    0    0 -0.56545634850E+02  0.15716963463E+02  0.43618568077E+01  0.58851147447E+02  0.00000000000E+00 0.  1.
         13    1    4    4    0    0  0.32820708297E+02 -0.13775086294E+02 -0.93873817219E+01  0.36811341066E+02  0.00000000000E+00 0. -1.
          1    1    1    2  501    0  0.21597266527E+01 -0.33052549673E+02  0.12794024870E+02  0.35508062908E+02  0.00000000000E+00 0. -1.
<scales pt_clust_5="13000.00000" pt_clust_6="13000.00000" pt_clust_7="13000.00000" pt_clust_8="13000.00000" pt_clust_9="33.12304"></scales>
<clustering>
<clus scale="   33.123">  2  9  1 -1</clus>
<clus scale="   90.743">  5  6 -1 -1</clus>
<clus scale="   92.517">  7  8 -1 -1</clus>
<clus scale="   96.563">  1  5  2 -1</clus>
<clus scale="   33.123">  2  5  1 -1</clus>
</clustering>
</event>
<event>
 9    1  0.1464797E-005  0.1062460E+03  0.7546771E-02  0.1268834E+00
          2   -1    0    0  502    0 -0.00000000000E+00  0.00000000000E+00  0.22530868972E+03  0.22530868972E+03  0.00000000000E+00 0. -1.
         21   -1    0    0  501  502  0.00000000000E+00 -0.00000000000E+00 -0.51221901296E+03  0.51221901296E+03  0.00000000000E+00 0. -1.
         23    2    1    2    0    0  0.38166405362E+02  0.14786276002E+01  0.11881334975E+03  0.15367614350E+03  0.89670977278E+02 0.  0.
         23    2    1    2    0    0 -0.92640116694E+02 -0.87476716994E+00  0.38439513595E+02  0.13636001044E+03  0.92376944103E+02 0.  0.
        -11    1    4    4    0    0  0.12478709910E+02  0.18436278776E+02 -0.13803958177E+01  0.22305157896E+02  0.00000000000E+00 0.  1.
         11    1    4    4    0    0 -0.10511882660E+03 -0.19311045946E+02  0.39819909413E+02  0.11405485254E+03  0.00000000000E+00 0. -1.
        -13    1    3    3    0    0  0.46087587516E+02 -0.32968428223E+02  0.96405391549E+02  0.11182567908E+03  0.00000000000E+00 0.  1.
         13    1    3    3    0    0 -0.79211821546E+01  0.34447055823E+02  0.22407958199E+02  0.41850464421E+02  0.00000000000E+00 0. -1.
          2    1    1    2  501    0  0.54473711332E+02 -0.60386043025E+00 -0.44416318659E+03  0.44749154874E+03  0.00000000000E+00 0. -1.
<scales pt_clust_5="13000.00000" pt_clust_6="13000.00000" pt_clust_7="13000.00000" pt_clust_8="13000.00000" pt_clust_9="54.47706"></scales>
<clustering>
<clus scale="   54.477">  2  9  1 -1</clus>
<clus scale="   89.671">  7  8 -1 -1</clus>
<clus scale="   92.377">  5  6 -1 -1</clus>
<clus scale="  103.902">  1  7  2 -1</clus>
<clus scale="   54.477">  2  5  1 -1</clus>
</clustering>
</event>
<event>
 9    1  0.1464797E-005  0.1875691E+03  0.7546771E-02  0.1161239E+00
          1   -1    0    0  502    0 -0.00000000000E+00  0.00000000000E+00  0.50329904548E+03  0.50329904548E+03  0.00000000000E+00 0. -1.
         21   -1    0    0  501  502  0.00000000000E+00 -0.00000000000E+00 -0.22575481495E+03  0.22575481495E+03  0.00000000000E+00 0. -1.
         23    2    1    2    0    0 -0.44393727326E+02  0.16142002205E+03  0.43574458902E+03  0.47567024029E+03  0.91441807116E+02 0.  0.
         23    2    1    2    0    0  0.18971982317E+02 -0.13255742818E+03 -0.13139476325E+03  0.20650234050E+03  0.86297305530E+02 0.  0.
        -11    1    4    4    0    0 -0.32961215638E+02 -0.70412016240E+02 -0.55614475375E+02  0.95589035137E+02  0.00000000000E+00 0. -1.
         11    1    4    4    0    0  0.51933197954E+02 -0.62145411941E+02 -0.75780287878E+02  0.11091330536E+03  0.00000000000E+00 0.  1.
        -13    1    3    3    0    0 -0.59357526566E+02  0.49948766574E+02  0.15800613506E+03  0.17602310632E+03  0.00000000000E+00 0.  1.
         13    1    3    3    0    0  0.14963799240E+02  0.11147125548E+03  0.27773845396E+03  0.29964713396E+03  0.00000000000E+00 0. -1.
          1    1    1    2  501    0  0.25421745009E+02 -0.28862593868E+02 -0.26805595243E+02  0.46881279637E+02  0.00000000000E+00 0. -1.
<scales pt_clust_5="13000.00000" pt_clust_6="13000.00000" pt_clust_7="13000.00000" pt_clust_8="13000.00000" pt_clust_9="38.46186"></scales>
<clustering>
<clus scale="   38.462">  2  9  1 -1</clus>
<clus scale="   86.297">  5  6 -1 -1</clus>
<clus scale="   91.442">  7  8 -1 -1</clus>
<clus scale="  185.116">  2  5  1 -1</clus>
<clus scale="   38.462">  2  5  1 -1</clus>
</clustering>
</event>
<event>
 9    1  0.1464797E-005  0.2496389E+03  0.7546771E-02  0.1121092E+00
         21   -1    0    0  501  502  0.00000000000E+00  0.00000000000E+00  0.23462474068E+03  0.23462474068E+03  0.00000000000E+00 0. -1.
          1   -1    0    0  502    0 -0.00000000000E+00 -0.00000000000E+00 -0.82143760611E+03  0.82143760611E+03  0.00000000000E+00 0. -1.
         23    2    1    2    0    0 -0.15318976614E+03  0.91437006093E+02 -0.41963799989E+03  0.46767041962E+03  0.10388329944E+03 0.  0.
         23    2    1    2    0    0  0.28987268770E+03  0.82275786006E+02 -0.18711093151E+03  0.36645544546E+03  0.92106529520E+02 0.  0.
        -11    1    3    3    0    0 -0.12978536244E+03  0.50063216451E+02 -0.38352682995E+03  0.40797474828E+03  0.00000000000E+00 0. -1.
         11    1    3    3    0    0 -0.23404403694E+02  0.41373789643E+02 -0.36111169939E+02  0.59695671334E+02  0.00000000000E+00 0.  1.
        -13    1    4    4    0    0  0.86310738824E+02 -0.16864037116E+01 -0.16485013686E+02  0.87887105254E+02  0.00000000000E+00 0.  1.
         13    1    4    4    0    0  0.20356194888E+03  0.83962189717E+02 -0.17062591782E+03  0.27856834021E+03  0.00000000000E+00 0. -1.
          1    1    1    2  501    0 -0.13668292157E+03 -0.17371279210E+03  0.19936065965E+02  0.22193648171E+03  0.00000000000E+00 0. -1.
<scales pt_clust_5="13000.00000" pt_clust_6="13000.00000" pt_clust_7="13000.00000" pt_clust_8="13000.00000" pt_clust_9="232.02584"></scales>
<clustering>
<clus scale="   92.107">  7  8 -1 -1</clus>
<clus scale="  103.883">  5  6 -1 -1</clus>
<clus scale="  206.445">  2  5  1 -1</clus>
<clus scale="  232.026">  1  9  2 -1</clus>
<clus scale="  232.026">  1  5  2 -1</clus>
</clustering>
</event>
<event>
 9    1  0.1464797E-005  0.1055773E+03  0.7546771E-02  0.1270124E+00
         21   -1    0    0  501  502  0.00000000000E+00  0.00000000000E+00  0.25762391747E+03  0.25762391747E+03  0.00000000000E+00 0.  1.
         -1   -1    0    0    0  501 -0.00000000000E+00 -0.00000000000E+00 -0.20214523845E+03  0.20214523845E+03  0.00000000000E+00 0.  1.
         23    2    1    2    0    0  0.10750559255E+02  0.34351357464E+02 -0.91755486353E+02  0.13538485869E+03  0.92813794248E+02 0.  0.
         23    2    1    2    0    0 -0.74825040995E+02 -0.54231230629E+02 -0.31975927352E+02  0.13302859205E+03  0.90190538520E+02 0.  0.
        -11    1    4    4    0    0 -0.37416003616E+02 -0.22952648761E+02  0.30738395102E+02  0.53587595068E+02  0.00000000000E+00 0. -1.
         11    1    4    4    0    0 -0.37409037379E+02 -0.31278581868E+02 -0.62714322454E+02  0.79440996986E+02  0.00000000000E+00 0.  1.
        -11    1    3    3    0    0 -0.39082033038E+02  0.10034714454E+02 -0.57373459347E+02  0.70141390334E+02  0.00000000000E+00 0. -1.
         11    1    3    3    0    0  0.49832592294E+02  0.24316643011E+02 -0.34382027006E+02  0.65243468356E+02  0.00000000000E+00 0.  1.
         -1    1    1    2    0  502  0.64074481740E+02  0.19879873165E+02  0.17921009272E+03  0.19135570517E+03  0.00000000000E+00 0.  1.
<scales pt_clust_5="13000.00000" pt_clust_6="13000.00000" pt_clust_7="13000.00000" pt_clust_8="13000.00000" pt_clust_9="67.08762"></scales>
<clustering>
<clus scale="   67.088">  1  9  2 -1</clus>
<clus scale="   90.191">  5  6 -1 -1</clus>
<clus scale="   92.814">  7  8 -1 -1</clus>
<clus scale="  103.279">  1  5  2 -1</clus>
<clus scale="   67.088">  1  5  2 -1</clus>
</clustering>
</event>
<event>
 9    1  0.1464797E-005  0.1870109E+03  0.7546771E-02  0.1162503E+00
          2   -1    0    0  502    0 -0.00000000000E+00  0.00000000000E+00  0.23168702312E+03  0.23168702312E+03  0.00000000000E+00 0. -1.
         21   -1    0    0  501  502  0.00000000000E+00 -0.00000000000E+00 -0.48148859960E+03  0.48148859960E+03  0.00000000000E+00 0. -1.
         23    2    1    2    0    0  0.20736400692E+03 -0.14130103631E+02  0.84432548456E+02  0.24489930545E+03  0.98220788916E+02 0.  0.
         23    2    1    2    0    0 -0.10308143594E+03  0.40042211595E+02 -0.27654540232E+02  0.14341121648E+03  0.87022079221E+02 0.  0.
        -13    1    3    3    0    0  0.47276802958E+02 -0.24093627262E+02 -0.16281833116E+02  0.55504027441E+02  0.00000000000E+00 0.  1.
         13    1    3    3    0    0  0.16008720396E+03  0.99635236316E+01  0.10071438157E+03  0.18939527801E+03  0.00000000000E+00 0. -1.
        -13    1    4    4    0    0 -0.31536688755E+02 -0.25607965257E+02 -0.21872550220E+02  0.46138260429E+02  0.00000000000E+00 0.  1.
         13    1    4    4    0    0 -0.71544747182E+02  0.65650176852E+02 -0.57819900119E+01  0.97272956049E+02  0.00000000000E+00 0. -1.
          2    1    1    2  501    0 -0.10428257099E+03 -0.25912107964E+02 -0.30657958470E+03  0.32486510078E+03  0.00000000000E+00 0. -1.
<scales pt_clust_5="13000.00000" pt_clust_6="13000.00000" pt_clust_7="13000.00000" pt_clust_8="13000.00000" pt_clust_9="107.45367"></scales>
<clustering>
<clus scale="   87.022">  7  8 -1 -1</clus>
<clus scale="   98.221">  5  6 -1 -1</clus>
<clus scale="  107.454">  2  9  1 -1</clus>
<clus scale="  181.380">  2  7  1 -1</clus>
<clus scale="  107.454">  2  5  1 -1</clus>
</clustering>
</event>
<event>
 9    1  0.1464797E-005  0.1506377E+03  0.7546771E-02  0.1215902E+00
          2   -1    0    0  502    0 -0.00000000000E+00  0.00000000000E+00  0.11348069323E+04  0.11348069323E+04  0.00000000000E+00 0. -1.
         21   -1    0    0  501  502  0.00000000000E+00 -0.00000000000E+00 -0.50946557588E+02  0.50946557588E+02  0.00000000000E+00 0. -1.
         23    2    1    2    0    0  0.25843917583E+02 -0.48140142287E+02  0.23883977568E+03  0.26147667483E+03  0.91324868795E+02 0.  0.
         23    2    1    2    0    0 -0.13804904620E+03  0.12292629635E+02  0.76254406906E+03  0.78048038585E+03  0.92019169417E+02 0.  0.
        -11    1    4    4    0    0 -0.12494489331E+03 -0.24128479010E+02  0.56077810897E+03  0.57503521402E+03  0.00000000000E+00 0. -1.
         11    1    4    4    0    0 -0.13104152895E+02  0.36421108646E+02  0.20176596009E+03  0.20544517183E+03  0.00000000000E+00 0.  1.
        -13    1    3    3    0    0 -0.21146833528E+02  0.13961942041E+01  0.11514719103E+02  0.24119010812E+02  0.00000000000E+00 0.  1.
         13    1    3    3    0    0  0.46990751111E+02 -0.49536336492E+02  0.22732505657E+03  0.23735766402E+03  0.00000000000E+00 0. -1.
          2    1    1    2  501    0  0.11220512862E+03  0.35847512652E+02  0.82476529947E+02  0.14379642918E+03  0.00000000000E+00 0. -1.
<scales pt_clust_5="13000.00000" pt_clust_6="13000.00000" pt_clust_7="13000.00000" pt_clust_8="13000.00000" pt_clust_9="119.26514"></scales>
<clustering>
<clus scale="   91.325">  7  8 -1 -1</clus>
<clus scale="   92.019">  5  6 -1 -1</clus>
<clus scale="  106.422">  1  7  2 -1</clus>
<clus scale="  119.265">  2  9  1 -1</clus>
<clus scale="  119.265">  2  5  1 -1</clus>
</clustering>
</event>
<event>
 9    1  0.1464797E-005  0.9418882E+02  0.7546771E-02  0.1295121E+00
         21   -1    0    0  501  502  0.00000000000E+00  0.00000000000E+00  0.15359777162E+03  0.15359777162E+03  0.00000000000E+00 0. -1.
          1   -1    0    0  502    0 -0.00000000000E+00 -0.00000000000E+00 -0.24598436026E+03  0.24598436026E+03  0.00000000000E+00 0. -1.
         23    2    1    2    0    0 -0.62072257106E+01 -0.89677932908E+01 -0.12064375812E+03  0.14975458475E+03  0.88048670132E+02 0.  0.
         23    2    1    2    0    0  0.45568321400E+02 -0.47158229310E+01 -0.82409527301E+02  0.13157504193E+03  0.91771185939E+02 0.  0.
        -13    1    3    3    0    0 -0.87469352567E+01  0.22702404894E+02  0.68099268363E+00  0.24338689681E+02  0.00000000000E+00 0.  1.
         13    1    3    3    0    0  0.25397095461E+01 -0.31670198185E+02 -0.12132475081E+03  0.12541589507E+03  0.00000000000E+00 0. -1.
        -13    1    4    4    0    0 -0.24041172198E+02  0.17230190089E+02 -0.24369745511E+02  0.38324168712E+02  0.00000000000E+00 0.  1.
         13    1    4    4    0    0  0.69609493597E+02 -0.21946013020E+02 -0.58039781790E+02  0.93250873222E+02  0.00000000000E+00 0. -1.
          1    1    1    2  501    0 -0.39361095689E+02  0.13683616222E+02  0.11066669678E+03  0.11825250519E+03  0.00000000000E+00 0. -1.
<scales pt_clust_5="13000.00000" pt_clust_6="13000.00000" pt_clust_7="13000.00000" pt_clust_8="13000.00000" pt_clust_9="41.67178"></scales>
<clustering>
<clus scale="   41.672">  1  9  2 -1</clus>
<clus scale="   88.049">  5  6 -1 -1</clus>
<clus scale="   90.566">  2  5  1 -1</clus>
<clus scale="   91.771">  7  8 -1 -1</clus>
<clus scale="   41.672">  1  5  2 -1</clus>
</clustering>
</event>
<event>
 9    1  0.1464797E-005  0.2567495E+03  0.7546771E-02  0.1109123E+00
         21   -1    0    0  501  502  0.00000000000E+00  0.00000000000E+00  0.16275866394E+03  0.16275866394E+03  0.00000000000E+00 0. -1.
          1   -1    0    0  502    0 -0.00000000000E+00 -0.00000000000E+00 -0.91679738405E+03  0.91679738405E+03  0.00000000000E+00 0. -1.
         23    2    1    2    0    0 -0.18330238312E+03 -0.15546946157E+03 -0.57813251628E+03  0.63261979781E+03  0.90554321098E+02 0.  0.
         23    2    1    2    0    0  0.15575695085E+03  0.18567163006E+03 -0.25164968932E+03  0.36086652604E+03  0.90348777148E+02 0.  0.
        -11    1    4    4    0    0  0.86474898372E+02  0.97620950546E+02 -0.71526024043E+02  0.14874047919E+03  0.00000000000E+00 0.  1.
         11    1    4    4    0    0  0.69282052482E+02  0.88050679510E+02 -0.18012366528E+03  0.21212604685E+03  0.00000000000E+00 0. -1.
        -11    1    3    3    0    0 -0.65455658976E+02 -0.48992706885E+01 -0.14621416553E+03  0.16027173284E+03  0.00000000000E+00 0.  1.
         11    1    3    3    0    0 -0.11784672414E+03 -0.15057019088E+03 -0.43191835074E+03  0.47234806497E+03  0.00000000000E+00 0. -1.
          1    1    1    2  501    0  0.27545432264E+02 -0.30202168490E+02  0.75743485488E+02  0.86069724143E+02  0.00000000000E+00 0. -1.
<scales pt_clust_5="13000.00000" pt_clust_6="13000.00000" pt_clust_7="13000.00000" pt_clust_8="13000.00000" pt_clust_9="40.87691"></scales>
<clustering>
<clus scale="   40.877">  1  9  2 -1</clus>
<clus scale="   90.349">  5  6 -1 -1</clus>
<clus scale="   90.554">  7  8 -1 -1</clus>
<clus scale="  256.677">  1  5  2 -1</clus>
<clus scale="   40.877">  1  5  2 -1</clus>
</clustering>
</event>
<event>
 9    1  0.1464797E-005  0.9254111E+02  0.7546771E-02  0.1296961E+00
         21   -1    0    0  501  502  0.00000000000E+00  0.00000000000E+00  0.35838256127E+03  0.35838256127E+03  0.00000000000E+00 0. -1.
         -3   -1    0    0    0  501 -0.00000000000E+00 -0.00000000000E+00 -0.43012481668E+02  0.43012481668E+02  0.00000000000E+00 0.  1.
         23    2    1    2    0    0  0.23847429048E+02  0.26641935038E+02  0.12218805101E+03  0.15672045591E+03  0.91394140489E+02 0.  0.
         23    2    1    2    0    0 -0.30650031182E+01  0.22744009679E+02  0.14393060974E+03  0.17189695982E+03  0.91136491900E+02 0.  0.
        -11    1    4    4    0    0  0.22190815965E+02 -0.44033109381E+01 -0.65470543699E+00  0.22632942796E+02  0.00000000000E+00 0.  1.
         11    1    4    4    0    0 -0.25255819083E+02  0.27147320617E+02  0.14458531517E+03  0.14926401702E+03  0.00000000000E+00 0. -1.
        -13    1    3    3    0    0  0.87260567396E+01 -0.22822809481E+02  0.95383269529E+02  0.98463154554E+02  0.00000000000E+00 0.  1.
         13    1    3    3    0    0  0.15121372309E+02  0.49464744519E+02  0.26804781482E+02  0.58257301354E+02  0.00000000000E+00 0. -1.
         -3    1    1    2    0  502 -0.20782425930E+02 -0.49385944716E+02  0.49251418858E+02  0.72777627212E+02  0.00000000000E+00 0.  1.
<scales pt_clust_5="13000.00000" pt_clust_6="13000.00000" pt_clust_7="13000.00000" pt_clust_8="13000.00000" pt_clust_9="53.58063"></scales>
<clustering>
<clus scale="   53.581">  1  9  2 -1</clus>
<clus scale="   91.136">  5  6 -1 -1</clus>
<clus scale="   91.394">  7  8 -1 -1</clus>
<clus scale="   92.287">  1  5  2 -1</clus>
<clus scale="   53.581">  1  5  2 -1</clus>
</clustering>
</event>
<event>
 9    1  0.1464797E-005  0.1084822E+03  0.7546771E-02  0.1266763E+00
         -2   -1    0    0    0  501 -0.00000000000E+00  0.00000000000E+00  0.16161024453E+03  0.16161024453E+03  0.00000000000E+00 0.  1.
         21   -1    0    0  501  502  0.00000000000E+00 -0.00000000000E+00 -0.30945822335E+03  0.30945822335E+03  0.00000000000E+00 0.  1.
         23    2    1    2    0    0  0.19357737683E+02  0.55341758193E+02  0.87898172403E+02  0.14050186395E+03  0.92613459353E+02 0.  0.
         23    2    1    2    0    0  0.46421899812E+02 -0.61725785690E+00 -0.40763138446E+02  0.11763443887E+03  0.10010421551E+03 0.  0.
        -11    1    3    3    0    0  0.38243481496E+02  0.69232573172E+02  0.43430516206E+02  0.90232603880E+02  0.00000000000E+00 0.  1.
         11    1    3    3    0    0 -0.18885743814E+02 -0.13890814980E+02  0.44467656197E+02  0.50269260069E+02  0.00000000000E+00 0. -1.
        -13    1    4    4    0    0  0.68901830886E+02  0.56893738760E+01 -0.56660576008E+02  0.89388210342E+02  0.00000000000E+00 0.  1.
         13    1    4    4    0    0 -0.22479931074E+02 -0.63066317329E+01  0.15897437562E+02  0.28246228526E+02  0.00000000000E+00 0. -1.
         -2    1    1    2    0  502 -0.65779637494E+02 -0.54724500336E+02 -0.19498301278E+03  0.21293216506E+03  0.00000000000E+00 0.  1.
<scales pt_clust_5="13000.00000" pt_clust_6="13000.00000" pt_clust_7="13000.00000" pt_clust_8="13000.00000" pt_clust_9="85.56712"></scales>
<clustering>
<clus scale="   85.567">  2  9  1 -1</clus>
<clus scale="   92.613">  5  6 -1 -1</clus>
<clus scale="  100.104">  7  8 -1 -1</clus>
<clus scale="  101.611">  1  5  2 -1</clus>
<clus scale="   85.567">  2  5  1 -1</clus>
</clustering>
</event>
<event>
 9    1  0.1464797E-005  0.9954649E+02  0.7546771E-02  0.1283904E+00
          1   -1    0    0  502    0 -0.00000000000E+00  0.00000000000E+00  0.32419894223E+03  0.32419894223E+03  0.00000000000E+00 0. -1.
         21   -1    0    0  501  502  0.00000000000E+00 -0.00000000000E+00 -0.99072862910E+02  0.99072862910E+02  0.00000000000E+00 0. -1.
         23    2    1    2    0    0  0.27858065778E+02 -0.11969545607E+02  0.13734960193E+03  0.16594923216E+03  0.88061868320E+02 0.  0.
         23    2    1    2    0    0  0.16821954861E+01  0.56256812942E+02  0.14355497545E+03  0.18021725585E+03  0.93287563724E+02 0.  0.
        -11    1    3    3    0    0  0.44919535567E+00  0.34490746024E+02  0.29607424648E+02  0.45457814862E+02  0.00000000000E+00 0.  1.
         11    1    3    3    0    0  0.27408870422E+02 -0.46460291630E+02  0.10774217728E+03  0.12049141729E+03  0.00000000000E+00 0. -1.
        -11    1    4    4    0    0  0.23091462647E+02  0.13161357434E+02  0.12634732013E+03  0.12911267282E+03  0.00000000000E+00 0. -1.
         11    1    4    4    0    0 -0.21409267161E+02  0.43095455508E+02  0.17207655320E+02  0.51104583037E+02  0.00000000000E+00 0.  1.
          1    1    1    2  501    0 -0.29540261264E+02 -0.44287267336E+02 -0.55778498064E+02  0.77105317131E+02  0.00000000000E+00 0. -1.
<scales pt_clust_5="13000.00000" pt_clust_6="13000.00000" pt_clust_7="13000.00000" pt_clust_8="13000.00000" pt_clust_9="53.23522"></scales>
<clustering>
<clus scale="   53.235">  2  9  1 -1</clus>
<clus scale="   88.062">  5  6 -1 -1</clus>
<clus scale="   93.288">  7  8 -1 -1</clus>
<clus scale="   94.667">  1  5  2 -1</clus>
<clus scale="   53.235">  2  5  1 -1</clus>
</clustering>
</event>
<event>
 9    1  0.1464797E-005  0.9251250E+02  0.7546771E-02  0.1297243E+00
         21   -1    0    0  501  502  0.00000000000E+00  0.00000000000E+00  0.37800905687E+03  0.37800905687E+03  0.00000000000E+00 0. -1.
          1   -1    0    0  502    0 -0.00000000000E+00 -0.00000000000E+00 -0.83529105483E+02  0.83529105483E+02  0.00000000000E+00 0. -1.
         23    2    1    2    0    0  0.55557963846E+01  0.10188288983E+02 -0.17716003380E+02  0.94267950441E+02  0.91858160219E+02 0.  0.
         23    2    1    2    0    0 -0.24189870535E+02  0.27183804653E+02  0.67840032513E+02  0.11937160594E+03  0.91231580176E+02 0.  0.
        -11    1    3    3    0    0 -0.41729062430E+02  0.14726312461E+02 -0.22384145614E+01  0.44307893537E+02  0.00000000000E+00 0.  1.
         11    1    3    3    0    0  0.47284858814E+02 -0.45380234784E+01 -0.15477588819E+02  0.49960056904E+02  0.00000000000E+00 0. -1.
        -13    1    4    4    0    0 -0.14467270267E+02 -0.33020005342E+02  0.34359982694E+02  0.49801918362E+02  0.00000000000E+00 0.  1.
         13    1    4    4    0    0 -0.97226002683E+01  0.60203809995E+02  0.33480049818E+02  0.69569687578E+02  0.00000000000E+00 0. -1.
          1    1    1    2  501    0  0.18634074150E+02 -0.37372093635E+02  0.24435592225E+03  0.24789860597E+03  0.00000000000E+00 0. -1.
<scales pt_clust_5="13000.00000" pt_clust_6="13000.00000" pt_clust_7="13000.00000" pt_clust_8="13000.00000" pt_clust_9="41.76005"></scales>
<clustering>
<clus scale="   41.760">  1  9  2 -1</clus>
<clus scale="   91.232">  7  8 -1 -1</clus>
<clus scale="   91.858">  5  6 -1 -1</clus>
<clus scale="   91.890">  1  7  2 -1</clus>
<clus scale="   41.760">  1  5  2 -1</clus>
</clustering>
</event>
<event>
 9    1  0.1464797E-005  0.1140472E+03  0.7546771E-02  0.1256323E+00
          2   -1    0    0  502    0 -0.00000000000E+00  0.00000000000E+00  0.42430520596E+03  0.42430520596E+03  0.00000000000E+00 0. -1.
         21   -1    0    0  501  502  0.00000000000E+00 -0.00000000000E+00 -0.88575530459E+02  0.88575530459E+02  0.00000000000E+00 0.  1.
         23    2    1    2    0    0  0.19619324030E+02  0.75510798594E+02  0.30917799197E+03  0.33033451779E+03  0.86273195972E+02 0.  0.
         23    2    1    2    0    0 -0.37167458614E+02 -0.26532992113E+00  0.27703412075E+02  0.10527304048E+03  0.94516896006E+02 0.  0.
        -13    1    4    4    0    0 -0.40916268246E+02  0.41381886470E+02  0.70036306809E+01  0.58614438304E+02  0.00000000000E+00 0.  1.
         13    1    4    4    0    0  0.37488096320E+01 -0.41647216391E+02  0.20699781395E+02  0.46658602171E+02  0.00000000000E+00 0. -1.
        -13    1    3    3    0    0 -0.33845252394E+02  0.33162321167E+02  0.14526198836E+03  0.15279491457E+03  0.00000000000E+00 0. -1.
         13    1    3    3    0    0  0.53464576423E+02  0.42348477427E+02  0.16391600361E+03  0.17753960322E+03  0.00000000000E+00 0.  1.
          2    1    1    2  501    0  0.17548134585E+02 -0.75245468673E+02 -0.11517285469E+01  0.77273178153E+02  0.00000000000E+00 0. -1.
<scales pt_clust_5="13000.00000" pt_clust_6="13000.00000" pt_clust_7="13000.00000" pt_clust_8="13000.00000" pt_clust_9="77.26459"></scales>
<clustering>
<clus scale="   77.265">  2  9  1 -1</clus>
<clus scale="   86.273">  7  8 -1 -1</clus>
<clus scale="   94.517">  5  6 -1 -1</clus>
<clus scale="  107.314">  1  7  2 -1</clus>
<clus scale="   77.265">  2  5  1 -1</clus>
</clustering>
</event>
<event>
 9    1  0.1464797E-005  0.1290448E+03  0.7546771E-02  0.1230769E+00
          2   -1    0    0  502    0 -0.00000000000E+00  0.00000000000E+00  0.79764900103E+03  0.79764900103E+03  0.00000000000E+00 0. -1.
         21   -1    0    0  501  502  0.00000000000E+00 -0.00000000000E+00 -0.45846794940E+02  0.45846794940E+02  0.00000000000E+00 0.  1.
         23    2    1    2    0    0 -0.79571367485E+02 -0.26242679948E+02  0.50776413934E+03  0.52167638374E+03  0.85449092300E+02 0.  0.
         23    2    1    2    0    0  0.97839166360E+02  0.41619420107E+02  0.25813409081E+03  0.29409118639E+03  0.92475610147E+02 0.  0.
        -13    1    3    3    0    0 -0.86770304625E+02 -0.13596445207E+01  0.45110972034E+03  0.45938101200E+03  0.00000000000E+00 0. -1.
         13    1    3    3    0    0  0.71989371399E+01 -0.24883035427E+02  0.56654419000E+02  0.62295371740E+02  0.00000000000E+00 0.  1.
        -13    1    4    4    0    0  0.26986977643E+02  0.48727156089E+02  0.17979407111E+03  0.18822470802E+03  0.00000000000E+00 0. -1.
         13    1    4    4    0    0  0.70852188716E+02 -0.71077359819E+01  0.78340019700E+02  0.10586647837E+03  0.00000000000E+00 0.  1.
          2    1    1    2  501    0 -0.18267798875E+02 -0.15376740159E+02 -0.14096024063E+02  0.27728225836E+02  0.00000000000E+00 0. -1.
<scales pt_clust_5="13000.00000" pt_clust_6="13000.00000" pt_clust_7="13000.00000" pt_clust_8="13000.00000" pt_clust_9="23.87795"></scales>
<clustering>
<clus scale="   23.878">  2  9  1 -1</clus>
<clus scale="   85.449">  5  6 -1 -1</clus>
<clus scale="   92.476">  7  8 -1 -1</clus>
<clus scale="  124.106">  1  5  2 -1</clus>
<clus scale="   23.878">  2  5  1 -1</clus>
</clustering>
</event>
<event>
 9    1  0.1464797E-005  0.1369684E+03  0.7546771E-02  0.1218726E+00
         21   -1    0    0  501  502  0.00000000000E+00  0.00000000000E+00  0.46710117500E+02  0.46710117500E+02  0.00000000000E+00 0.  1.
         -3   -1    0    0    0  501 -0.00000000000E+00 -0.00000000000E+00 -0.67163539519E+03  0.67163539519E+03  0.00000000000E+00 0.  1.
         23    2    1    2    0    0  0.42940422760E+02  0.11027375443E+03 -0.40251786345E+03  0.42922300155E+03  0.90595661277E+02 0.  0.
         23    2    1    2    0    0 -0.17923675778E+02 -0.83574279105E+02 -0.22187193277E+03  0.25253034870E+03  0.85079399281E+02 0.  0.
        -13    1    4    4    0    0 -0.45099228358E+02 -0.46011982656E+02 -0.17552112495E+03  0.18697247993E+03  0.00000000000E+00 0. -1.
         13    1    4    4    0    0  0.27175552579E+02 -0.37562296449E+02 -0.46350807822E+02  0.65557868775E+02  0.00000000000E+00 0.  1.
        -13    1    3    3    0    0  0.19713379341E+02 -0.11325473937E+02 -0.95864070492E+02  0.98523112498E+02  0.00000000000E+00 0. -1.
         13    1    3    3    0    0  0.23227043419E+02  0.12159922836E+03 -0.30665379295E+03  0.33069988905E+03  0.00000000000E+00 0.  1.
         -3    1    1    2    0  502 -0.25016746981E+02 -0.26699475322E+02 -0.53548147705E+00  0.36592162445E+02  0.00000000000E+00 0.  1.
<scales pt_clust_5="13000.00000" pt_clust_6="13000.00000" pt_clust_7="13000.00000" pt_clust_8="13000.00000" pt_clust_9="36.58824"></scales>
<clustering>
<clus scale="   36.588">  1  9  2 -1</clus>
<clus scale="   85.079">  5  6 -1 -1</clus>
<clus scale="   90.596">  7  8 -1 -1</clus>
<clus scale="  133.384">  1  5  2 -1</clus>
<clus scale="   36.588">  1  5  2 -1</clus>
</clustering>
</event>
<event>
 9    1  0.1464797E-005  0.9525987E+02  0.7546771E-02  0.1290823E+00
         -4   -1    0    0    0  501 -0.00000000000E+00  0.00000000000E+00  0.23377214693E+03  0.23377214693E+03  0.00000000000E+00 0. -1.
         21   -1    0    0  501  502  0.00000000000E+00 -0.00000000000E+00 -0.46659551316E+03  0.46659551316E+03  0.00000000000E+00 0. -1.
         23    2    1    2    0    0 -0.24279177062E+02  0.87936784555E+01  0.19215421806E+03  0.21378764427E+03  0.90083883713E+02 0.  0.
         23    2    1    2    0    0  0.83751255738E+02  0.49661765895E+01 -0.10869169964E+03  0.16445733332E+03  0.90517363879E+02 0.  0.
        -11    1    4    4    0    0  0.96729980761E+01  0.37599683367E+02 -0.54997392903E+02  0.67320251836E+02  0.00000000000E+00 0.  1.
         11    1    4    4    0    0  0.74078257662E+02 -0.32633506778E+02 -0.53694306738E+02  0.97137081482E+02  0.00000000000E+00 0. -1.
        -13    1    3    3    0    0  0.31986576951E+02  0.17947878768E+02  0.72673418451E+02  0.81404503602E+02  0.00000000000E+00 0. -1.
         13    1    3    3    0    0 -0.56265754013E+02 -0.91542003128E+01  0.11948079961E+03  0.13238314067E+03  0.00000000000E+00 0.  1.
         -4    1    1    2    0  502 -0.59472078676E+02 -0.13759855045E+02 -0.31628588465E+03  0.32212268250E+03  0.00000000000E+00 0. -1.
<scales pt_clust_5="13000.00000" pt_clust_6="13000.00000" pt_clust_7="13000.00000" pt_clust_8="13000.00000" pt_clust_9="61.04311"></scales>
<clustering>
<clus scale="   61.043">  2  9  1 -1</clus>
<clus scale="   90.084">  7  8 -1 -1</clus>
<clus scale="   90.517">  5  6 -1 -1</clus>
<clus scale="   94.848">  1  7  2 -1</clus>
<clus scale="   61.043">  2  5  1 -1</clus>
</clustering>
</event>
<event>
 9    1  0.1464797E-005  0.1331360E+03  0.7546771E-02  0.1225194E+00
          1   -1    0    0  502    0 -0.00000000000E+00  0.00000000000E+00  0.47966142422E+03  0.47966142422E+03  0.00000000000E+00 0. -1.
         21   -1    0    0  501  502  0.00000000000E+00 -0.00000000000E+00 -0.86866705713E+02  0.86866705713E+02  0.00000000000E+00 0. -1.
         23    2    1    2    0    0  0.63488261236E+02  0.62063708590E+02  0.26533719789E+03  0.29123803829E+03  0.80827613632E+02 0.  0.
         23    2    1    2    0    0 -0.71281168636E+02 -0.94345071074E+02  0.16697365180E+03  0.22367284265E+03  0.90373351728E+02 0.  0.
        -13    1    4    4    0    0 -0.58433364499E+02 -0.11864006964E+02  0.40298280231E+02  0.71966409786E+02  0.00000000000E+00 0.  1.
         13    1    4    4    0    0 -0.12847804137E+02 -0.82481064111E+02  0.12667537157E+03  0.15170643286E+03  0.00000000000E+00 0. -1.
        -13    1    3    3    0    0  0.70696641241E+02  0.21669534764E+02  0.20783634986E+03  0.22059812361E+03  0.00000000000E+00 0. -1.
         13    1    3    3    0    0 -0.72083800054E+01  0.40394173826E+02  0.57500848034E+02  0.70639914680E+02  0.00000000000E+00 0.  1.
          1    1    1    2  501    0  0.77929073999E+01  0.32281362484E+02 -0.39516131188E+02  0.51617248994E+02  0.00000000000E+00 0. -1.
<scales pt_clust_5="13000.00000" pt_clust_6="13000.00000" pt_clust_7="13000.00000" pt_clust_8="13000.00000" pt_clust_9="33.20867"></scales>
<clustering>
<clus scale="   33.209">  2  9  1 -1</clus>
<clus scale="   80.828">  7  8 -1 -1</clus>
<clus scale="   90.373">  5  6 -1 -1</clus>
<clus scale="  126.850">  1  7  2 -1</clus>
<clus scale="   33.209">  2  5  1 -1</clus>
</clustering>
</event>
<event>
 9    1  0.1464797E-005  0.2016279E+03  0.7546771E-02  0.1148658E+00
         21   -1    0    0  501  502  0.00000000000E+00  0.00000000000E+00  0.96848041821E+02  0.96848041821E+02  0.00000000000E+00 0. -1.
          1   -1    0    0  502    0 -0.00000000000E+00 -0.00000000000E+00 -0.94985320112E+03  0.94985320112E+03  0.00000000000E+00 0. -1.
         23    2    1    2    0    0  0.16802501211E+03 -0.66927261499E+01 -0.58503980958E+03  0.61585272136E+03  0.93411981780E+02 0.  0.
         23    2    1    2    0    0 -0.20250465549E+03  0.27377043119E+02 -0.30370114624E+03  0.37705508399E+03  0.90435126749E+02 0.  0.
        -11    1    4    4    0    0 -0.80739561771E+02  0.22536142151E+02 -0.20067384552E+03  0.21747815250E+03  0.00000000000E+00 0. -1.
         11    1    4    4    0    0 -0.12176509372E+03  0.48409009685E+01 -0.10302730072E+03  0.15957693149E+03  0.00000000000E+00 0.  1.
        -13    1    3    3    0    0  0.14899670904E+03 -0.36331721598E+02 -0.51657064394E+03  0.53885549406E+03  0.00000000000E+00 0.  1.
         13    1    3    3    0    0  0.19028303068E+02  0.29638995448E+02 -0.68469165640E+02  0.76997227302E+02  0.00000000000E+00 0. -1.
          1    1    1    2  501    0  0.34479643381E+02 -0.20684316969E+02  0.35735796513E+02  0.53793437597E+02  0.00000000000E+00 0. -1.
<scales pt_clust_5="13000.00000" pt_clust_6="13000.00000" pt_clust_7="13000.00000" pt_clust_8="13000.00000" pt_clust_9="40.20804"></scales>
<clustering>
<clus scale="   40.208">  1  9  2 -1</clus>
<clus scale="   90.435">  5  6 -1 -1</clus>
<clus scale="   93.412">  7  8 -1 -1</clus>
<clus scale="  200.266">  1  5  2 -1</clus>
<clus scale="   40.208">  1  5  2 -1</clus>
</clustering>
</event>
<event>
 9    1  0.1464797E-005  0.9816158E+02  0.7546771E-02  0.1285029E+00
         21   -1    0    0  501  502  0.00000000000E+00  0.00000000000E+00  0.58696208846E+03  0.58696208846E+03  0.00000000000E+00 0. -1.
         -2   -1    0    0    0  501 -0.00000000000E+00 -0.00000000000E+00 -0.35213534266E+02  0.35213534266E+02  0.00000000000E+00 0.  1.
         23    2    1    2    0    0  0.32714502021E+02  0.10026316548E+02  0.12536476573E+03  0.15847871404E+03  0.90710598342E+02 0.  0.
         23    2    1    2    0    0 -0.30110334614E+02  0.34378537236E+02  0.13963135328E+03  0.17351501433E+03  0.92314837950E+02 0.  0.
        -11    1    4    4    0    0 -0.27627590815E+01  0.54511823971E+02  0.12526846724E+03  0.13664318744E+03  0.00000000000E+00 0. -1.
         11    1    4    4    0    0 -0.27347575532E+02 -0.20133286735E+02  0.14362886036E+02  0.36871826881E+02  0.00000000000E+00 0.  1.
        -13    1    3    3    0    0 -0.22815195446E+02 -0.87694656523E+01  0.81981526729E+02  0.85547690769E+02  0.00000000000E+00 0.  1.
         13    1    3    3    0    0  0.55529697467E+02  0.18795782200E+02  0.43383238999E+02  0.72931023271E+02  0.00000000000E+00 0. -1.
         -2    1    1    2    0  502 -0.26041674075E+01 -0.44404853784E+02  0.28675243519E+03  0.29018189436E+03  0.00000000000E+00 0.  1.
<scales pt_clust_5="13000.00000" pt_clust_6="13000.00000" pt_clust_7="13000.00000" pt_clust_8="13000.00000" pt_clust_9="44.48115"></scales>
<clustering>
<clus scale="   44.481">  1  9  2 -1</clus>
<clus scale="   90.711">  7  8 -1 -1</clus>
<clus scale="   92.315">  5  6 -1 -1</clus>
<clus scale="   96.654">  2  7  1 -1</clus>
<clus scale="   44.481">  1  5  2 -1</clus>
</clustering>
</event>
<event>
 9    1  0.1464797E-005  0.1610645E+03  0.7546771E-02  0.1204122E+00
         -3   -1    0    0    0  501 -0.00000000000E+00  0.00000000000E+00  0.13120087555E+03  0.13120087555E+03  0.00000000000E+00 0.  1.
         21   -1    0    0  501  502  0.00000000000E+00 -0.00000000000E+00 -0.58107016344E+03  0.58107016344E+03  0.00000000000E+00 0.  1.
         23    2    1    2    0    0  0.40671128019E+02 -0.48713460199E+02 -0.43255152779E+02  0.12002949101E+03  0.92243854054E+02 0.  0.
         23    2    1    2    0    0 -0.14301793696E+03  0.12018111710E+03 -0.49951460884E+02  0.21436490347E+03  0.92517739900E+02 0.  0.
        -11    1    3    3    0    0 -0.77607664477E+01 -0.55357047595E+02 -0.17902943568E+01  0.55927071872E+02  0.00000000000E+00 0.  1.
         11    1    3    3    0    0  0.48431894466E+02  0.66435873956E+01 -0.41464858422E+02  0.64102419136E+02  0.00000000000E+00 0. -1.
        -11    1    4    4    0    0 -0.52134942959E+02  0.49970096722E+02 -0.66699934110E+02  0.98305361268E+02  0.00000000000E+00 0.  1.
         11    1    4    4    0    0 -0.90882994001E+02  0.70211020375E+02  0.16748473226E+02  0.11605954220E+03  0.00000000000E+00 0. -1.
         -3    1    1    2    0  502  0.10234680894E+03 -0.71467656898E+02 -0.35666267422E+03  0.37787664451E+03  0.00000000000E+00 0.  1.
<scales pt_clust_5="13000.00000" pt_clust_6="13000.00000" pt_clust_7="13000.00000" pt_clust_8="13000.00000" pt_clust_9="131.84173"></scales>
<clustering>
<clus scale="   92.244">  5  6 -1 -1</clus>
<clus scale="   92.518">  7  8 -1 -1</clus>
<clus scale="  111.965">  1  5  2 -1</clus>
<clus scale="  131.842">  2  9  1 -1</clus>
<clus scale="  131.842">  2  5  1 -1</clus>
</clustering>
</event>
<event>
 9    1  0.1464797E-005  0.1466786E+03  0.7546771E-02  0.1204687E+00
         -1   -1    0    0    0  501 -0.00000000000E+00  0.00000000000E+00  0.27587655461E+03  0.27587655461E+03  0.00000000000E+00 0.  1.
         21   -1    0    0  501  502  0.00000000000E+00 -0.00000000000E+00 -0.30957891398E+03  0.30957891398E+03  0.00000000000E+00 0.  1.
         23    2    1    2    0    0  0.14107367298E+03  0.46498763869E+02  0.16092183213E+03  0.23714463120E+03  0.90982546675E+02 0.  0.
         23    2    1    2    0    0 -0.56556231431E+02 -0.47915726046E+02  0.18454071471E+02  0.11907830946E+03  0.91348601051E+02 0.  0.
        -13    1    3    3    0    0  0.13453420332E+03  0.67394973607E+02  0.15077140931E+03  0.21301068563E+03  0.00000000000E+00 0.  1.
         13    1    3    3    0    0  0.65394696619E+01 -0.20896209738E+02  0.10150422822E+02  0.24133945561E+02  0.00000000000E+00 0. -1.
        -13    1    4    4    0    0 -0.12609735777E+02  0.24451011409E+02  0.20626907657E+02  0.34384978039E+02  0.00000000000E+00 0. -1.
         13    1    4    4    0    0 -0.43946495654E+02 -0.72366737455E+02 -0.21728361852E+01  0.84693331421E+02  0.00000000000E+00 0.  1.
         -1    1    1    2    0  502 -0.84517441548E+02  0.14169621773E+01 -0.21307826298E+03  0.22923252793E+03  0.00000000000E+00 0.  1.
<scales pt_clust_5="13000.00000" pt_clust_6="13000.00000" pt_clust_7="13000.00000" pt_clust_8="13000.00000" pt_clust_9="84.52932"></scales>
<clustering>
<clus scale="   84.529">  2  9  1 -1</clus>
<clus scale="   90.983">  5  6 -1 -1</clus>
<clus scale="   91.349">  7  8 -1 -1</clus>
<clus scale="  146.451">  1  5  2 -1</clus>
<clus scale="   84.529">  2  5  1 -1</clus>
</clustering>
</event>
<event>
 9    1  0.1464797E-005  0.1393877E+03  0.7546771E-02  0.1214521E+00
          2   -1    0    0  502    0 -0.00000000000E+00  0.00000000000E+00  0.23255121202E+03  0.23255121202E+03  0.00000000000E+00 0. -1.
         21   -1    0    0  501  502  0.00000000000E+00 -0.00000000000E+00 -0.14497410996E+03  0.14497410996E+03  0.00000000000E+00 0.  1.
         23    2    1    2    0    0 -0.39074623729E+02  0.97499116531E+02  0.98478124104E+02  0.17090918768E+03  0.92082058859E+02 0.  0.
         23    2    1    2    0    0  0.80715104213E+02 -0.75341141260E+02  0.28030232353E+02  0.14545611424E+03  0.90446512541E+02 0.  0.
        -11    1    3    3    0    0 -0.65001990498E+02  0.40913737196E+02  0.62454448550E+02  0.98993690727E+02  0.00000000000E+00 0. -1.
         11    1    3    3    0    0  0.25927366769E+02  0.56585379336E+02  0.36023675555E+02  0.71915496957E+02  0.00000000000E+00 0.  1.
        -13    1    4    4    0    0  0.18463303994E+02  0.12237879740E+02  0.30839300138E+02  0.37970010902E+02  0.00000000000E+00 0. -1.
         13    1    4    4    0    0  0.62251800219E+02 -0.87579021000E+02 -0.28090677849E+01  0.10748610334E+03  0.00000000000E+00 0.  1.
          2    1    1    2  501    0 -0.41640480484E+02 -0.22157975271E+02 -0.38931254406E+02  0.61160020051E+02  0.00000000000E+00 0. -1.
<scales pt_clust_5="13000.00000" pt_clust_6="13000.00000" pt_clust_7="13000.00000" pt_clust_8="13000.00000" pt_clust_9="47.16890"></scales>
<clustering>
<clus scale="   47.169">  2  9  1 -1</clus>
<clus scale="   90.447">  7  8 -1 -1</clus>
<clus scale="   92.082">  5  6 -1 -1</clus>
<clus scale="  138.313">  2  7  1 -1</clus>
<clus scale="   47.169">  2  5  1 -1</clus>
</clustering>
</event>
<event>
 9    1  0.1464797E-005  0.2500507E+03  0.7546771E-02  0.1113683E+00
          2   -1    0    0  502    0 -0.00000000000E+00  0.00000000000E+00  0.12298855085E+04  0.12298855085E+04  0.00000000000E+00 0. -1.
         21   -1    0    0  501  502  0.00000000000E+00 -0.00000000000E+00 -0.13830122680E+03  0.13830122680E+03  0.00000000000E+00 0. -1.
         23    2    1    2    0    0 -0.21908663614E+03  0.97036080729E+02  0.79921036725E+03  0.83933071461E+03  0.91235312659E+02 0.  0.
         23    2    1    2    0    0  0.19704228186E+03 -0.10101368810E+03  0.37485902879E+03  0.44338339941E+03  0.83905431180E+02 0.  0.
        -11    1    3    3    0    0 -0.93129552771E+02  0.40522710437E+01  0.39522607514E+03  0.40607041874E+03  0.00000000000E+00 0. -1.
         11    1    3    3    0    0 -0.12595708337E+03  0.92983809685E+02  0.40398429210E+03  0.43326029588E+03  0.00000000000E+00 0.  1.
        -11    1    4    4    0    0  0.14599262913E+03 -0.11251057684E+03  0.29829301852E+03  0.35064398264E+03  0.00000000000E+00 0.  1.
         11    1    4    4    0    0  0.51049652727E+02  0.11496888742E+02  0.76566010268E+02  0.92739416769E+02  0.00000000000E+00 0. -1.
          2    1    1    2  501    0  0.22044354281E+02  0.39776073704E+01 -0.82485114288E+02  0.85472621319E+02  0.00000000000E+00 0. -1.
<scales pt_clust_5="13000.00000" pt_clust_6="13000.00000" pt_clust_7="13000.00000" pt_clust_8="13000.00000" pt_clust_9="22.40033"></scales>
<clustering>
<clus scale="   22.400">  2  9  1 -1</clus>
<clus scale="   83.905">  7  8 -1 -1</clus>
<clus scale="   91.235">  5  6 -1 -1</clus>
<clus scale="  247.470">  2  7  1 -1</clus>
<clus scale="   22.400">  2  5  1 -1</clus>
</clustering>
</event>
<event>
 9    1  0.1464797E-005  0.1124977E+03  0.7546771E-02  0.1256519E+00
         21   -1    0    0  501  502  0.00000000000E+00  0.00000000000E+00  0.28472173844E+02  0.28472173844E+02  0.00000000000E+00 0.  1.
          2   -1    0    0  502    0 -0.00000000000E+00 -0.00000000000E+00 -0.13991345154E+04  0.13991345154E+04  0.00000000000E+00 0. -1.
         23    2    1    2    0    0 -0.82015621388E+02  0.28852536678E+02 -0.47135025956E+03  0.48826843195E+03  0.93144851871E+02 0.  0.
         23    2    1    2    0    0  0.24897947215E+02  0.68721062679E+02 -0.20098341811E+03  0.23191620590E+03  0.89712317832E+02 0.  0.
        -13    1    3    3    0    0 -0.89867523331E+01 -0.30859771628E+02 -0.95636156308E+02  0.10089282242E+03  0.00000000000E+00 0. -1.
         13    1    3    3    0    0 -0.73028869055E+02  0.59712308307E+02 -0.37571410325E+03  0.38737560953E+03  0.00000000000E+00 0.  1.
        -13    1    4    4    0    0  0.31840039192E+02  0.14127077742E+02 -0.14937078624E+02  0.37900906837E+02  0.00000000000E+00 0.  1.
         13    1    4    4    0    0 -0.69420919777E+01  0.54593984937E+02 -0.18604633949E+03  0.19401529906E+03  0.00000000000E+00 0. -1.
          2    1    1    2  501    0  0.57117674173E+02 -0.97573599357E+02 -0.69832866385E+03  0.70742205136E+03  0.00000000000E+00 0. -1.
<scales pt_clust_5="13000.00000" pt_clust_6="13000.00000" pt_clust_7="13000.00000" pt_clust_8="13000.00000" pt_clust_9="113.06215"></scales>
<clustering>
<clus scale="   89.712">  7  8 -1 -1</clus>
<clus scale="   93.145">  5  6 -1 -1</clus>
<clus scale="  113.062">  1  9  2 -1</clus>
<clus scale="  113.062">  1  7  2 -1</clus>
<clus scale="  112.498">  1  5  2 -1</clus>
</clustering>
</event>
<event>
 9    1  0.1464797E-005  0.1049784E+03  0.7546771E-02  0.1272218E+00
         21   -1    0    0  501  502  0.00000000000E+00  0.00000000000E+00  0.71022253816E+02  0.71022253816E+02  0.00000000000E+00 0.  1.
         -3   -1    0    0    0  501 -0.00000000000E+00 -0.00000000000E+00 -0.68352441709E+03  0.68352441709E+03  0.00000000000E+00 0.  1.
         23    2    1    2    0    0 -0.34233757074E+02  0.30726946182E+02 -0.45185747380E+03  0.46325799257E+03  0.91195919341E+02 0.  0.
         23    2    1    2    0    0  0.45197560616E+02 -0.48167111238E+02 -0.21071376204E+03  0.23714741522E+03  0.86462228419E+02 0.  0.
        -13    1    4    4    0    0 -0.22697648446E+01 -0.59794627372E+02 -0.11098750975E+03  0.12609035100E+03  0.00000000000E+00 0.  1.
         13    1    4    4    0    0  0.47467325461E+02  0.11627516134E+02 -0.99726252286E+02  0.11105706422E+03  0.00000000000E+00 0. -1.
        -13    1    3    3    0    0 -0.98275697673E+01 -0.32036844479E+02 -0.18664663837E+03  0.18963097887E+03  0.00000000000E+00 0.  1.
         13    1    3    3    0    0 -0.24406187307E+02  0.62763790661E+02 -0.26521083543E+03  0.27362701370E+03  0.00000000000E+00 0. -1.
         -3    1    1    2    0  502 -0.10963803542E+02  0.17440165056E+02  0.50069072560E+02  0.54141263121E+02  0.00000000000E+00 0.  1.
<scales pt_clust_5="13000.00000" pt_clust_6="13000.00000" pt_clust_7="13000.00000" pt_clust_8="13000.00000" pt_clust_9="20.60011"></scales>
<clustering>
<clus scale="   20.600">  1  9  2 -1</clus>
<clus scale="   86.462">  5  6 -1 -1</clus>
<clus scale="   91.196">  7  8 -1 -1</clus>
<clus scale="  100.893">  1  5  2 -1</clus>
<clus scale="   20.600">  1  5  2 -1</clus>
</clustering>
</event>
<event>
 9    1  0.1464797E-005  0.1069097E+03  0.7546771E-02  0.1267616E+00
         -3   -1    0    0    0  501 -0.00000000000E+00  0.00000000000E+00  0.44211974250E+03  0.44211974250E+03  0.00000000000E+00 0.  1.
         21   -1    0    0  501  502  0.00000000000E+00 -0.00000000000E+00 -0.50771433791E+02  0.50771433791E+02  0.00000000000E+00 0. -1.
         23    2    1    2    0    0  0.22077446226E+02 -0.46566302560E+02  0.28498080226E+03  0.30354089768E+03  0.90924060317E+02 0.  0.
         23    2    1    2    0    0 -0.15181022717E+02  0.66630804466E+02  0.12030704065E+03  0.16396415036E+03  0.87979151056E+02 0.  0.
        -11    1    4    4    0    0 -0.36667975086E+02  0.55824334309E+02  0.35147663155E+02  0.75473537900E+02  0.00000000000E+00 0. -1.
         11    1    4    4    0    0  0.21486952368E+02  0.10806470157E+02  0.85159377490E+02  0.88490612462E+02  0.00000000000E+00 0.  1.
        -13    1    3    3    0    0 -0.18727862142E+02 -0.31625282615E+02  0.38379375146E+02  0.53140076754E+02  0.00000000000E+00 0. -1.
         13    1    3    3    0    0  0.40805308368E+02 -0.14941019945E+02  0.24660142711E+03  0.25040082093E+03  0.00000000000E+00 0.  1.
         -3    1    1    2    0  502 -0.68964235092E+01 -0.20064501906E+02 -0.13939534192E+02  0.25386128248E+02  0.00000000000E+00 0.  1.
<scales pt_clust_5="13000.00000" pt_clust_6="13000.00000" pt_clust_7="13000.00000" pt_clust_8="13000.00000" pt_clust_9="21.21662"></scales>
<clustering>
<clus scale="   21.217">  2  9  1 -1</clus>
<clus scale="   87.979">  5  6 -1 -1</clus>
<clus scale="   90.924">  7  8 -1 -1</clus>
<clus scale="  104.417">  2  5  1 -1</clus>
<clus scale="   21.217">  2  5  1 -1</clus>
</clustering>
</event>
<event>
 9    1  0.1464797E-005  0.3152489E+03  0.7546771E-02  0.1104341E+00
         21   -1    0    0  501  502  0.00000000000E+00  0.00000000000E+00  0.70431365722E+03  0.70431365722E+03  0.00000000000E+00 0. -1.
          2   -1    0    0  502    0 -0.00000000000E+00 -0.00000000000E+00 -0.71102009775E+03  0.71102009775E+03  0.00000000000E+00 0. -1.
         23    2    1    2    0    0  0.56686708067E+02 -0.11333082334E+03 -0.99826193282E+02  0.18582803862E+03  0.92247128323E+02 0.  0.
         23    2    1    2    0    0  0.24030376918E+03  0.17112948734E+03 -0.48578095426E+03  0.57630585588E+03  0.95467801290E+02 0.  0.
        -11    1    3    3    0    0  0.75191095320E+02 -0.64598447069E+02 -0.41121960460E+02  0.10732043520E+03  0.00000000000E+00 0.  1.
         11    1    3    3    0    0 -0.18504387253E+02 -0.48732376269E+02 -0.58704232822E+02  0.78507603426E+02  0.00000000000E+00 0. -1.
        -13    1    4    4    0    0  0.18448471432E+03  0.14445361133E+03 -0.44280858692E+03  0.50097994001E+03  0.00000000000E+00 0. -1.
         13    1    4    4    0    0  0.55819054865E+02  0.26675876014E+02 -0.42972367334E+02  0.75325915869E+02  0.00000000000E+00 0.  1.
          2    1    1    2  501    0 -0.29699047725E+03 -0.57798664001E+02  0.57890070701E+03  0.65319986047E+03  0.00000000000E+00 0. -1.
<scales pt_clust_5="13000.00000" pt_clust_6="13000.00000" pt_clust_7="13000.00000" pt_clust_8="13000.00000" pt_clust_9="300.44593"></scales>
<clustering>
<clus scale="   92.247">  5  6 -1 -1</clus>
<clus scale="   95.468">  7  8 -1 -1</clus>
<clus scale="  156.738">  2  5  1 -1</clus>
<clus scale="  300.446">  1  9  2 -1</clus>
<clus scale="  300.446">  1  5  2 -1</clus>
</clustering>
</event>
<event>
 9    1  0.1464797E-005  0.1694862E+03  0.7546771E-02  0.1193107E+00
         21   -1    0    0  501  502  0.00000000000E+00  0.00000000000E+00  0.27495515819E+03  0.27495515819E+03  0.00000000000E+00 0.  1.
         -1   -1    0    0    0  501 -0.00000000000E+00 -0.00000000000E+00 -0.54079797080E+03  0.54079797080E+03  0.00000000000E+00 0.  1.
         23    2    1    2    0    0  0.75458614638E+02 -0.18231952004E+02 -0.40215485915E+03  0.42029083719E+03  0.94283882451E+02 0.  0.
         23    2    1    2    0    0  0.64540992607E+02  0.76377833611E+02 -0.56562338621E+02  0.15014339316E+03  0.96667611764E+02 0.  0.
        -11    1    3    3    0    0  0.79268755253E+02  0.19546545330E+02 -0.23186032666E+03  0.24581459288E+03  0.00000000000E+00 0.  1.
         11    1    3    3    0    0 -0.38101406142E+01 -0.37778497334E+02 -0.17029453249E+03  0.17447624431E+03  0.00000000000E+00 0. -1.
        -11    1    4    4    0    0 -0.16311125612E+02  0.50742038656E+02 -0.30508313074E+02  0.61413064346E+02  0.00000000000E+00 0. -1.
         11    1    4    4    0    0  0.80852118219E+02  0.25635794955E+02 -0.26054025547E+02  0.88730328809E+02  0.00000000000E+00 0.  1.
         -1    1    1    2    0  502 -0.13999960725E+03 -0.58145881607E+02  0.19287438517E+03  0.24531889864E+03  0.00000000000E+00 0.  1.
<scales pt_clust_5="13000.00000" pt_clust_6="13000.00000" pt_clust_7="13000.00000" pt_clust_8="13000.00000" pt_clust_9="139.21546"></scales>
<clustering>
<clus scale="   94.284">  5  6 -1 -1</clus>
<clus scale="   96.668">  7  8 -1 -1</clus>
<clus scale="  122.130">  2  5  1 -1</clus>
<clus scale="  139.215">  1  9  2 -1</clus>
<clus scale="  139.215">  1  5  2 -1</clus>
</clustering>
</event>
<event>
 9    1  0.1464797E-005  0.1441553E+03  0.7546771E-02  0.1207890E+00
         21   -1    0    0  501  502  0.00000000000E+00  0.00000000000E+00  0.25900360823E+03  0.25900360823E+03  0.00000000000E+00 0.  1.
          3   -1    0    0  502    0 -0.00000000000E+00 -0.00000000000E+00 -0.10803407445E+03  0.10803407445E+03  0.00000000000E+00 0. -1.
         23    2    1    2    0    0 -0.92137236780E+02 -0.82966870685E+02  0.36223890530E+02  0.15853199109E+03  0.91910009903E+02 0.  0.
         23    2    1    2    0    0  0.69522721012E+02  0.67827367019E+02  0.58647572576E+02  0.14615495441E+03  0.92129107648E+02 0.  0.
        -11    1    3    3    0    0 -0.66492106890E+02 -0.81598688906E+02  0.61986730068E+02  0.12215523327E+03  0.00000000000E+00 0.  1.
         11    1    3    3    0    0 -0.25645129891E+02 -0.13681817792E+01 -0.25762839539E+02  0.36376757821E+02  0.00000000000E+00 0. -1.
        -11    1    4    4    0    0 -0.16953062936E+02  0.39262656581E+02  0.17203270341E+02  0.46096800921E+02  0.00000000000E+00 0.  1.
         11    1    4    4    0    0  0.86475783949E+02  0.28564710438E+02  0.41444302234E+02  0.10005815349E+03  0.00000000000E+00 0. -1.
          3    1    1    2  501    0  0.22614515768E+02  0.15139503666E+02  0.56098070676E+02  0.62350737190E+02  0.00000000000E+00 0. -1.
<scales pt_clust_5="13000.00000" pt_clust_6="13000.00000" pt_clust_7="13000.00000" pt_clust_8="13000.00000" pt_clust_9="27.21435"></scales>
<clustering>
<clus scale="   27.214">  1  9  2 -1</clus>
<clus scale="   91.910">  5  6 -1 -1</clus>
<clus scale="   92.129">  7  8 -1 -1</clus>
<clus scale="  144.015">  2  5  1 -1</clus>
<clus scale="   27.214">  1  5  2 -1</clus>
</clustering>
</event>
<event>
 9    1  0.1464797E-005  0.9721522E+02  0.7546771E-02  0.1289668E+00
          1   -1    0    0  502    0 -0.00000000000E+00  0.00000000000E+00  0.34173851460E+03  0.34173851460E+03  0.00000000000E+00 0. -1.
         21   -1    0    0  501  502  0.00000000000E+00 -0.00000000000E+00 -0.39799078419E+02  0.39799078419E+02  0.00000000000E+00 0.  1.
         23    2    1    2    0    0  0.66162318280E+01 -0.57788190485E+01  0.22029875426E+03  0.24064265666E+03  0.96437429457E+02 0.  0.
         23    2    1    2    0    0  0.73016860758E+00  0.25241618170E+02  0.63481926080E+02  0.11328134256E+03  0.90360584323E+02 0.  0.
        -11    1    3    3    0    0  0.33354210949E+02 -0.38429936791E+02  0.86623631822E+02  0.10046400858E+03  0.00000000000E+00 0. -1.
         11    1    3    3    0    0 -0.26737979121E+02  0.32651117743E+02  0.13367512244E+03  0.14017864808E+03  0.00000000000E+00 0.  1.
        -13    1    4    4    0    0  0.31324736059E+02  0.43112830620E+02  0.19371676230E+02  0.56702884346E+02  0.00000000000E+00 0.  1.
         13    1    4    4    0    0 -0.30594567452E+02 -0.17871212449E+02  0.44110249851E+02  0.56578458214E+02  0.00000000000E+00 0. -1.
          1    1    1    2  501    0 -0.73464004356E+01 -0.19462799122E+02  0.18158755835E+02  0.27613593799E+02  0.00000000000E+00 0. -1.
<scales pt_clust_5="13000.00000" pt_clust_6="13000.00000" pt_clust_7="13000.00000" pt_clust_8="13000.00000" pt_clust_9="20.80313"></scales>
<clustering>
<clus scale="   20.803">  2  9  1 -1</clus>
<clus scale="   90.361">  7  8 -1 -1</clus>
<clus scale="   91.190">  2  7  1 -1</clus>
<clus scale="   96.437">  5  6 -1 -1</clus>
<clus scale="   20.803">  2  5  1 -1</clus>
</clustering>
</event>
<event>
 9    1  0.1464797E-005  0.1511507E+03  0.7546771E-02  0.1206298E+00
         21   -1    0    0  501  502  0.00000000000E+00  0.00000000000E+00  0.39484163307E+02  0.39484163307E+02  0.00000000000E+00 0.  1.
         -1   -1    0    0    0  501 -0.00000000000E+00 -0.00000000000E+00 -0.10588855409E+04  0.10588855409E+04  0.00000000000E+00 0.  1.
         23    2    1    2    0    0  0.59553765788E+02  0.99621256484E+02 -0.70482076514E+03  0.72448699106E+03  0.12098778240E+03 0.  0.
         23    2    1    2    0    0 -0.30712061968E+02 -0.56403893508E+02 -0.29933763497E+03  0.31973538906E+03  0.92212089004E+02 0.  0.
        -11    1    3    3    0    0  0.21577897431E+02  0.10700723385E+03 -0.63802836110E+03  0.64729926875E+03  0.00000000000E+00 0.  1.
         11    1    3    3    0    0  0.37975868357E+02 -0.73859773705E+01 -0.66792404041E+02  0.77187722318E+02  0.00000000000E+00 0. -1.
        -13    1    4    4    0    0 -0.45907781787E+02 -0.87577812748E+00 -0.19734980754E+03  0.20262092180E+03  0.00000000000E+00 0. -1.
         13    1    4    4    0    0  0.15195719819E+02 -0.55528115380E+02 -0.10198782743E+03  0.11711446726E+03  0.00000000000E+00 0.  1.
         -1    1    1    2    0  502 -0.28841703819E+02 -0.43217362976E+02 -0.15242977483E+02  0.54147324074E+02  0.00000000000E+00 0.  1.
<scales pt_clust_5="13000.00000" pt_clust_6="13000.00000" pt_clust_7="13000.00000" pt_clust_8="13000.00000" pt_clust_9="51.95752"></scales>
<clustering>
<clus scale="   51.958">  1  9  2 -1</clus>
<clus scale="   92.212">  7  8 -1 -1</clus>
<clus scale="  120.988">  5  6 -1 -1</clus>
<clus scale="  129.273">  1  7  2 -1</clus>
<clus scale="   51.958">  1  5  2 -1</clus>
</clustering>
</event>
<event>
 9    1  0.1464797E-005  0.1133769E+03  0.7546771E-02  0.1254521E+00
         21   -1    0    0  501  502  0.00000000000E+00  0.00000000000E+00  0.83007020321E+02  0.83007020321E+02  0.00000000000E+00 0. -1.
          1   -1    0    0  502    0 -0.00000000000E+00 -0.00000000000E+00 -0.25651567188E+03  0.25651567188E+03  0.00000000000E+00 0. -1.
         23    2    1    2    0    0 -0.33428152147E+02  0.68939095087E+02 -0.15271416621E+03  0.19407144047E+03  0.92043833343E+02 0.  0.
         23    2    1    2    0    0 -0.34317644526E+00 -0.46401257206E+02 -0.95653385671E+01  0.10332583768E+03  0.91823409816E+02 0.  0.
        -13    1    4    4    0    0  0.37964745162E+02 -0.28334669846E+02  0.20260609073E+02  0.51523467182E+02  0.00000000000E+00 0.  1.
         13    1    4    4    0    0 -0.38307921607E+02 -0.18066587361E+02 -0.29825947640E+02  0.51802370499E+02  0.00000000000E+00 0. -1.
        -13    1    3    3    0    0 -0.24006462696E+02 -0.18901245237E+02 -0.49942666602E+02  0.58547734969E+02  0.00000000000E+00 0.  1.
         13    1    3    3    0    0 -0.94216894513E+01  0.87840340324E+02 -0.10277149961E+03  0.13552370550E+03  0.00000000000E+00 0. -1.
          1    1    1    2  501    0  0.33771328592E+02 -0.22537837881E+02 -0.11229146776E+02  0.42125414046E+02  0.00000000000E+00 0. -1.
<scales pt_clust_5="13000.00000" pt_clust_6="13000.00000" pt_clust_7="13000.00000" pt_clust_8="13000.00000" pt_clust_9="40.60119"></scales>
<clustering>
<clus scale="   40.601">  1  9  2 -1</clus>
<clus scale="   91.823">  5  6 -1 -1</clus>
<clus scale="   92.044">  7  8 -1 -1</clus>
<clus scale="  113.198">  1  5  2 -1</clus>
<clus scale="   40.601">  1  5  2 -1</clus>
</clustering>
</event>
<event>
 9    1  0.1464797E-005  0.1202754E+03  0.7546771E-02  0.1242988E+00
         21   -1    0    0  501  502  0.00000000000E+00  0.00000000000E+00  0.95784246074E+02  0.95784246074E+02  0.00000000000E+00 0. -1.
          3   -1    0    0  502    0 -0.00000000000E+00 -0.00000000000E+00 -0.30782435681E+03  0.30782435681E+03  0.00000000000E+00 0. -1.
         23    2    1    2    0    0  0.90147005526E+02 -0.80721669929E+01 -0.21489244238E+03  0.25007873427E+03  0.90382349253E+02 0.  0.
         23    2    1    2    0    0 -0.37939012434E+02  0.14439936603E+02  0.94165850679E+01  0.10052692101E+03  0.91482836314E+02 0.  0.
        -11    1    3    3    0    0  0.35419255314E+02 -0.21054815026E+02 -0.17391469271E+02  0.44724625053E+02  0.00000000000E+00 0.  1.
         11    1    3    3    0    0  0.54727750212E+02  0.12982648033E+02 -0.19750097310E+03  0.20535410921E+03  0.00000000000E+00 0. -1.
        -13    1    4    4    0    0 -0.66556032534E+02  0.16506147189E+02 -0.43368993709E+01  0.68709293824E+02  0.00000000000E+00 0.  1.
         13    1    4    4    0    0  0.28617020100E+02 -0.20662105859E+01  0.13753484439E+02  0.31817627187E+02  0.00000000000E+00 0. -1.
          3    1    1    2  501    0 -0.52207993092E+02 -0.63677696105E+01 -0.65642534328E+01  0.53002947613E+02  0.00000000000E+00 0. -1.
<scales pt_clust_5="13000.00000" pt_clust_6="13000.00000" pt_clust_7="13000.00000" pt_clust_8="13000.00000" pt_clust_9="52.59490"></scales>
<clustering>
<clus scale="   52.595">  1  9  2 -1</clus>
<clus scale="   90.382">  5  6 -1 -1</clus>
<clus scale="   91.483">  7  8 -1 -1</clus>
<clus scale="  119.441">  2  5  1 -1</clus>
<clus scale="   52.595">  1  5  2 -1</clus>
</clustering>
</event>
<event>
 9    1  0.1464797E-005  0.1558742E+03  0.7546771E-02  0.1193725E+00
         -3   -1    0    0    0  501 -0.00000000000E+00  0.00000000000E+00  0.16858120917E+03  0.16858120917E+03  0.00000000000E+00 0.  1.
         21   -1    0    0  501  502  0.00000000000E+00 -0.00000000000E+00 -0.32616972128E+03  0.32616972128E+03  0.00000000000E+00 0.  1.
         23    2    1    2    0    0 -0.10878095437E+03 -0.68908908626E+02 -0.20750962350E+01  0.15882241522E+03  0.92943637931E+02 0.  0.
         23    2    1    2    0    0  0.11707339921E+03  0.15400628604E+02 -0.21018992119E+03  0.25897774586E+03  0.94584933898E+02 0.  0.
        -11    1    3    3    0    0 -0.34749761206E+02 -0.76757640819E+02 -0.39906762609E+01  0.84351685371E+02  0.00000000000E+00 0.  1.
         11    1    3    3    0    0 -0.74031193160E+02  0.78487321930E+01  0.19155800259E+01  0.74470729851E+02  0.00000000000E+00 0. -1.
        -13    1    4    4    0    0  0.37480208211E+02  0.24687949254E+01 -0.42346861384E+01  0.37799385215E+02  0.00000000000E+00 0. -1.
         13    1    4    4    0    0  0.79593190995E+02  0.12931833679E+02 -0.20595523505E+03  0.22117836065E+03  0.00000000000E+00 0.  1.
         -3    1    1    2    0  502 -0.82924448400E+01  0.53508280022E+02  0.54676505315E+02  0.76950769364E+02  0.00000000000E+00 0.  1.
<scales pt_clust_5="13000.00000" pt_clust_6="13000.00000" pt_clust_7="13000.00000" pt_clust_8="13000.00000" pt_clust_9="54.14706"></scales>
<clustering>
<clus scale="   54.147">  2  9  1 -1</clus>
<clus scale="   92.944">  5  6 -1 -1</clus>
<clus scale="   94.585">  7  8 -1 -1</clus>
<clus scale="  154.884">  1  5  2 -1</clus>
<clus scale="   54.147">  2  5  1 -1</clus>
</clustering>
</event>
<event>
 9    1  0.1464797E-005  0.1104045E+03  0.7546771E-02  0.1268903E+00
         -3   -1    0    0    0  501 -0.00000000000E+00  0.00000000000E+00  0.31109250525E+02  0.31109250525E+02  0.00000000000E+00 0.  1.
         21   -1    0    0  501  502  0.00000000000E+00 -0.00000000000E+00 -0.11793165916E+04  0.11793165916E+04  0.00000000000E+00 0.  1.
         23    2    1    2    0    0 -0.80929518591E+01  0.59944189127E+02 -0.16333770192E+03  0.20472749458E+03  0.10758875632E+03 0.  0.
         23    2    1    2    0    0 -0.71257522164E+01  0.31269768849E+02 -0.28456577365E+03  0.29931523681E+03  0.87082470508E+02 0.  0.
        -11    1    3    3    0    0 -0.28025896122E+02  0.81710581047E+02 -0.14824761394E+03  0.17157920896E+03  0.00000000000E+00 0.  1.
         11    1    3    3    0    0  0.19932944262E+02 -0.21766391920E+02 -0.15090087982E+02  0.33148285619E+02  0.00000000000E+00 0. -1.
        -13    1    4    4    0    0  0.13149492014E+02  0.56193963770E+02 -0.14421728986E+03  0.15533607888E+03  0.00000000000E+00 0.  1.
         13    1    4    4    0    0 -0.20275244230E+02 -0.24924194921E+02 -0.14034848378E+03  0.14397915794E+03  0.00000000000E+00 0. -1.
         -3    1    1    2    0  502  0.15218704076E+02 -0.91213957976E+02 -0.70030386551E+03  0.70638311073E+03  0.00000000000E+00 0.  1.
<scales pt_clust_5="13000.00000" pt_clust_6="13000.00000" pt_clust_7="13000.00000" pt_clust_8="13000.00000" pt_clust_9="92.47483"></scales>
<clustering>
<clus scale="   87.082">  7  8 -1 -1</clus>
<clus scale="   92.475">  2  9  1 -1</clus>
<clus scale="   92.475">  2  7  1 -1</clus>
<clus scale="  107.589">  5  6 -1 -1</clus>
<clus scale="   92.475">  2  5  1 -1</clus>
</clustering>
</event>
<event>
 9    1  0.1464797E-005  0.9765548E+02  0.7546771E-02  0.1287586E+00
         21   -1    0    0  501  502  0.00000000000E+00  0.00000000000E+00  0.26078796944E+02  0.26078796944E+02  0.00000000000E+00 0. -1.
          2   -1    0    0  502    0 -0.00000000000E+00 -0.00000000000E+00 -0.74142813501E+03  0.74142813501E+03  0.00000000000E+00 0. -1.
         23    2    1    2    0    0 -0.14928771742E+02  0.43989076208E+01 -0.45389339250E+03  0.46299636786E+03  0.90023365205E+02 0.  0.
         23    2    1    2    0    0  0.44948530811E+02 -0.22438215057E+02 -0.24179890431E+03  0.26434837020E+03  0.94284180992E+02 0.  0.
        -11    1    4    4    0    0  0.47852094949E+02  0.24017868430E+02 -0.82193526418E+02  0.98094122045E+02  0.00000000000E+00 0.  1.
         11    1    4    4    0    0 -0.29035641379E+01 -0.46456083487E+02 -0.15960537789E+03  0.16625424815E+03  0.00000000000E+00 0. -1.
        -11    1    3    3    0    0 -0.41187803911E+02 -0.27884738789E+02 -0.24472481356E+03  0.24972830881E+03  0.00000000000E+00 0. -1.
         11    1    3    3    0    0  0.26259032169E+02  0.32283646410E+02 -0.20916857893E+03  0.21326805905E+03  0.00000000000E+00 0.  1.
          2    1    1    2  501    0 -0.30019759069E+02  0.18039307437E+02 -0.19657041257E+02  0.40162193893E+02  0.00000000000E+00 0. -1.
<scales pt_clust_5="13000.00000" pt_clust_6="13000.00000" pt_clust_7="13000.00000" pt_clust_8="13000.00000" pt_clust_9="35.02289"></scales>
<clustering>
<clus scale="   35.023">  1  9  2 -1</clus>
<clus scale="   90.023">  7  8 -1 -1</clus>
<clus scale="   93.548">  2  7  1 -1</clus>
<clus scale="   94.284">  5  6 -1 -1</clus>
<clus scale="   35.023">  1  5  2 -1</clus>
</clustering>
</event>
<event>
 9    1  0.1464797E-005  0.9751587E+02  0.7546771E-02  0.1286027E+00
         -3   -1    0    0    0  501 -0.00000000000E+00  0.00000000000E+00  0.64722687549E+02  0.64722687549E+02  0.00000000000E+00 0.  1.
         21   -1    0    0  501  502  0.00000000000E+00 -0.00000000000E+00 -0.80253524820E+03  0.80253524820E+03  0.00000000000E+00 0.  1.
         23    2    1    2    0    0  0.22624650353E+02 -0.38253809258E+01 -0.77939027934E+01  0.94340396465E+02  0.91174871218E+02 0.  0.
         23    2    1    2    0    0 -0.90973862608E+02  0.65502279181E+02 -0.29497049572E+03  0.32823500312E+03  0.90353924480E+02 0.  0.
        -11    1    3    3    0    0 -0.22310015784E+02  0.28764476101E+02  0.65998205506E+01  0.36995804100E+02  0.00000000000E+00 0. -1.
         11    1    3    3    0    0  0.44934666137E+02 -0.32589857027E+02 -0.14393723344E+02  0.57344592366E+02  0.00000000000E+00 0.  1.
        -11    1    4    4    0    0 -0.56739898756E+02  0.78760133230E+02 -0.14984981314E+03  0.17854282734E+03  0.00000000000E+00 0.  1.
         11    1    4    4    0    0 -0.34233963852E+02 -0.13257854049E+02 -0.14512068258E+03  0.14969217578E+03  0.00000000000E+00 0. -1.
         -3    1    1    2    0  502  0.68349212255E+02 -0.61676898255E+02 -0.43504816214E+03  0.44468253617E+03  0.00000000000E+00 0.  1.
<scales pt_clust_5="13000.00000" pt_clust_6="13000.00000" pt_clust_7="13000.00000" pt_clust_8="13000.00000" pt_clust_9="92.06332"></scales>
<clustering>
<clus scale="   90.354">  7  8 -1 -1</clus>
<clus scale="   91.175">  5  6 -1 -1</clus>
<clus scale="   92.063">  2  9  1 -1</clus>
<clus scale="   96.749">  2  7  1 -1</clus>
<clus scale="   92.063">  2  5  1 -1</clus>
</clustering>
</event>
<event>
 9    1  0.1464797E-005  0.1789814E+03  0.7546771E-02  0.1169341E+00
         21   -1    0    0  501  502  0.00000000000E+00  0.00000000000E+00  0.13485332851E+03  0.13485332851E+03  0.00000000000E+00 0. -1.
          2   -1    0    0  502    0 -0.00000000000E+00 -0.00000000000E+00 -0.75532570346E+03  0.75532570346E+03  0.00000000000E+00 0. -1.
         23    2    1    2    0    0  0.15355755984E+03 -0.66450511218E+02 -0.44118644726E+03  0.48058635088E+03  0.91225899724E+02 0.  0.
         23    2    1    2    0    0 -0.12632542537E+03  0.56846440878E+02 -0.26932115375E+03  0.31504021287E+03  0.86757252912E+02 0.  0.
        -11    1    3    3    0    0  0.95530608449E+02 -0.31796300561E+02 -0.14333511786E+03  0.17516294669E+03  0.00000000000E+00 0.  1.
         11    1    3    3    0    0  0.58026951394E+02 -0.34654210658E+02 -0.29785132939E+03  0.30542340419E+03  0.00000000000E+00 0. -1.
        -13    1    4    4    0    0 -0.29046450833E+02  0.58782732262E+02 -0.95541273685E+02  0.11587597204E+03  0.00000000000E+00 0.  1.
         13    1    4    4    0    0 -0.97278974539E+02 -0.19362913835E+01 -0.17377988007E+03  0.19916424084E+03  0.00000000000E+00 0. -1.
          2    1    1    2  501    0 -0.27232134471E+02  0.96040703402E+01  0.90035226057E+02  0.94552468217E+02  0.00000000000E+00 0. -1.
<scales pt_clust_5="13000.00000" pt_clust_6="13000.00000" pt_clust_7="13000.00000" pt_clust_8="13000.00000" pt_clust_9="28.87607"></scales>
<clustering>
<clus scale="   28.876">  1  9  2 -1</clus>
<clus scale="   86.757">  7  8 -1 -1</clus>
<clus scale="   91.226">  5  6 -1 -1</clus>
<clus scale="  176.746">  1  7  2 -1</clus>
<clus scale="   28.876">  1  5  2 -1</clus>
</clustering>
</event>
<event>
 9    1  0.1464797E-005  0.2405476E+03  0.7546771E-02  0.1135335E+00
         21   -1    0    0  501  502  0.00000000000E+00  0.00000000000E+00  0.13934594037E+03  0.13934594037E+03  0.00000000000E+00 0. -1.
          2   -1    0    0  502    0 -0.00000000000E+00 -0.00000000000E+00 -0.83998056360E+03  0.83998056360E+03  0.00000000000E+00 0. -1.
         23    2    1    2    0    0  0.12483795172E+03  0.49272716921E+02 -0.25407369353E+03  0.30156930580E+03  0.91532997519E+02 0.  0.
         23    2    1    2    0    0 -0.93874031964E+02  0.18908516718E+03 -0.35028426621E+03  0.41883164676E+03  0.90306959054E+02 0.  0.
        -11    1    4    4    0    0 -0.22006376432E+02  0.29695785936E+01 -0.99564530781E+01  0.24335775282E+02  0.00000000000E+00 0.  1.
         11    1    4    4    0    0 -0.71867655532E+02  0.18611558859E+03 -0.34032781313E+03  0.39449587148E+03  0.00000000000E+00 0. -1.
        -13    1    3    3    0    0  0.10823450375E+03  0.26013284873E+02 -0.11678782981E+03  0.16134062100E+03  0.00000000000E+00 0. -1.
         13    1    3    3    0    0  0.16603447965E+02  0.23259432048E+02 -0.13728586373E+03  0.14022868481E+03  0.00000000000E+00 0.  1.
          2    1    1    2  501    0 -0.30963919752E+02 -0.23835788410E+03 -0.96276663490E+02  0.25892555141E+03  0.00000000000E+00 0. -1.
<scales pt_clust_5="13000.00000" pt_clust_6="13000.00000" pt_clust_7="13000.00000" pt_clust_8="13000.00000" pt_clust_9="222.95248"></scales>
<clustering>
<clus scale="   90.307">  5  6 -1 -1</clus>
<clus scale="   91.533">  7  8 -1 -1</clus>
<clus scale="  162.452">  2  7  1 -1</clus>
<clus scale="  222.952">  1  9  2 -1</clus>
<clus scale="  222.952">  1  5  2 -1</clus>
</clustering>
</event>
<event>
 9    1  0.1464797E-005  0.1190959E+03  0.7546771E-02  0.1245062E+00
         21   -1    0    0  501  502  0.00000000000E+00  0.00000000000E+00  0.46029863935E+03  0.46029863935E+03  0.00000000000E+00 0. -1.
         -2   -1    0    0    0  501 -0.00000000000E+00 -0.00000000000E+00 -0.76335521744E+02  0.76335521744E+02  0.00000000000E+00 0.  1.
         23    2    1    2    0    0 -0.23347514847E+00 -0.68424968862E+02  0.47332386310E+01  0.11389191006E+03  0.90922674595E+02 0.  0.
         23    2    1    2    0    0 -0.15813860358E+02  0.10812810606E+03  0.27341799622E+03  0.30859317915E+03  0.92361160990E+02 0.  0.
        -13    1    3    3    0    0 -0.25264156558E+02  0.64463720502E+01 -0.18066155389E+02  0.31720959786E+02  0.00000000000E+00 0.  1.
         13    1    3    3    0    0  0.25030681410E+02 -0.74871340912E+02  0.22799394020E+02  0.82170950278E+02  0.00000000000E+00 0. -1.
        -13    1    4    4    0    0 -0.53386821042E+02  0.47378335125E+02  0.12712887004E+03  0.14579646395E+03  0.00000000000E+00 0.  1.
         13    1    4    4    0    0  0.37572960684E+02  0.60749770931E+02  0.14628912618E+03  0.16279671520E+03  0.00000000000E+00 0. -1.
         -2    1    1    2    0  502  0.16047335507E+02 -0.39703137194E+02  0.10581188275E+03  0.11414907188E+03  0.00000000000E+00 0.  1.
<scales pt_clust_5="13000.00000" pt_clust_6="13000.00000" pt_clust_7="13000.00000" pt_clust_8="13000.00000" pt_clust_9="42.82355"></scales>
<clustering>
<clus scale="   42.824">  1  9  2 -1</clus>
<clus scale="   90.923">  5  6 -1 -1</clus>
<clus scale="   92.361">  7  8 -1 -1</clus>
<clus scale="  117.984">  2  5  1 -1</clus>
<clus scale="   42.824">  1  5  2 -1</clus>
</clustering>
</event>
<event>
 9    1  0.1464797E-005  0.9555188E+02  0.7546771E-02  0.1292052E+00
         21   -1    0    0  501  502  0.00000000000E+00  0.00000000000E+00  0.59421888439E+02  0.59421888439E+02  0.00000000000E+00 0. -1.
          1   -1    0    0  502    0 -0.00000000000E+00 -0.00000000000E+00 -0.33200590676E+03  0.33200590676E+03  0.00000000000E+00 0. -1.
         23    2    1    2    0    0 -0.64439168652E+01 -0.88393010015E+01 -0.15117362247E+03  0.17533325805E+03  0.88139831740E+02 0.  0.
         23    2    1    2    0    0 -0.22618013062E+02  0.64569630210E+02 -0.90449339427E+02  0.14602990714E+03  0.91993690626E+02 0.  0.
        -13    1    4    4    0    0  0.25861914177E+02 -0.18046436640E+01 -0.31331942313E+01  0.26113449594E+02  0.00000000000E+00 0.  1.
         13    1    4    4    0    0 -0.48479927239E+02  0.66374273874E+02 -0.87316145196E+02  0.11991645754E+03  0.00000000000E+00 0. -1.
        -13    1    3    3    0    0  0.34889256955E+02  0.15763901056E+02 -0.87700204217E+02  0.95692667676E+02  0.00000000000E+00 0.  1.
         13    1    3    3    0    0 -0.41333173820E+02 -0.24603202057E+02 -0.63473418254E+02  0.79640590369E+02  0.00000000000E+00 0. -1.
          1    1    1    2  501    0  0.29061929927E+02 -0.55730329209E+02 -0.30961056424E+02  0.70064630019E+02  0.00000000000E+00 0. -1.
<scales pt_clust_5="13000.00000" pt_clust_6="13000.00000" pt_clust_7="13000.00000" pt_clust_8="13000.00000" pt_clust_9="62.85273"></scales>
<clustering>
<clus scale="   62.853">  1  9  2 -1</clus>
<clus scale="   88.140">  7  8 -1 -1</clus>
<clus scale="   91.847">  2  7  1 -1</clus>
<clus scale="   91.994">  5  6 -1 -1</clus>
<clus scale="   62.853">  1  5  2 -1</clus>
</clustering>
</event>
<event>
 9    1  0.1464797E-005  0.9267854E+02  0.7546771E-02  0.1304029E+00
         21   -1    0    0  501  502  0.00000000000E+00  0.00000000000E+00  0.66729500936E+02  0.66729500936E+02  0.00000000000E+00 0.  1.
          1   -1    0    0  502    0 -0.00000000000E+00 -0.00000000000E+00 -0.23864584663E+03  0.23864584663E+03  0.00000000000E+00 0. -1.
         23    2    1    2    0    0  0.19462184034E+02  0.27227617331E+02 -0.10603798979E+03  0.13218243648E+03  0.71470423818E+02 0.  0.
         23    2    1    2    0    0 -0.14011964296E+02 -0.53477664887E+02  0.90018010372E+00  0.10123359784E+03  0.84801151069E+02 0.  0.
        -11    1    4    4    0    0  0.18587214174E+02 -0.48982954258E+02 -0.26224508721E+02  0.58587875847E+02  0.00000000000E+00 0.  1.
         11    1    4    4    0    0 -0.32599178470E+02 -0.44947106293E+01  0.27124688825E+02  0.42645721995E+02  0.00000000000E+00 0. -1.
        -11    1    3    3    0    0  0.23168263509E+02  0.59869964850E+01  0.46069790989E-01  0.23929368637E+02  0.00000000000E+00 0.  1.
         11    1    3    3    0    0 -0.37060794753E+01  0.21240620846E+02 -0.10608405958E+03  0.10825306784E+03  0.00000000000E+00 0. -1.
          1    1    1    2  501    0 -0.54502197381E+01  0.26250047556E+02 -0.66778536005E+02  0.71959313246E+02  0.00000000000E+00 0. -1.
<scales pt_clust_5="13000.00000" pt_clust_6="13000.00000" pt_clust_7="13000.00000" pt_clust_8="13000.00000" pt_clust_9="26.80990"></scales>
<clustering>
<clus scale="   26.810">  1  9  2 -1</clus>
<clus scale="   71.470">  7  8 -1 -1</clus>
<clus scale="   80.660">  2  7  1 -1</clus>
<clus scale="   84.801">  5  6 -1 -1</clus>
<clus scale="   26.810">  1  5  2 -1</clus>
</clustering>
</event>
<event>
 9    1  0.1464797E-005  0.1045226E+03  0.7546771E-02  0.1271712E+00
         21   -1    0    0  501  502  0.00000000000E+00  0.00000000000E+00  0.11451114098E+03  0.11451114098E+03  0.00000000000E+00 0. -1.
          1   -1    0    0  502    0 -0.00000000000E+00 -0.00000000000E+00 -0.33283475409E+03  0.33283475409E+03  0.00000000000E+00 0. -1.
         23    2    1    2    0    0  0.40374568985E+02 -0.42702037976E+02 -0.26915277112E+03  0.29012159665E+03  0.90960193326E+02 0.  0.
         23    2    1    2    0    0 -0.21011725891E+02  0.65837337790E+01  0.25736361068E+00  0.92132378961E+02  0.89462119590E+02 0.  0.
        -11    1    4    4    0    0  0.35329972662E+02  0.56450558800E+01  0.53807101019E+00  0.35782162380E+02  0.00000000000E+00 0. -1.
         11    1    4    4    0    0 -0.56341698553E+02  0.93867789905E+00 -0.28070739952E+00  0.56350216581E+02  0.00000000000E+00 0.  1.
        -13    1    3    3    0    0  0.56963249934E+02 -0.61090106750E+02 -0.20795547703E+03  0.22410330969E+03  0.00000000000E+00 0. -1.
         13    1    3    3    0    0 -0.16588680949E+02  0.18388068774E+02 -0.61197294094E+02  0.66018286961E+02  0.00000000000E+00 0.  1.
          1    1    1    2  501    0 -0.19362843093E+02  0.36118304197E+02  0.50571794403E+02  0.65091919467E+02  0.00000000000E+00 0. -1.
<scales pt_clust_5="13000.00000" pt_clust_6="13000.00000" pt_clust_7="13000.00000" pt_clust_8="13000.00000" pt_clust_9="40.98111"></scales>
<clustering>
<clus scale="   40.981">  1  9  2 -1</clus>
<clus scale="   89.462">  5  6 -1 -1</clus>
<clus scale="   90.960">  7  8 -1 -1</clus>
<clus scale="  103.222">  1  5  2 -1</clus>
<clus scale="   40.981">  1  5  2 -1</clus>
</clustering>
</event>
<event>
 9    1  0.1464797E-005  0.9930513E+02  0.7546771E-02  0.1284104E+00
         21   -1    0    0  501  502  0.00000000000E+00  0.00000000000E+00  0.12247488228E+03  0.12247488228E+03  0.00000000000E+00 0. -1.
         -1   -1    0    0    0  501 -0.00000000000E+00 -0.00000000000E+00 -0.13306272837E+03  0.13306272837E+03  0.00000000000E+00 0.  1.
         23    2    1    2    0    0  0.75023840344E+01 -0.31590284249E+02 -0.59303184628E+02  0.11322263627E+03  0.90819963843E+02 0.  0.
         23    2    1    2    0    0  0.93842845307E+01  0.20210441144E+02  0.97747965581E+01  0.98371531012E+02  0.95314661718E+02 0.  0.
        -11    1    3    3    0    0  0.31064512467E+02 -0.49568996518E+02 -0.15820924669E+02  0.60600255841E+02  0.00000000000E+00 0.  1.
         11    1    3    3    0    0 -0.23562128433E+02  0.17978712270E+02 -0.43482259959E+02  0.52622380432E+02  0.00000000000E+00 0. -1.
        -13    1    4    4    0    0  0.22305976901E+02  0.55404745196E+02  0.11571657552E+02  0.60837041794E+02  0.00000000000E+00 0. -1.
         13    1    4    4    0    0 -0.12921692370E+02 -0.35194304052E+02 -0.17968609938E+01  0.37534489218E+02  0.00000000000E+00 0.  1.
         -1    1    1    2    0  502 -0.16886668565E+02  0.11379843105E+02  0.38940541984E+02  0.43943443359E+02  0.00000000000E+00 0.  1.
<scales pt_clust_5="13000.00000" pt_clust_6="13000.00000" pt_clust_7="13000.00000" pt_clust_8="13000.00000" pt_clust_9="20.36321"></scales>
<clustering>
<clus scale="   20.363">  1  9  2 -1</clus>
<clus scale="   90.820">  5  6 -1 -1</clus>
<clus scale="   94.999">  2  5  1 -1</clus>
<clus scale="   95.315">  7  8 -1 -1</clus>
<clus scale="   20.363">  1  5  2 -1</clus>
</clustering>
</event>
<event>
 9    1  0.1464797E-005  0.9288377E+02  0.7546771E-02  0.1300080E+00
         -1   -1    0    0    0  501 -0.00000000000E+00  0.00000000000E+00  0.15508982333E+03  0.15508982333E+03  0.00000000000E+00 0.  1.
         21   -1    0    0  501  502  0.00000000000E+00 -0.00000000000E+00 -0.89353987374E+02  0.89353987374E+02  0.00000000000E+00 0. -1.
         23    2    1    2    0    0  0.12706351393E+02 -0.12431325529E+02  0.66724695000E+02  0.11014623076E+03  0.85813856741E+02 0.  0.
         23    2    1    2    0    0  0.20758081398E+01 -0.19909900231E+02  0.13950065660E+02  0.95727661666E+02  0.92566018439E+02 0.  0.
        -11    1    3    3    0    0  0.29595020517E+01 -0.34637686270E+02 -0.43622036476E+01  0.35036506436E+02  0.00000000000E+00 0. -1.
         11    1    3    3    0    0  0.97468493411E+01  0.22206360741E+02  0.71086898647E+02  0.75109724329E+02  0.00000000000E+00 0.  1.
        -13    1    4    4    0    0  0.36429802018E+02 -0.36698208885E+02  0.22747578373E+02  0.56491958120E+02  0.00000000000E+00 0.  1.
         13    1    4    4    0    0 -0.34353993878E+02  0.16788308654E+02 -0.87975127129E+01  0.39235703546E+02  0.00000000000E+00 0. -1.
         -1    1    1    2    0  502 -0.14782159533E+02  0.32341225760E+02 -0.14938924705E+02  0.38569918271E+02  0.00000000000E+00 0.  1.
<scales pt_clust_5="13000.00000" pt_clust_6="13000.00000" pt_clust_7="13000.00000" pt_clust_8="13000.00000" pt_clust_9="35.55935"></scales>
<clustering>
<clus scale="   35.559">  2  9  1 -1</clus>
<clus scale="   85.814">  5  6 -1 -1</clus>
<clus scale="   86.157">  1  5  2 -1</clus>
<clus scale="   92.566">  7  8 -1 -1</clus>
<clus scale="   35.559">  2  5  1 -1</clus>
</clustering>
</event>
<event>
 9    1  0.1464797E-005  0.2059687E+03  0.7546771E-02  0.1146120E+00
          1   -1    0    0  502    0 -0.00000000000E+00  0.00000000000E+00  0.50062421637E+03  0.50062421637E+03  0.00000000000E+00 0. -1.
         21   -1    0    0  501  502  0.00000000000E+00 -0.00000000000E+00 -0.19372498243E+03  0.19372498243E+03  0.00000000000E+00 0. -1.
         23    2    1    2    0    0 -0.17430392341E+03  0.28035574300E+02  0.36870434329E+03  0.41887222365E+03  0.91341096121E+02 0.  0.
         23    2    1    2    0    0  0.17215808958E+03 -0.67465814467E+02 -0.13187233784E+02  0.21284274915E+03  0.10458531828E+03 0.  0.
        -11    1    4    4    0    0  0.14374295454E+02 -0.51810103955E+02 -0.39010037786E+00  0.53768572790E+02  0.00000000000E+00 0.  1.
         11    1    4    4    0    0  0.15778379413E+03 -0.15655710512E+02 -0.12797133406E+02  0.15907417636E+03  0.00000000000E+00 0. -1.
        -11    1    3    3    0    0 -0.50660707133E+02 -0.25459877825E+02  0.16658647686E+03  0.17597092629E+03  0.00000000000E+00 0.  1.
         11    1    3    3    0    0 -0.12364321627E+03  0.53495452126E+02  0.20211786644E+03  0.24290129736E+03  0.00000000000E+00 0. -1.
          1    1    1    2  501    0  0.21458338259E+01  0.39430240166E+02 -0.48617875573E+02  0.62634226008E+02  0.00000000000E+00 0. -1.
<scales pt_clust_5="13000.00000" pt_clust_6="13000.00000" pt_clust_7="13000.00000" pt_clust_8="13000.00000" pt_clust_9="39.48859"></scales>
<clustering>
<clus scale="   39.489">  2  9  1 -1</clus>
<clus scale="   91.341">  7  8 -1 -1</clus>
<clus scale="  104.585">  5  6 -1 -1</clus>
<clus scale="  199.570">  1  7  2 -1</clus>
<clus scale="   39.489">  2  5  1 -1</clus>
</clustering>
</event>
<event>
 9    1  0.1464797E-005  0.1166731E+03  0.7546771E-02  0.1257487E+00
          1   -1    0    0  502    0 -0.00000000000E+00  0.00000000000E+00  0.13445249408E+03  0.13445249408E+03  0.00000000000E+00 0. -1.
         21   -1    0    0  501  502  0.00000000000E+00 -0.00000000000E+00 -0.13063734771E+03  0.13063734771E+03  0.00000000000E+00 0.  1.
         23    2    1    2    0    0 -0.16944953425E+02  0.85297764494E+01  0.56089510126E+02  0.12910800628E+03  0.11472992463E+03 0.  0.
         23    2    1    2    0    0  0.29751308061E+02  0.12456972465E+02 -0.40938317570E+02  0.10890874385E+03  0.95628720300E+02 0.  0.
        -13    1    4    4    0    0  0.56141937754E+02  0.40474101932E+01 -0.54252367576E+02  0.78176838588E+02  0.00000000000E+00 0. -1.
         13    1    4    4    0    0 -0.26390629693E+02  0.84095622720E+01  0.13314050006E+02  0.30731905258E+02  0.00000000000E+00 0.  1.
        -13    1    3    3    0    0 -0.53076727140E+02  0.36970155218E+02  0.12765320335E+02  0.65930908867E+02  0.00000000000E+00 0.  1.
         13    1    3    3    0    0  0.36131773715E+02 -0.28440378769E+02  0.43324189792E+02  0.63177097412E+02  0.00000000000E+00 0. -1.
          1    1    1    2  501    0 -0.12806354636E+02 -0.20986748915E+02 -0.11336046185E+02  0.27073091663E+02  0.00000000000E+00 0. -1.
<scales pt_clust_5="13000.00000" pt_clust_6="13000.00000" pt_clust_7="13000.00000" pt_clust_8="13000.00000" pt_clust_9="24.58549"></scales>
<clustering>
<clus scale="   24.585">  2  9  1 -1</clus>
<clus scale="   95.629">  5  6 -1 -1</clus>
<clus scale="   97.952">  2  5  1 -1</clus>
<clus scale="  114.730">  7  8 -1 -1</clus>
<clus scale="   24.585">  2  5  1 -1</clus>
</clustering>
</event>
<event>
 9    1  0.1464797E-005  0.1007237E+03  0.7546771E-02  0.1291980E+00
         21   -1    0    0  501  502  0.00000000000E+00  0.00000000000E+00  0.74910961380E+02  0.74910961380E+02  0.00000000000E+00 0. -1.
          1   -1    0    0  502    0 -0.00000000000E+00 -0.00000000000E+00 -0.34966847830E+03  0.34966847830E+03  0.00000000000E+00 0. -1.
         23    2    1    2    0    0 -0.16765768522E+02 -0.43848477144E+02 -0.21944858605E+03  0.23334798587E+03  0.63951705602E+02 0.  0.
         23    2    1    2    0    0  0.68906214323E+02  0.74571425753E+01 -0.58327707933E+02  0.12757559519E+03  0.89831707259E+02 0.  0.
        -11    1    3    3    0    0  0.20246364741E+02 -0.22841937979E+02 -0.49520595866E+02  0.58171804431E+02  0.00000000000E+00 0.  1.
         11    1    3    3    0    0 -0.37012133263E+02 -0.21006539165E+02 -0.16992799019E+03  0.17517618144E+03  0.00000000000E+00 0. -1.
        -11    1    4    4    0    0  0.85741208685E+02 -0.13114233526E+02 -0.41913579019E+02  0.96334241545E+02  0.00000000000E+00 0. -1.
         11    1    4    4    0    0 -0.16834994363E+02  0.20571376102E+02 -0.16414128913E+02  0.31241353650E+02  0.00000000000E+00 0.  1.
          1    1    1    2  501    0 -0.52140445800E+02  0.36391334568E+02  0.30187770682E+01  0.63655858606E+02  0.00000000000E+00 0. -1.
<scales pt_clust_5="13000.00000" pt_clust_6="13000.00000" pt_clust_7="13000.00000" pt_clust_8="13000.00000" pt_clust_9="63.58424"></scales>
<clustering>
<clus scale="   63.584">  1  9  2 -1</clus>
<clus scale="   63.952">  5  6 -1 -1</clus>
<clus scale="   78.520">  2  5  1 -1</clus>
<clus scale="   89.832">  7  8 -1 -1</clus>
<clus scale="   63.584">  1  5  2 -1</clus>
</clustering>
</event>
<event>
 9    1  0.1464797E-005  0.1687200E+03  0.7546771E-02  0.1180266E+00
         21   -1    0    0  501  502  0.00000000000E+00  0.00000000000E+00  0.86060611238E+02  0.86060611238E+02  0.00000000000E+00 0.  1.
          1   -1    0    0  502    0 -0.00000000000E+00 -0.00000000000E+00 -0.70414262992E+03  0.70414262992E+03  0.00000000000E+00 0. -1.
         23    2    1    2    0    0  0.24849295481E+02  0.12310123879E+03 -0.48498857880E+03  0.51142005821E+03  0.10278692476E+03 0.  0.
         23    2    1    2    0    0 -0.47595400771E+02 -0.15686036897E+03 -0.14191918016E+03  0.23713035750E+03  0.96016952764E+02 0.  0.
        -11    1    4    4    0    0 -0.70413079109E+02 -0.14563300473E+03 -0.10706170164E+03  0.19398242636E+03  0.00000000000E+00 0.  1.
         11    1    4    4    0    0  0.22817678338E+02 -0.11227364241E+02 -0.34857478519E+02  0.43147931135E+02  0.00000000000E+00 0. -1.
        -13    1    3    3    0    0  0.52667385290E+02  0.87713999834E+02 -0.21988374600E+03  0.24252105269E+03  0.00000000000E+00 0. -1.
         13    1    3    3    0    0 -0.27818089809E+02  0.35387238952E+02 -0.26510483279E+03  0.26889900552E+03  0.00000000000E+00 0.  1.
          1    1    1    2  501    0  0.22746105290E+02  0.33759130189E+02  0.88257402755E+01  0.41652825455E+02  0.00000000000E+00 0. -1.
<scales pt_clust_5="13000.00000" pt_clust_6="13000.00000" pt_clust_7="13000.00000" pt_clust_8="13000.00000" pt_clust_9="40.70705"></scales>
<clustering>
<clus scale="   40.707">  1  9  2 -1</clus>
<clus scale="   96.017">  5  6 -1 -1</clus>
<clus scale="  102.787">  7  8 -1 -1</clus>
<clus scale="  164.683">  1  5  2 -1</clus>
<clus scale="   40.707">  1  5  2 -1</clus>
</clustering>
</event>
<event>
 9    1  0.1464797E-005  0.1066027E+03  0.7546771E-02  0.1269745E+00
          2   -1    0    0  502    0 -0.00000000000E+00  0.00000000000E+00  0.36588716595E+03  0.36588716595E+03  0.00000000000E+00 0. -1.
         21   -1    0    0  501  502  0.00000000000E+00 -0.00000000000E+00 -0.47253982081E+02  0.47253982081E+02  0.00000000000E+00 0. -1.
         23    2    1    2    0    0 -0.12990926385E+02 -0.48617357988E+02  0.21460722648E+03  0.24067856640E+03  0.96630735288E+02 0.  0.
         23    2    1    2    0    0  0.36385683203E+02  0.23966425114E+02  0.92612006788E+02  0.13661203900E+03  0.90485125435E+02 0.  0.
        -13    1    3    3    0    0  0.36303173533E+02 -0.18404832787E+02  0.14280695510E+03  0.14849405612E+03  0.00000000000E+00 0.  1.
         13    1    3    3    0    0 -0.49294099918E+02 -0.30212525200E+02  0.71800271384E+02  0.92184510285E+02  0.00000000000E+00 0. -1.
        -13    1    4    4    0    0  0.66900318323E+01 -0.27568901555E+02  0.22851106114E+01  0.28460895793E+02  0.00000000000E+00 0.  1.
         13    1    4    4    0    0  0.29695651371E+02  0.51535326668E+02  0.90326896176E+02  0.10815114321E+03  0.00000000000E+00 0. -1.
          2    1    1    2  501    0 -0.23394756818E+02  0.24650932874E+02  0.11413950604E+02  0.35850542625E+02  0.00000000000E+00 0. -1.
<scales pt_clust_5="13000.00000" pt_clust_6="13000.00000" pt_clust_7="13000.00000" pt_clust_8="13000.00000" pt_clust_9="33.98504"></scales>
<clustering>
<clus scale="   33.985">  2  9  1 -1</clus>
<clus scale="   90.485">  7  8 -1 -1</clus>
<clus scale="   96.631">  5  6 -1 -1</clus>
<clus scale="  101.065">  2  7  1 -1</clus>
<clus scale="   33.985">  2  5  1 -1</clus>
</clustering>
</event>
<event>
 9    1  0.1464797E-005  0.9403190E+02  0.7546771E-02  0.1293394E+00
         21   -1    0    0  501  502  0.00000000000E+00  0.00000000000E+00  0.41015148195E+03  0.41015148195E+03  0.00000000000E+00 0. -1.
         -1   -1    0    0    0  501 -0.00000000000E+00 -0.00000000000E+00 -0.41550849005E+02  0.41550849005E+02  0.00000000000E+00 0.  1.
         23    2    1    2    0    0  0.21042397863E+02 -0.55451582668E+00  0.80320344261E+02  0.12395826283E+03  0.92039139638E+02 0.  0.
         23    2    1    2    0    0 -0.10852914862E+02  0.20089636631E+02  0.29052452269E+03  0.30559721519E+03  0.91998806453E+02 0.  0.
        -13    1    4    4    0    0  0.27893913648E+02 -0.17983479453E+02  0.58118734912E+02  0.66927298612E+02  0.00000000000E+00 0.  1.
         13    1    4    4    0    0 -0.38746828510E+02  0.38073116084E+02  0.23240578777E+03  0.23866991658E+03  0.00000000000E+00 0. -1.
        -13    1    3    3    0    0 -0.90983148297E+01 -0.21605257875E+02 -0.10718108155E+02  0.25776817937E+02  0.00000000000E+00 0.  1.
         13    1    3    3    0    0  0.30140712692E+02  0.21050742048E+02  0.91038452416E+02  0.98181444890E+02  0.00000000000E+00 0. -1.
         -1    1    1    2    0  502 -0.10189483000E+02 -0.19535120805E+02 -0.22442340050E+01  0.22146852935E+02  0.00000000000E+00 0.  1.
<scales pt_clust_5="13000.00000" pt_clust_6="13000.00000" pt_clust_7="13000.00000" pt_clust_8="13000.00000" pt_clust_9="22.03286"></scales>
<clustering>
<clus scale="   22.033">  1  9  2 -1</clus>
<clus scale="   91.999">  5  6 -1 -1</clus>
<clus scale="   92.039">  7  8 -1 -1</clus>
<clus scale="   93.992">  1  5  2 -1</clus>
<clus scale="   22.033">  1  5  2 -1</clus>
</clustering>
</event>
<event>
 9    1  0.1464797E-005  0.1179054E+03  0.7546771E-02  0.1247587E+00
         21   -1    0    0  501  502  0.00000000000E+00  0.00000000000E+00  0.12551927204E+03  0.12551927204E+03  0.00000000000E+00 0.  1.
          2   -1    0    0  502    0 -0.00000000000E+00 -0.00000000000E+00 -0.67049677800E+03  0.67049677800E+03  0.00000000000E+00 0. -1.
         23    2    1    2    0    0  0.93854446719E-01  0.67503735216E+02 -0.42745984651E+03  0.44212663548E+03  0.90538822317E+02 0.  0.
         23    2    1    2    0    0  0.20788739985E+02 -0.13697603000E+03  0.47391665107E+02  0.17372957493E+03  0.93495405115E+02 0.  0.
        -13    1    3    3    0    0 -0.36689386262E+02  0.29336224204E+01 -0.10665619410E+03  0.11282845804E+03  0.00000000000E+00 0.  1.
         13    1    3    3    0    0  0.36783240708E+02  0.64570112796E+02 -0.32080365241E+03  0.32929817744E+03  0.00000000000E+00 0. -1.
        -13    1    4    4    0    0  0.55276704873E+02 -0.10931334084E+03  0.29233598274E+02  0.12593460150E+03  0.00000000000E+00 0.  1.
         13    1    4    4    0    0 -0.34487964888E+02 -0.27662689164E+02  0.18158066833E+02  0.47794973428E+02  0.00000000000E+00 0. -1.
          2    1    1    2  501    0 -0.20882594431E+02  0.69472294783E+02 -0.16490932456E+03  0.18015983964E+03  0.00000000000E+00 0. -1.
<scales pt_clust_5="13000.00000" pt_clust_6="13000.00000" pt_clust_7="13000.00000" pt_clust_8="13000.00000" pt_clust_9="72.54301"></scales>
<clustering>
<clus scale="   72.543">  1  9  2 -1</clus>
<clus scale="   90.539">  5  6 -1 -1</clus>
<clus scale="   93.495">  7  8 -1 -1</clus>
<clus scale="  115.575">  2  5  1 -1</clus>
<clus scale="   72.543">  1  5  2 -1</clus>
</clustering>
</event>
<event>
 9    1  0.1464797E-005  0.9798397E+02  0.7546771E-02  0.1287593E+00
          1   -1    0    0  502    0 -0.00000000000E+00  0.00000000000E+00  0.15903074562E+03  0.15903074562E+03  0.00000000000E+00 0. -1.
         21   -1    0    0  501  502  0.00000000000E+00 -0.00000000000E+00 -0.23969531063E+03  0.23969531063E+03  0.00000000000E+00 0. -1.
         23    2    1    2    0    0 -0.37695216508E+02  0.13766919562E+02  0.90256847429E+02  0.13072105687E+03  0.85622653424E+02 0.  0.
         23    2    1    2    0    0  0.26345749877E+02  0.49445867040E+01  0.42235591324E+00  0.95269311658E+02  0.91419450256E+02 0.  0.
        -11    1    4    4    0    0  0.44273309982E+02  0.35011668604E+02 -0.12751158164E+02  0.57866527023E+02  0.00000000000E+00 0.  1.
         11    1    4    4    0    0 -0.17927560106E+02 -0.30067081900E+02  0.13173514077E+02  0.37402784635E+02  0.00000000000E+00 0. -1.
        -11    1    3    3    0    0 -0.37939538515E+02 -0.30693830454E+02  0.57953206188E+02  0.75763407514E+02  0.00000000000E+00 0. -1.
         11    1    3    3    0    0  0.24432200704E+00  0.44460750016E+02  0.32303641240E+02  0.54957649355E+02  0.00000000000E+00 0.  1.
          1    1    1    2  501    0  0.11349466631E+02 -0.18711506266E+02 -0.17134376836E+03  0.17273568773E+03  0.00000000000E+00 0. -1.
<scales pt_clust_5="13000.00000" pt_clust_6="13000.00000" pt_clust_7="13000.00000" pt_clust_8="13000.00000" pt_clust_9="21.88449"></scales>
<clustering>
<clus scale="   21.884">  2  9  1 -1</clus>
<clus scale="   85.623">  7  8 -1 -1</clus>
<clus scale="   91.419">  5  6 -1 -1</clus>
<clus scale="   92.599">  1  7  2 -1</clus>
<clus scale="   21.884">  2  5  1 -1</clus>
</clustering>
</event>
<event>
 9    1  0.1464797E-005  0.1802999E+03  0.7546771E-02  0.1168181E+00
         21   -1    0    0  501  502  0.00000000000E+00  0.00000000000E+00  0.23002925738E+03  0.23002925738E+03  0.00000000000E+00 0. -1.
         -3   -1    0    0    0  501 -0.00000000000E+00 -0.00000000000E+00 -0.48115350028E+03  0.48115350028E+03  0.00000000000E+00 0.  1.
         23    2    1    2    0    0  0.86850002453E+02  0.12986215138E+03 -0.40008732756E+03  0.43932943708E+03  0.92376313681E+02 0.  0.
         23    2    1    2    0    0 -0.49440586081E+02 -0.14122421702E+03  0.75818445552E+02  0.18891539680E+03  0.86901895471E+02 0.  0.
        -13    1    4    4    0    0  0.10205657940E+02 -0.96240968304E+02  0.55196428447E+02  0.11141420532E+03  0.00000000000E+00 0. -1.
         13    1    4    4    0    0 -0.59646244021E+02 -0.44983248717E+02  0.20622017105E+02  0.77501191477E+02  0.00000000000E+00 0.  1.
        -13    1    3    3    0    0  0.11614691996E+02  0.39341090464E+02 -0.22267756132E+03  0.22642420097E+03  0.00000000000E+00 0.  1.
         13    1    3    3    0    0  0.75235310457E+02  0.90521060915E+02 -0.17740976624E+03  0.21290523612E+03  0.00000000000E+00 0. -1.
         -3    1    1    2    0  502 -0.37409416372E+02  0.11362065642E+02  0.73144639114E+02  0.82937923775E+02  0.00000000000E+00 0.  1.
<scales pt_clust_5="13000.00000" pt_clust_6="13000.00000" pt_clust_7="13000.00000" pt_clust_8="13000.00000" pt_clust_9="39.09682"></scales>
<clustering>
<clus scale="   39.097">  1  9  2 -1</clus>
<clus scale="   86.902">  5  6 -1 -1</clus>
<clus scale="   92.376">  7  8 -1 -1</clus>
<clus scale="  177.557">  1  5  2 -1</clus>
<clus scale="   39.097">  1  5  2 -1</clus>
</clustering>
</event>
<event>
 9    1  0.1464797E-005  0.1080145E+03  0.7546771E-02  0.1265867E+00
         21   -1    0    0  501  502  0.00000000000E+00  0.00000000000E+00  0.30337241742E+02  0.30337241742E+02  0.00000000000E+00 0.  1.
          1   -1    0    0  502    0 -0.00000000000E+00 -0.00000000000E+00 -0.70976582532E+03  0.70976582532E+03  0.00000000000E+00 0. -1.
         23    2    1    2    0    0 -0.42342045941E+02  0.29831576724E+02 -0.29478516123E+03  0.31246976112E+03  0.89756829873E+02 0.  0.
         23    2    1    2    0    0  0.68197571569E+02  0.26019930800E+02 -0.30289142419E+03  0.32530399294E+03  0.93549598625E+02 0.  0.
        -13    1    4    4    0    0 -0.77241079042E+01 -0.25207660912E+02 -0.53909651937E+02  0.60011153826E+02  0.00000000000E+00 0. -1.
         13    1    4    4    0    0  0.75921679473E+02  0.51227591712E+02 -0.24898177226E+03  0.26529283911E+03  0.00000000000E+00 0.  1.
        -13    1    3    3    0    0 -0.56639092339E+02 -0.10792577343E+02 -0.20393006999E+03  0.21192437320E+03  0.00000000000E+00 0. -1.
         13    1    3    3    0    0  0.14297046398E+02  0.40624154067E+02 -0.90855091237E+02  0.10054538793E+03  0.00000000000E+00 0.  1.
          1    1    1    2  501    0 -0.25855525628E+02 -0.55851507524E+02 -0.81751998153E+02  0.10232931301E+03  0.00000000000E+00 0. -1.
<scales pt_clust_5="13000.00000" pt_clust_6="13000.00000" pt_clust_7="13000.00000" pt_clust_8="13000.00000" pt_clust_9="61.54591"></scales>
<clustering>
<clus scale="   61.546">  1  9  2 -1</clus>
<clus scale="   89.757">  7  8 -1 -1</clus>
<clus scale="   93.550">  5  6 -1 -1</clus>
<clus scale="  104.747">  2  7  1 -1</clus>
<clus scale="   61.546">  1  5  2 -1</clus>
</clustering>
</event>
<event>
 9    1  0.1464797E-005  0.9821512E+02  0.7546771E-02  0.1286904E+00
         21   -1    0    0  501  502  0.00000000000E+00  0.00000000000E+00  0.26228391995E+03  0.26228391995E+03  0.00000000000E+00 0. -1.
          1   -1    0    0  502    0 -0.00000000000E+00 -0.00000000000E+00 -0.52889138482E+03  0.52889138482E+03  0.00000000000E+00 0. -1.
         23    2    1    2    0    0  0.20473402551E+02  0.14080818962E+02 -0.23052539189E+03  0.24658682757E+03  0.83938534350E+02 0.  0.
         23    2    1    2    0    0 -0.62395352850E+02 -0.76889366308E+01 -0.27812065975E+03  0.29886305410E+03  0.89530575374E+02 0.  0.
        -11    1    3    3    0    0  0.40345500107E+01  0.48614807377E+02 -0.14224924042E+03  0.15038126043E+03  0.00000000000E+00 0.  1.
         11    1    3    3    0    0  0.16438852541E+02 -0.34533988415E+02 -0.88276151470E+02  0.96205567132E+02  0.00000000000E+00 0. -1.
        -13    1    4    4    0    0  0.21703187174E+02  0.59452805918E+01 -0.39106626864E+02  0.45118765048E+02  0.00000000000E+00 0.  1.
         13    1    4    4    0    0 -0.84098540024E+02 -0.13634217223E+02 -0.23901403288E+03  0.25374428906E+03  0.00000000000E+00 0. -1.
          1    1    1    2  501    0  0.41921950299E+02 -0.63918823313E+01  0.24203858676E+03  0.24572542310E+03  0.00000000000E+00 0. -1.
<scales pt_clust_5="13000.00000" pt_clust_6="13000.00000" pt_clust_7="13000.00000" pt_clust_8="13000.00000" pt_clust_9="42.40644"></scales>
<clustering>
<clus scale="   42.406">  1  9  2 -1</clus>
<clus scale="   83.939">  5  6 -1 -1</clus>
<clus scale="   89.531">  7  8 -1 -1</clus>
<clus scale="   93.146">  2  5  1 -1</clus>
<clus scale="   42.406">  1  5  2 -1</clus>
</clustering>
</event>
<event>
 9    1  0.1464797E-005  0.1294970E+03  0.7546771E-02  0.1250957E+00
         21   -1    0    0  501  502  0.00000000000E+00  0.00000000000E+00  0.21459186917E+03  0.21459186917E+03  0.00000000000E+00 0.  1.
         -1   -1    0    0    0  501 -0.00000000000E+00 -0.00000000000E+00 -0.12961484566E+03  0.12961484566E+03  0.00000000000E+00 0.  1.
         23    2    1    2    0    0 -0.31587621557E+02  0.12858759742E+02 -0.87727032040E-01  0.81548270547E+02  0.74074200606E+02 0.  0.
         23    2    1    2    0    0  0.10368055818E+03 -0.52808304785E+02  0.78030136409E+01  0.14968617490E+03  0.93843959498E+02 0.  0.
        -11    1    3    3    0    0 -0.15130010600E+02  0.43879222990E+02  0.79634418633E+00  0.46421305400E+02  0.00000000000E+00 0.  1.
         11    1    3    3    0    0 -0.16457610956E+02 -0.31020463248E+02 -0.88407121837E+00  0.35126965147E+02  0.00000000000E+00 0. -1.
        -11    1    4    4    0    0  0.73131649881E+02 -0.41407995629E+02 -0.38996470533E+02  0.92647639097E+02  0.00000000000E+00 0.  1.
         11    1    4    4    0    0  0.30548908302E+02 -0.11400309156E+02  0.46799484174E+02  0.57038535801E+02  0.00000000000E+00 0. -1.
         -1    1    1    2    0  502 -0.72092936626E+02  0.39949545044E+02  0.77261736903E+02  0.11297226938E+03  0.00000000000E+00 0.  1.
<scales pt_clust_5="13000.00000" pt_clust_6="13000.00000" pt_clust_7="13000.00000" pt_clust_8="13000.00000" pt_clust_9="89.23448"></scales>
<clustering>
<clus scale="   74.074">  5  6 -1 -1</clus>
<clus scale="   81.548">  2  5  1 -1</clus>
<clus scale="   89.234">  1  9  2 -1</clus>
<clus scale="   93.844">  7  8 -1 -1</clus>
<clus scale="   89.234">  1  5  2 -1</clus>
</clustering>
</event>
<event>
 9    1  0.1807836E-005  0.1208956E+03  0.7546771E-02  0.1242091E+00
          2   -1    0    0  502    0 -0.00000000000E+00  0.00000000000E+00  0.43697663820E+03  0.43697663820E+03  0.00000000000E+00 0. -1.
         21   -1    0    0  501  502  0.00000000000E+00 -0.00000000000E+00 -0.17517355066E+03  0.17517355066E+03  0.00000000000E+00 0. -1.
         23    2    1    2    0    0 -0.55229842272E+02 -0.69364097841E+02  0.32780810087E+03  0.35202492863E+03  0.92745273921E+02 0.  0.
         23    2    1    2    0    0 -0.11980434250E+02  0.62502276465E+02  0.53029916403E+02  0.12325444392E+03  0.91265659167E+02 0.  0.
        -11    1    3    3    0    0 -0.16758309994E+02 -0.82277518593E+02  0.25751719175E+03  0.27086073002E+03  0.00000000000E+00 0. -1.
         11    1    3    3    0    0 -0.38471532278E+02  0.12913420752E+02  0.70290909124E+02  0.81164198615E+02  0.00000000000E+00 0.  1.
        -13    1    4    4    0    0  0.24089524492E+02 -0.12898184751E+02  0.17388509270E+02  0.32388711224E+02  0.00000000000E+00 0.  1.
         13    1    4    4    0    0 -0.36069958741E+02  0.75400461216E+02  0.35641407133E+02  0.90865732692E+02  0.00000000000E+00 0. -1.
          2    1    1    2  501    0  0.67210276522E+02  0.68618213759E+01 -0.11903492973E+03  0.13687081632E+03  0.00000000000E+00 0. -1.
<scales pt_clust_5="13000.00000" pt_clust_6="13000.00000" pt_clust_7="13000.00000" pt_clust_8="13000.00000" pt_clust_9="67.55965"></scales>
<clustering>
<clus scale="   67.560">  2  9  1 -1</clus>
<clus scale="   91.266">  7  8 -1 -1</clus>
<clus scale="   92.745">  5  6 -1 -1</clus>
<clus scale="  119.764">  2  7  1 -1</clus>
<clus scale="   67.560">  2  5  1 -1</clus>
</clustering>
</event>
<event>
 9    1  0.1464797E-005  0.9455487E+02  0.7546771E-02  0.1293273E+00
          1   -1    0    0  502    0 -0.00000000000E+00  0.00000000000E+00  0.53148410288E+03  0.53148410288E+03  0.00000000000E+00 0. -1.
         21   -1    0    0  501  502  0.00000000000E+00 -0.00000000000E+00 -0.12354937325E+03  0.12354937325E+03  0.00000000000E+00 0. -1.
         23    2    1    2    0    0 -0.52169185735E+01  0.35732880182E+02  0.31674219390E+03  0.33131454141E+03  0.90220025405E+02 0.  0.
         23    2    1    2    0    0 -0.22869321403E+02  0.35101275966E+01  0.19073285574E+03  0.21309739141E+03  0.92174557836E+02 0.  0.
        -11    1    4    4    0    0  0.29922582201E+02  0.23346386835E+02  0.64459296603E+02  0.74802510803E+02  0.00000000000E+00 0.  1.
         11    1    4    4    0    0 -0.52791903604E+02 -0.19836259238E+02  0.12627355914E+03  0.13829488061E+03  0.00000000000E+00 0. -1.
        -11    1    3    3    0    0 -0.33640037553E+02 -0.13977660457E+02  0.16859588655E+03  0.17248652144E+03  0.00000000000E+00 0. -1.
         11    1    3    3    0    0  0.28423118979E+02  0.49710540639E+02  0.14814630735E+03  0.15882801996E+03  0.00000000000E+00 0.  1.
          1    1    1    2  501    0  0.28086239977E+02 -0.39243007779E+02 -0.99540320008E+02  0.11062154330E+03  0.00000000000E+00 0. -1.
<scales pt_clust_5="13000.00000" pt_clust_6="13000.00000" pt_clust_7="13000.00000" pt_clust_8="13000.00000" pt_clust_9="48.25817"></scales>
<clustering>
<clus scale="   48.258">  2  9  1 -1</clus>
<clus scale="   90.220">  7  8 -1 -1</clus>
<clus scale="   92.175">  5  6 -1 -1</clus>
<clus scale="   92.651">  1  7  2 -1</clus>
<clus scale="   48.258">  2  5  1 -1</clus>
</clustering>
</event>
<event>
 9    1  0.1464797E-005  0.9463312E+02  0.7546771E-02  0.1301093E+00
          1   -1    0    0  502    0 -0.00000000000E+00  0.00000000000E+00  0.37204254360E+03  0.37204254360E+03  0.00000000000E+00 0. -1.
         21   -1    0    0  501  502  0.00000000000E+00 -0.00000000000E+00 -0.38134949715E+02  0.38134949715E+02  0.00000000000E+00 0. -1.
         23    2    1    2    0    0  0.86311217624E+01  0.24614549752E+01  0.27517779800E+03  0.29094199252E+03  0.94041838972E+02 0.  0.
         23    2    1    2    0    0 -0.38798065066E+01 -0.23006791656E+02  0.45167215427E+02  0.94163016976E+02  0.79260526466E+02 0.  0.
        -13    1    3    3    0    0  0.34998373316E+02  0.24035035472E+02  0.23244642708E+03  0.23629200267E+03  0.00000000000E+00 0. -1.
         13    1    3    3    0    0 -0.26367251553E+02 -0.21573580497E+02  0.42731370924E+02  0.54649989854E+02  0.00000000000E+00 0.  1.
        -13    1    4    4    0    0  0.37555082916E+02 -0.70400214689E+01  0.20191250044E+02  0.43216116594E+02  0.00000000000E+00 0. -1.
         13    1    4    4    0    0 -0.41434889423E+02 -0.15966770187E+02  0.24975965383E+02  0.50946900382E+02  0.00000000000E+00 0.  1.
          1    1    1    2  501    0 -0.47513152558E+01  0.20545336681E+02  0.13562580452E+02  0.25072483812E+02  0.00000000000E+00 0. -1.
<scales pt_clust_5="13000.00000" pt_clust_6="13000.00000" pt_clust_7="13000.00000" pt_clust_8="13000.00000" pt_clust_9="21.08758"></scales>
<clustering>
<clus scale="   21.088">  2  9  1 -1</clus>
<clus scale="   79.261">  7  8 -1 -1</clus>
<clus scale="   79.961">  2  7  1 -1</clus>
<clus scale="   94.042">  5  6 -1 -1</clus>
<clus scale="   21.088">  2  5  1 -1</clus>
</clustering>
</event>
<event>
 9    1  0.1464797E-005  0.1249769E+03  0.7546771E-02  0.1244960E+00
         21   -1    0    0  501  502  0.00000000000E+00  0.00000000000E+00  0.40704748945E+02  0.40704748945E+02  0.00000000000E+00 0. -1.
          1   -1    0    0  502    0 -0.00000000000E+00 -0.00000000000E+00 -0.72087982748E+03  0.72087982748E+03  0.00000000000E+00 0. -1.
         23    2    1    2    0    0  0.31709118127E+02 -0.21061324795E+02 -0.18846930500E+03  0.21444728253E+03  0.94962679409E+02 0.  0.
         23    2    1    2    0    0  0.63439386400E+02 -0.37275225963E+02 -0.16387045109E+03  0.20082473318E+03  0.89794490365E+02 0.  0.
        -11    1    4    4    0    0  0.21487119992E+02  0.74540571062E+01 -0.12752824885E+03  0.12954039350E+03  0.00000000000E+00 0. -1.
         11    1    4    4    0    0  0.41952266408E+02 -0.44729283069E+02 -0.36342202242E+02  0.71284339686E+02  0.00000000000E+00 0.  1.
        -13    1    3    3    0    0  0.29279537885E+02 -0.50731040186E+02 -0.16903535837E+03  0.17889628882E+03  0.00000000000E+00 0. -1.
         13    1    3    3    0    0  0.24295802423E+01  0.29669715390E+02 -0.19433946639E+02  0.35550993706E+02  0.00000000000E+00 0.  1.
          1    1    1    2  501    0 -0.95148504527E+02  0.58336550758E+02 -0.32783532244E+03  0.34631256072E+03  0.00000000000E+00 0. -1.
<scales pt_clust_5="13000.00000" pt_clust_6="13000.00000" pt_clust_7="13000.00000" pt_clust_8="13000.00000" pt_clust_9="86.92631"></scales>
<clustering>
<clus scale="   89.794">  5  6 -1 -1</clus>
<clus scale="   94.963">  7  8 -1 -1</clus>
<clus scale="  102.308">  2  7  1 -1</clus>
<clus scale="   86.926">  1  9  2 -1</clus>
<clus scale="   86.926">  1  5  2 -1</clus>
</clustering>
</event>
<event>
 9    1  0.1464797E-005  0.1389784E+03  0.7546771E-02  0.1233309E+00
         -3   -1    0    0    0  501 -0.00000000000E+00  0.00000000000E+00  0.25688604778E+03  0.25688604778E+03  0.00000000000E+00 0.  1.
         21   -1    0    0  501  502  0.00000000000E+00 -0.00000000000E+00 -0.21043807704E+03  0.21043807704E+03  0.00000000000E+00 0.  1.
         23    2    1    2    0    0 -0.91661906787E+01 -0.25100995537E+02  0.12521655434E+03  0.15674823290E+03  0.90425350472E+02 0.  0.
         23    2    1    2    0    0  0.56611302076E+02 -0.72424390839E+02  0.53341734362E+02  0.13965083319E+03  0.90591846630E+02 0.  0.
        -11    1    4    4    0    0  0.49481470793E+02  0.10497582810E+01  0.16271316770E+01  0.49519344723E+02  0.00000000000E+00 0.  1.
         11    1    4    4    0    0  0.71298312827E+01 -0.73474149120E+02  0.51714602685E+02  0.90131488470E+02  0.00000000000E+00 0. -1.
        -13    1    3    3    0    0 -0.75831825843E+00  0.25480570418E+02  0.48963934404E+01  0.25957834735E+02  0.00000000000E+00 0. -1.
         13    1    3    3    0    0 -0.84078724202E+01 -0.50581565955E+02  0.12032016090E+03  0.13079039817E+03  0.00000000000E+00 0.  1.
         -3    1    1    2    0  502 -0.47445111397E+02  0.97525386376E+02 -0.13211031797E+03  0.17092505872E+03  0.00000000000E+00 0.  1.
<scales pt_clust_5="13000.00000" pt_clust_6="13000.00000" pt_clust_7="13000.00000" pt_clust_8="13000.00000" pt_clust_9="105.39497"></scales>
<clustering>
<clus scale="   90.425">  7  8 -1 -1</clus>
<clus scale="   90.592">  5  6 -1 -1</clus>
<clus scale="   94.291">  1  7  2 -1</clus>
<clus scale="  105.395">  2  9  1 -1</clus>
<clus scale="  105.395">  2  5  1 -1</clus>
</clustering>
</event>
<event>
 9    1  0.1464797E-005  0.9184129E+02  0.7546771E-02  0.1298665E+00
          1   -1    0    0  502    0 -0.00000000000E+00  0.00000000000E+00  0.15170388356E+03  0.15170388356E+03  0.00000000000E+00 0. -1.
         21   -1    0    0  501  502  0.00000000000E+00 -0.00000000000E+00 -0.13357649545E+03  0.13357649545E+03  0.00000000000E+00 0. -1.
         23    2    1    2    0    0  0.15851093867E+02  0.47078826099E+01  0.96337858944E+02  0.13336218357E+03  0.90725231360E+02 0.  0.
         23    2    1    2    0    0  0.45355119032E+01 -0.19731788918E+01 -0.24575850594E+02  0.94474616277E+02  0.91087959606E+02 0.  0.
        -11    1    4    4    0    0 -0.42188536781E+02 -0.11077693295E+02 -0.11930870759E+02  0.45220942069E+02  0.00000000000E+00 0.  1.
         11    1    4    4    0    0  0.46724048685E+02  0.91045144035E+01 -0.12644979835E+02  0.49253674209E+02  0.00000000000E+00 0. -1.
        -11    1    3    3    0    0  0.20476215423E+02  0.38828515068E+02  0.87375159525E+02  0.97782142963E+02  0.00000000000E+00 0.  1.
         11    1    3    3    0    0 -0.46251215559E+01 -0.34120632458E+02  0.89626994182E+01  0.35580040607E+02  0.00000000000E+00 0. -1.
          1    1    1    2  501    0 -0.20386605770E+02 -0.27347037181E+01 -0.53634620236E+02  0.57443579163E+02  0.00000000000E+00 0. -1.
<scales pt_clust_5="13000.00000" pt_clust_6="13000.00000" pt_clust_7="13000.00000" pt_clust_8="13000.00000" pt_clust_9="20.56921"></scales>
<clustering>
<clus scale="   20.569">  2  9  1 -1</clus>
<clus scale="   90.725">  7  8 -1 -1</clus>
<clus scale="   91.088">  5  6 -1 -1</clus>
<clus scale="   91.482">  1  7  2 -1</clus>
<clus scale="   20.569">  2  5  1 -1</clus>
</clustering>
</event>
<event>
 9    1  0.1464797E-005  0.1005921E+03  0.7546771E-02  0.1283612E+00
         21   -1    0    0  501  502  0.00000000000E+00  0.00000000000E+00  0.19152426965E+03  0.19152426965E+03  0.00000000000E+00 0.  1.
          1   -1    0    0  502    0 -0.00000000000E+00 -0.00000000000E+00 -0.28154796836E+03  0.28154796836E+03  0.00000000000E+00 0. -1.
         23    2    1    2    0    0 -0.12925691592E+02 -0.30670517721E+02 -0.24085871515E+03  0.25771956540E+03  0.85432426895E+02 0.  0.
         23    2    1    2    0    0  0.41575526551E+02  0.40246313701E+02  0.74981424587E+02  0.13370540500E+03  0.94374949631E+02 0.  0.
        -11    1    3    3    0    0 -0.25628987423E+02 -0.50521680226E+02 -0.21664701585E+03  0.22393127215E+03  0.00000000000E+00 0. -1.
         11    1    3    3    0    0  0.12703295831E+02  0.19851162505E+02 -0.24211699298E+02  0.33788293249E+02  0.00000000000E+00 0.  1.
        -11    1    4    4    0    0  0.20600637475E+02  0.93435255711E+01  0.90482836388E+02  0.93267526049E+02  0.00000000000E+00 0.  1.
         11    1    4    4    0    0  0.20974889076E+02  0.30902788130E+02 -0.15501411802E+02  0.40437878948E+02  0.00000000000E+00 0. -1.
          1    1    1    2  501    0 -0.28649834959E+02 -0.95757959796E+01  0.75853591853E+02  0.81647267614E+02  0.00000000000E+00 0. -1.
<scales pt_clust_5="13000.00000" pt_clust_6="13000.00000" pt_clust_7="13000.00000" pt_clust_8="13000.00000" pt_clust_9="30.20776"></scales>
<clustering>
<clus scale="   30.208">  1  9  2 -1</clus>
<clus scale="   85.432">  5  6 -1 -1</clus>
<clus scale="   92.254">  2  5  1 -1</clus>
<clus scale="   94.375">  7  8 -1 -1</clus>
<clus scale="   30.208">  1  5  2 -1</clus>
</clustering>
</event>
<event>
 9    1  0.1464797E-005  0.2334601E+03  0.7546771E-02  0.1124258E+00
         21   -1    0    0  501  502  0.00000000000E+00  0.00000000000E+00  0.19137832887E+03  0.19137832887E+03  0.00000000000E+00 0. -1.
          3   -1    0    0  502    0 -0.00000000000E+00 -0.00000000000E+00 -0.49632197662E+03  0.49632197662E+03  0.00000000000E+00 0. -1.
         23    2    1    2    0    0 -0.20404801535E+03  0.63935247837E+02 -0.32970154416E+03  0.40352232010E+03  0.91672493782E+02 0.  0.
         23    2    1    2    0    0  0.19501678268E+03 -0.99848358475E+02 -0.33447043945E+01  0.23769066615E+03  0.92110941315E+02 0.  0.
        -11    1    3    3    0    0 -0.13028924335E+03  0.85455208633E+02 -0.21959100604E+03  0.26925469271E+03  0.00000000000E+00 0.  1.
         11    1    3    3    0    0 -0.73758772001E+02 -0.21519960796E+02 -0.11011053812E+03  0.13426762739E+03  0.00000000000E+00 0. -1.
        -11    1    4    4    0    0  0.15033032299E+03 -0.94744673428E+02 -0.37011171508E+02  0.18150918977E+03  0.00000000000E+00 0. -1.
         11    1    4    4    0    0  0.44686459683E+02 -0.51036850476E+01  0.33666467113E+02  0.56181476378E+02  0.00000000000E+00 0.  1.
          3    1    1    2  501    0  0.90312326723E+01  0.35913110638E+02  0.28102600795E+02  0.46487319246E+02  0.00000000000E+00 0. -1.
<scales pt_clust_5="13000.00000" pt_clust_6="13000.00000" pt_clust_7="13000.00000" pt_clust_8="13000.00000" pt_clust_9="37.03127"></scales>
<clustering>
<clus scale="   37.031">  1  9  2 -1</clus>
<clus scale="   91.672">  5  6 -1 -1</clus>
<clus scale="   92.111">  7  8 -1 -1</clus>
<clus scale="  233.287">  2  5  1 -1</clus>
<clus scale="   37.031">  1  5  2 -1</clus>
</clustering>
</event>
<event>
 9    1  0.1464797E-005  0.1443718E+03  0.7546771E-02  0.1208576E+00
         -2   -1    0    0    0  501 -0.00000000000E+00  0.00000000000E+00  0.19059259000E+03  0.19059259000E+03  0.00000000000E+00 0.  1.
         21   -1    0    0  501  502  0.00000000000E+00 -0.00000000000E+00 -0.14990939896E+03  0.14990939896E+03  0.00000000000E+00 0. -1.
         23    2    1    2    0    0 -0.95741830374E+02  0.48343225504E+02  0.83705975719E+01  0.14103805701E+03  0.91203624305E+02 0.  0.
         23    2    1    2    0    0  0.11914673032E+03 -0.16964750751E+02 -0.10184712961E+01  0.14805033552E+03  0.86221334072E+02 0.  0.
        -11    1    4    4    0    0  0.29623405576E+02 -0.59715998237E+01 -0.39714371001E+02  0.49904282646E+02  0.00000000000E+00 0. -1.
         11    1    4    4    0    0  0.89523324742E+02 -0.10993150928E+02  0.38695899705E+02  0.98146052871E+02  0.00000000000E+00 0.  1.
        -13    1    3    3    0    0 -0.18638797899E+02  0.56995301757E+02 -0.11242848937E+02  0.61010416010E+02  0.00000000000E+00 0.  1.
         13    1    3    3    0    0 -0.77103032475E+02 -0.86520762527E+01  0.19613446509E+02  0.80027641002E+02  0.00000000000E+00 0. -1.
         -2    1    1    2    0  502 -0.23404899944E+02 -0.31378474753E+02  0.33331064768E+02  0.51413596429E+02  0.00000000000E+00 0.  1.
<scales pt_clust_5="13000.00000" pt_clust_6="13000.00000" pt_clust_7="13000.00000" pt_clust_8="13000.00000" pt_clust_9="39.14588"></scales>
<clustering>
<clus scale="   39.146">  2  9  1 -1</clus>
<clus scale="   86.221">  5  6 -1 -1</clus>
<clus scale="   91.204">  7  8 -1 -1</clus>
<clus scale="  141.277">  2  5  1 -1</clus>
<clus scale="   39.146">  2  5  1 -1</clus>
</clustering>
</event>
<event>
 9    1  0.1464797E-005  0.1107036E+03  0.7546771E-02  0.1259909E+00
         21   -1    0    0  501  502  0.00000000000E+00  0.00000000000E+00  0.52535274149E+02  0.52535274149E+02  0.00000000000E+00 0. -1.
         -3   -1    0    0    0  501 -0.00000000000E+00 -0.00000000000E+00 -0.28563884827E+03  0.28563884827E+03  0.00000000000E+00 0.  1.
         23    2    1    2    0    0 -0.84006483927E+01 -0.52518040546E+02 -0.88145160377E+02  0.13788411307E+03  0.91726462170E+02 0.  0.
         23    2    1    2    0    0 -0.74098505211E+00  0.71252626257E+02 -0.10688728057E+03  0.15688533973E+03  0.90059054331E+02 0.  0.
        -11    1    3    3    0    0 -0.16807282354E+02 -0.24896484171E+02  0.12976228514E+02  0.32721585699E+02  0.00000000000E+00 0. -1.
         11    1    3    3    0    0  0.84066339613E+01 -0.27621556375E+02 -0.10112138889E+03  0.10516252737E+03  0.00000000000E+00 0.  1.
        -13    1    4    4    0    0 -0.37162331948E+02  0.20979450243E+02 -0.76887843448E+02  0.87937004261E+02  0.00000000000E+00 0. -1.
         13    1    4    4    0    0  0.36421346896E+02  0.50273176014E+02 -0.29999437121E+02  0.68948335468E+02  0.00000000000E+00 0.  1.
         -3    1    1    2    0  502  0.91416334448E+01 -0.18734585710E+02 -0.38071133173E+02  0.43404669620E+02  0.00000000000E+00 0.  1.
<scales pt_clust_5="13000.00000" pt_clust_6="13000.00000" pt_clust_7="13000.00000" pt_clust_8="13000.00000" pt_clust_9="20.84597"></scales>
<clustering>
<clus scale="   20.846">  1  9  2 -1</clus>
<clus scale="   90.059">  7  8 -1 -1</clus>
<clus scale="   91.726">  5  6 -1 -1</clus>
<clus scale="  109.326">  1  7  2 -1</clus>
<clus scale="   20.846">  1  5  2 -1</clus>
</clustering>
</event>
<event>
 9    1  0.1464797E-005  0.9942632E+02  0.7546771E-02  0.1281678E+00
         21   -1    0    0  501  502  0.00000000000E+00  0.00000000000E+00  0.92147642854E+02  0.92147642854E+02  0.00000000000E+00 0. -1.
          1   -1    0    0  502    0 -0.00000000000E+00 -0.00000000000E+00 -0.44212984105E+03  0.44212984105E+03  0.00000000000E+00 0. -1.
         23    2    1    2    0    0 -0.68584806299E+01 -0.29436810040E+02 -0.20648763362E+03  0.22765600668E+03  0.90975546149E+02 0.  0.
         23    2    1    2    0    0  0.36382091965E+02  0.40742914579E+02 -0.20879194521E+03  0.23407342732E+03  0.90623679512E+02 0.  0.
        -11    1    3    3    0    0  0.42139708859E+02 -0.13047528282E+02 -0.90335296854E+02  0.10053088538E+03  0.00000000000E+00 0. -1.
         11    1    3    3    0    0 -0.48998189489E+02 -0.16389281758E+02 -0.11615233677E+03  0.12712512130E+03  0.00000000000E+00 0.  1.
        -13    1    4    4    0    0  0.63441937703E+02  0.21456685725E+02 -0.10027937658E+03  0.12058699013E+03  0.00000000000E+00 0. -1.
         13    1    4    4    0    0 -0.27059845738E+02  0.19286228853E+02 -0.10851256863E+03  0.11348643719E+03  0.00000000000E+00 0.  1.
          1    1    1    2  501    0 -0.29523611335E+02 -0.11306104539E+02  0.65297380640E+02  0.72548049902E+02  0.00000000000E+00 0. -1.
<scales pt_clust_5="13000.00000" pt_clust_6="13000.00000" pt_clust_7="13000.00000" pt_clust_8="13000.00000" pt_clust_9="31.61442"></scales>
<clustering>
<clus scale="   31.614">  1  9  2 -1</clus>
<clus scale="   90.624">  7  8 -1 -1</clus>
<clus scale="   90.976">  5  6 -1 -1</clus>
<clus scale="   99.104">  1  7  2 -1</clus>
<clus scale="   31.614">  1  5  2 -1</clus>
</clustering>
</event>
<event>
 9    1  0.1464797E-005  0.1008594E+03  0.7546771E-02  0.1279316E+00
         21   -1    0    0  501  502  0.00000000000E+00  0.00000000000E+00  0.10232024582E+03  0.10232024582E+03  0.00000000000E+00 0.  1.
          3   -1    0    0  502    0 -0.00000000000E+00 -0.00000000000E+00 -0.14172638722E+03  0.14172638722E+03  0.00000000000E+00 0. -1.
         23    2    1    2    0    0 -0.28356460543E+02 -0.20804074780E+02 -0.36786515247E+02  0.10151698252E+03  0.87838212950E+02 0.  0.
         23    2    1    2    0    0  0.47107873765E+02  0.40602141567E+02 -0.19017421946E+02  0.11071036937E+03  0.89595970207E+02 0.  0.
        -11    1    3    3    0    0  0.12337942665E+02 -0.39325410710E+02  0.34595104407E+01  0.41360379220E+02  0.00000000000E+00 0.  1.
         11    1    3    3    0    0 -0.40694403208E+02  0.18521335930E+02 -0.40246025688E+02  0.60156603301E+02  0.00000000000E+00 0. -1.
        -13    1    4    4    0    0  0.45499323239E+02 -0.16625803480E+02  0.48499354870E+01  0.48683956606E+02  0.00000000000E+00 0.  1.
         13    1    4    4    0    0  0.16085505266E+01  0.57227945048E+02 -0.23867357433E+02  0.62026412761E+02  0.00000000000E+00 0. -1.
          3    1    1    2  501    0 -0.18751413223E+02 -0.19798066788E+02  0.16397795790E+02  0.31819281154E+02  0.00000000000E+00 0. -1.
<scales pt_clust_5="13000.00000" pt_clust_6="13000.00000" pt_clust_7="13000.00000" pt_clust_8="13000.00000" pt_clust_9="27.26864"></scales>
<clustering>
<clus scale="   27.269">  1  9  2 -1</clus>
<clus scale="   87.838">  5  6 -1 -1</clus>
<clus scale="   89.596">  7  8 -1 -1</clus>
<clus scale="   99.301">  2  5  1 -1</clus>
<clus scale="   27.269">  1  5  2 -1</clus>
</clustering>
</event>
<event>
 9    1  0.1464797E-005  0.1519758E+03  0.7546771E-02  0.1198161E+00
          1   -1    0    0  502    0 -0.00000000000E+00  0.00000000000E+00  0.26567623475E+03  0.26567623475E+03  0.00000000000E+00 0. -1.
         21   -1    0    0  501  502  0.00000000000E+00 -0.00000000000E+00 -0.24941115198E+03  0.24941115198E+03  0.00000000000E+00 0. -1.
         23    2    1    2    0    0 -0.12855027789E+03  0.98418893538E+01  0.87459326089E+02  0.17963084015E+03  0.89420737427E+02 0.  0.
         23    2    1    2    0    0  0.94648911886E+02  0.12680317667E+03 -0.11011563613E+02  0.18234504596E+03  0.89949981206E+02 0.  0.
        -11    1    3    3    0    0 -0.33370829993E+02  0.38291485975E+02  0.55598325636E+02  0.75306201645E+02  0.00000000000E+00 0. -1.
         11    1    3    3    0    0 -0.95179447894E+02 -0.28449596621E+02  0.31861000453E+02  0.10432463850E+03  0.00000000000E+00 0.  1.
        -13    1    4    4    0    0  0.21426802220E+02 -0.11452670232E+02 -0.89238139377E+01  0.25882541684E+02  0.00000000000E+00 0.  1.
         13    1    4    4    0    0  0.73222109666E+02  0.13825584690E+03 -0.20877496753E+01  0.15646250428E+03  0.00000000000E+00 0. -1.
          1    1    1    2  501    0  0.33901366001E+02 -0.13664506602E+03 -0.60182679707E+02  0.15311150062E+03  0.00000000000E+00 0. -1.
<scales pt_clust_5="13000.00000" pt_clust_6="13000.00000" pt_clust_7="13000.00000" pt_clust_8="13000.00000" pt_clust_9="140.78770"></scales>
<clustering>
<clus scale="   89.421">  5  6 -1 -1</clus>
<clus scale="   89.950">  7  8 -1 -1</clus>
<clus scale="  140.788">  2  9  1 -1</clus>
<clus scale="  151.663">  1  5  2 -1</clus>
<clus scale="  140.788">  2  5  1 -1</clus>
</clustering>
</event>
<event>
 9    1  0.1464797E-005  0.1757731E+03  0.7546771E-02  0.1192858E+00
         21   -1    0    0  501  502  0.00000000000E+00  0.00000000000E+00  0.23820957645E+03  0.23820957645E+03  0.00000000000E+00 0. -1.
         -1   -1    0    0    0  501 -0.00000000000E+00 -0.00000000000E+00 -0.51217999774E+03  0.51217999774E+03  0.00000000000E+00 0.  1.
         23    2    1    2    0    0  0.45468370127E+01  0.62972236441E+02 -0.16101603761E+03  0.19505340669E+03  0.90185868103E+02 0.  0.
         23    2    1    2    0    0  0.13314520621E+03  0.33139570532E+01 -0.28353352425E+03  0.32631607795E+03  0.91390891806E+02 0.  0.
        -11    1    4    4    0    0  0.27768747499E+02  0.32604682578E+02 -0.36945199567E+02  0.56560732268E+02  0.00000000000E+00 0.  1.
         11    1    4    4    0    0  0.10537645871E+03 -0.29290725525E+02 -0.24658832469E+03  0.26975534568E+03  0.00000000000E+00 0. -1.
        -13    1    3    3    0    0 -0.29962319303E+02  0.40492857074E+02 -0.14006108639E+03  0.14884394503E+03  0.00000000000E+00 0.  1.
         13    1    3    3    0    0  0.34509156315E+02  0.22479379367E+02 -0.20954951221E+02  0.46209461661E+02  0.00000000000E+00 0. -1.
         -1    1    1    2    0  502 -0.13769204322E+03 -0.66286193495E+02  0.17057914058E+03  0.22902008955E+03  0.00000000000E+00 0.  1.
<scales pt_clust_5="13000.00000" pt_clust_6="13000.00000" pt_clust_7="13000.00000" pt_clust_8="13000.00000" pt_clust_9="150.14624"></scales>
<clustering>
<clus scale="   90.186">  7  8 -1 -1</clus>
<clus scale="   91.391">  5  6 -1 -1</clus>
<clus scale="  110.089">  2  7  1 -1</clus>
<clus scale="  150.146">  1  9  2 -1</clus>
<clus scale="  150.146">  1  5  2 -1</clus>
</clustering>
</event>
<event>
 9    1  0.1464797E-005  0.1011068E+03  0.7546771E-02  0.1281591E+00
          2   -1    0    0  502    0 -0.00000000000E+00  0.00000000000E+00  0.16379791682E+03  0.16379791682E+03  0.00000000000E+00 0. -1.
         21   -1    0    0  501  502  0.00000000000E+00 -0.00000000000E+00 -0.78526583284E+02  0.78526583284E+02  0.00000000000E+00 0.  1.
         23    2    1    2    0    0  0.17069197090E+02 -0.12857678423E+02  0.47118140536E+02  0.11045065433E+03  0.97583556461E+02 0.  0.
         23    2    1    2    0    0 -0.36806485136E+02 -0.16497393916E+01  0.16544908286E+02  0.99209741934E+02  0.90616775027E+02 0.  0.
        -11    1    4    4    0    0 -0.55320560348E+02 -0.30676257412E+02  0.82127598126E+01  0.63787511237E+02  0.00000000000E+00 0.  1.
         11    1    4    4    0    0  0.18514075212E+02  0.29026518021E+02  0.83321484734E+01  0.35422230697E+02  0.00000000000E+00 0. -1.
        -13    1    3    3    0    0 -0.30481200217E+02  0.70044069969E+01 -0.10649000916E+02  0.33038863548E+02  0.00000000000E+00 0.  1.
         13    1    3    3    0    0  0.47550397306E+02 -0.19862085419E+02  0.57767141452E+02  0.77411790786E+02  0.00000000000E+00 0. -1.
          2    1    1    2  501    0  0.19737288046E+02  0.14507417814E+02  0.21608284710E+02  0.32664103833E+02  0.00000000000E+00 0. -1.
<scales pt_clust_5="13000.00000" pt_clust_6="13000.00000" pt_clust_7="13000.00000" pt_clust_8="13000.00000" pt_clust_9="24.49543"></scales>
<clustering>
<clus scale="   24.495">  2  9  1 -1</clus>
<clus scale="   90.617">  5  6 -1 -1</clus>
<clus scale="   94.400">  2  5  1 -1</clus>
<clus scale="   97.584">  7  8 -1 -1</clus>
<clus scale="   24.495">  2  5  1 -1</clus>
</clustering>
</event>
<event>
 9    1  0.1464797E-005  0.1286039E+03  0.7546771E-02  0.1229757E+00
         21   -1    0    0  501  502  0.00000000000E+00  0.00000000000E+00  0.15133549404E+03  0.15133549404E+03  0.00000000000E+00 0.  1.
         -4   -1    0    0    0  501 -0.00000000000E+00 -0.00000000000E+00 -0.43581587589E+03  0.43581587589E+03  0.00000000000E+00 0.  1.
         23    2    1    2    0    0  0.40756719551E+02 -0.69862416264E+02 -0.27681876681E+03  0.30293326877E+03  0.92725769195E+02 0.  0.
         23    2    1    2    0    0 -0.61086506878E+02  0.94280611439E+02 -0.10673153784E+03  0.18017773346E+03  0.91934756477E+02 0.  0.
        -13    1    3    3    0    0  0.58117625904E+01  0.19727808534E+02 -0.95525983768E+02  0.97714771600E+02  0.00000000000E+00 0. -1.
         13    1    3    3    0    0  0.34944956960E+02 -0.89590224798E+02 -0.18129278304E+03  0.20521849717E+03  0.00000000000E+00 0.  1.
        -13    1    4    4    0    0 -0.58608946726E+02  0.70326298101E+02 -0.12134800987E+03  0.15200702728E+03  0.00000000000E+00 0.  1.
         13    1    4    4    0    0 -0.24775601523E+01  0.23954313338E+02  0.14616472038E+02  0.28170706180E+02  0.00000000000E+00 0. -1.
         -4    1    1    2    0  502  0.20329787327E+02 -0.24418195175E+02  0.99069922800E+02  0.10404036770E+03  0.00000000000E+00 0.  1.
<scales pt_clust_5="13000.00000" pt_clust_6="13000.00000" pt_clust_7="13000.00000" pt_clust_8="13000.00000" pt_clust_9="31.77339"></scales>
<clustering>
<clus scale="   31.773">  1  9  2 -1</clus>
<clus scale="   91.935">  7  8 -1 -1</clus>
<clus scale="   92.726">  5  6 -1 -1</clus>
<clus scale="  128.035">  1  7  2 -1</clus>
<clus scale="   31.773">  1  5  2 -1</clus>
</clustering>
</event>
<event>
 9    1  0.1464797E-005  0.1172934E+03  0.7546771E-02  0.1248055E+00
         21   -1    0    0  501  502  0.00000000000E+00  0.00000000000E+00  0.35641676056E+02  0.35641676056E+02  0.00000000000E+00 0.  1.
          1   -1    0    0  502    0 -0.00000000000E+00 -0.00000000000E+00 -0.78612566889E+03  0.78612566889E+03  0.00000000000E+00 0. -1.
         23    2    1    2    0    0 -0.44738746622E+02 -0.28816996514E+02 -0.37275752274E+03  0.38768449665E+03  0.92299097769E+02 0.  0.
         23    2    1    2    0    0  0.92205572062E+02  0.66319568299E+02 -0.31464957526E+03  0.34668583994E+03  0.91030564875E+02 0.  0.
        -13    1    3    3    0    0 -0.97828672593E+01 -0.56457545737E+02 -0.15127116154E+03  0.16175946117E+03  0.00000000000E+00 0.  1.
         13    1    3    3    0    0 -0.34955879363E+02  0.27640549223E+02 -0.22148636120E+03  0.22592503549E+03  0.00000000000E+00 0. -1.
        -13    1    4    4    0    0  0.43829898263E+02 -0.20381617165E+01 -0.39372680393E+02  0.58952710254E+02  0.00000000000E+00 0. -1.
         13    1    4    4    0    0  0.48375673799E+02  0.68357730016E+02 -0.27527689487E+03  0.28773312969E+03  0.00000000000E+00 0.  1.
          1    1    1    2  501    0 -0.47466825440E+02 -0.37502571785E+02 -0.63076894827E+02  0.87397008352E+02  0.00000000000E+00 0. -1.
<scales pt_clust_5="13000.00000" pt_clust_6="13000.00000" pt_clust_7="13000.00000" pt_clust_8="13000.00000" pt_clust_9="60.49415"></scales>
<clustering>
<clus scale="   60.494">  1  9  2 -1</clus>
<clus scale="   91.031">  7  8 -1 -1</clus>
<clus scale="   92.299">  5  6 -1 -1</clus>
<clus scale="  116.298">  1  7  2 -1</clus>
<clus scale="   60.494">  1  5  2 -1</clus>
</clustering>
</event>
<event>
 9    1  0.1464797E-005  0.1120572E+03  0.7546771E-02  0.1257341E+00
         -1   -1    0    0    0  501 -0.00000000000E+00  0.00000000000E+00  0.35663355682E+03  0.35663355682E+03  0.00000000000E+00 0.  1.
         21   -1    0    0  501  502  0.00000000000E+00 -0.00000000000E+00 -0.56682379277E+02  0.56682379277E+02  0.00000000000E+00 0.  1.
         23    2    1    2    0    0 -0.86898662000E+02 -0.12550377981E+02  0.18778473788E+03  0.22595024838E+03  0.89897260913E+02 0.  0.
         23    2    1    2    0    0  0.37227127898E+02  0.20218259707E+01  0.82135070165E+02  0.12837420645E+03  0.91344514332E+02 0.  0.
        -11    1    4    4    0    0  0.42905957637E+02 -0.38357280173E+02  0.53208750532E+02  0.78379673871E+02  0.00000000000E+00 0. -1.
         11    1    4    4    0    0 -0.56788297389E+01  0.40379106143E+02  0.28926319633E+02  0.49994532578E+02  0.00000000000E+00 0.  1.
        -13    1    3    3    0    0 -0.13035539225E+02 -0.42305033944E+02  0.49753652162E+02  0.66596299322E+02  0.00000000000E+00 0. -1.
         13    1    3    3    0    0 -0.73863122775E+02  0.29754655963E+02  0.13803108571E+03  0.15935394906E+03  0.00000000000E+00 0.  1.
         -1    1    1    2    0  502  0.49671534102E+02  0.10528552011E+02  0.30031369497E+02  0.58991481261E+02  0.00000000000E+00 0.  1.
<scales pt_clust_5="13000.00000" pt_clust_6="13000.00000" pt_clust_7="13000.00000" pt_clust_8="13000.00000" pt_clust_9="50.77511"></scales>
<clustering>
<clus scale="   50.775">  2  9  1 -1</clus>
<clus scale="   89.897">  7  8 -1 -1</clus>
<clus scale="   91.345">  5  6 -1 -1</clus>
<clus scale="  110.881">  1  7  2 -1</clus>
<clus scale="   50.775">  2  5  1 -1</clus>
</clustering>
</event>
<event>
 9    1  0.1464797E-005  0.1618576E+03  0.7546771E-02  0.1210223E+00
         21   -1    0    0  501  502  0.00000000000E+00  0.00000000000E+00  0.13510931793E+03  0.13510931793E+03  0.00000000000E+00 0. -1.
          1   -1    0    0  502    0 -0.00000000000E+00 -0.00000000000E+00 -0.52057739515E+03  0.52057739515E+03  0.00000000000E+00 0. -1.
         23    2    1    2    0    0  0.25771061749E+02 -0.13182618492E+02 -0.86740030103E+02  0.12996991271E+03  0.92360252998E+02 0.  0.
         23    2    1    2    0    0 -0.15504716549E+03  0.31193579916E+02 -0.34242000184E+03  0.38807344733E+03  0.91306516254E+02 0.  0.
        -13    1    3    3    0    0  0.55989855634E+02  0.88071926286E+01 -0.66817665991E+02  0.87618668469E+02  0.00000000000E+00 0.  1.
         13    1    3    3    0    0 -0.30218793885E+02 -0.21989811121E+02 -0.19922364113E+02  0.42351244242E+02  0.00000000000E+00 0. -1.
        -13    1    4    4    0    0 -0.64717277042E+01 -0.22744217271E+02 -0.58903006463E+02  0.63472410141E+02  0.00000000000E+00 0.  1.
         13    1    4    4    0    0 -0.14857543778E+03  0.53937797187E+02 -0.28351699538E+03  0.32460103719E+03  0.00000000000E+00 0. -1.
          1    1    1    2  501    0  0.12927610374E+03 -0.18010961424E+02  0.43691954719E+02  0.13764335304E+03  0.00000000000E+00 0. -1.
<scales pt_clust_5="13000.00000" pt_clust_6="13000.00000" pt_clust_7="13000.00000" pt_clust_8="13000.00000" pt_clust_9="133.64511"></scales>
<clustering>
<clus scale="   91.307">  7  8 -1 -1</clus>
<clus scale="   92.360">  5  6 -1 -1</clus>
<clus scale="   96.790">  2  5  1 -1</clus>
<clus scale="  133.645">  1  9  2 -1</clus>
<clus scale="  133.645">  1  5  2 -1</clus>
</clustering>
</event>
<event>
 9    1  0.1464797E-005  0.2733604E+03  0.7546771E-02  0.1099414E+00
          1   -1    0    0  502    0 -0.00000000000E+00  0.00000000000E+00  0.11329090118E+03  0.11329090118E+03  0.00000000000E+00 0. -1.
         21   -1    0    0  501  502  0.00000000000E+00 -0.00000000000E+00 -0.96440254507E+03  0.96440254507E+03  0.00000000000E+00 0.  1.
         23    2    1    2    0    0  0.26949600509E+03  0.18783844515E+02 -0.18263806774E+03  0.33832314320E+03  0.90138537049E+02 0.  0.
         23    2    1    2    0    0 -0.23001293223E+03  0.27754269584E+02 -0.58678106937E+03  0.63739788143E+03  0.91037285842E+02 0.  0.
        -11    1    4    4    0    0 -0.73837752114E+02  0.33395625331E+02 -0.30054438560E+03  0.31127834673E+03  0.00000000000E+00 0. -1.
         11    1    4    4    0    0 -0.15617518012E+03 -0.56413557475E+01 -0.28623668377E+03  0.32611953470E+03  0.00000000000E+00 0.  1.
        -13    1    3    3    0    0  0.20050659578E+03  0.43927314206E+02 -0.10181686136E+03  0.22912698912E+03  0.00000000000E+00 0. -1.
         13    1    3    3    0    0  0.68989409304E+02 -0.25143469692E+02 -0.80821206380E+02  0.10919615408E+03  0.00000000000E+00 0.  1.
          1    1    1    2  501    0 -0.39483072852E+02 -0.46538114098E+02 -0.81692506792E+02  0.10197242162E+03  0.00000000000E+00 0. -1.
<scales pt_clust_5="13000.00000" pt_clust_6="13000.00000" pt_clust_7="13000.00000" pt_clust_8="13000.00000" pt_clust_9="61.03039"></scales>
<clustering>
<clus scale="   61.030">  2  9  1 -1</clus>
<clus scale="   90.139">  7  8 -1 -1</clus>
<clus scale="   91.037">  5  6 -1 -1</clus>
<clus scale="  273.062">  1  7  2 -1</clus>
<clus scale="   61.030">  2  5  1 -1</clus>
</clustering>
</event>
<event>
 9    1  0.1464797E-005  0.3023275E+03  0.7546771E-02  0.1116816E+00
         21   -1    0    0  501  502  0.00000000000E+00  0.00000000000E+00  0.24082896005E+03  0.24082896005E+03  0.00000000000E+00 0.  1.
          2   -1    0    0  502    0 -0.00000000000E+00 -0.00000000000E+00 -0.13934175874E+04  0.13934175874E+04  0.00000000000E+00 0. -1.
         23    2    1    2    0    0 -0.33411344709E+01  0.91015532987E+02 -0.50658466050E+03  0.52284393998E+03  0.91884584648E+02 0.  0.
         23    2    1    2    0    0 -0.28648944771E+03  0.28951290349E+02  0.87992128463E+02  0.31318955759E+03  0.86201528121E+02 0.  0.
        -11    1    4    4    0    0 -0.35049549960E+02 -0.24092467947E+02  0.34722354976E+01  0.42672876439E+02  0.00000000000E+00 0. -1.
         11    1    4    4    0    0 -0.25143989775E+03  0.53043758296E+02  0.84519892966E+02  0.27051668115E+03  0.00000000000E+00 0.  1.
        -11    1    3    3    0    0 -0.40896617686E+02  0.73237046390E+02 -0.27313252395E+03  0.28572289713E+03  0.00000000000E+00 0.  1.
         11    1    3    3    0    0  0.37555483215E+02  0.17778486597E+02 -0.23345213655E+03  0.23712104286E+03  0.00000000000E+00 0. -1.
          2    1    1    2  501    0  0.28983058218E+03 -0.11996682334E+03 -0.73399609534E+03  0.79821304991E+03  0.00000000000E+00 0. -1.
<scales pt_clust_5="13000.00000" pt_clust_6="13000.00000" pt_clust_7="13000.00000" pt_clust_8="13000.00000" pt_clust_9="289.77802"></scales>
<clustering>
<clus scale="   86.202">  5  6 -1 -1</clus>
<clus scale="   91.885">  7  8 -1 -1</clus>
<clus scale="  129.375">  2  7  1 -1</clus>
<clus scale="  289.778">  1  9  2 -1</clus>
<clus scale="  289.778">  1  5  2 -1</clus>
</clustering>
</event>
<event>
 9    1  0.1464797E-005  0.1092908E+03  0.7546771E-02  0.1263643E+00
         21   -1    0    0  501  502  0.00000000000E+00  0.00000000000E+00  0.36199298105E+03  0.36199298105E+03  0.00000000000E+00 0.  1.
         -1   -1    0    0    0  501 -0.00000000000E+00 -0.00000000000E+00 -0.65467082954E+02  0.65467082954E+02  0.00000000000E+00 0.  1.
         23    2    1    2    0    0  0.43357617594E+02 -0.25957000861E+01  0.76924030506E+02  0.12523914095E+03  0.88774519397E+02 0.  0.
         23    2    1    2    0    0 -0.50584136026E+02  0.69844604601E+02  0.88606826052E+02  0.15479521758E+03  0.93130908688E+02 0.  0.
        -13    1    4    4    0    0 -0.82809714104E+01 -0.18943247581E+02 -0.23819102761E+01  0.20810925327E+02  0.00000000000E+00 0. -1.
         13    1    4    4    0    0 -0.42303164616E+02  0.88787852182E+02  0.90988736328E+02  0.13398429225E+03  0.00000000000E+00 0.  1.
        -13    1    3    3    0    0  0.20319961466E+01  0.34563737531E+02  0.56032500720E+02  0.65866699457E+02  0.00000000000E+00 0.  1.
         13    1    3    3    0    0  0.41325621448E+02 -0.37159437617E+02  0.20891529787E+02  0.59372441493E+02  0.00000000000E+00 0. -1.
         -1    1    1    2    0  502  0.72265184318E+01 -0.67248904515E+02  0.13099504154E+03  0.14742570547E+03  0.00000000000E+00 0.  1.
<scales pt_clust_5="13000.00000" pt_clust_6="13000.00000" pt_clust_7="13000.00000" pt_clust_8="13000.00000" pt_clust_9="67.63607"></scales>
<clustering>
<clus scale="   67.636">  1  9  2 -1</clus>
<clus scale="   88.775">  7  8 -1 -1</clus>
<clus scale="   93.131">  5  6 -1 -1</clus>
<clus scale="  105.603">  2  7  1 -1</clus>
<clus scale="   67.636">  1  5  2 -1</clus>
</clustering>
</event>
<event>
 9    1  0.1464797E-005  0.9853031E+02  0.7546771E-02  0.1285657E+00
          2   -1    0    0  502    0 -0.00000000000E+00  0.00000000000E+00  0.37585801227E+03  0.37585801227E+03  0.00000000000E+00 0. -1.
         21   -1    0    0  501  502  0.00000000000E+00 -0.00000000000E+00 -0.62078990134E+02  0.62078990134E+02  0.00000000000E+00 0. -1.
         23    2    1    2    0    0  0.21468111607E+02  0.50854302596E+02  0.20380287649E+03  0.23056923360E+03  0.92625693582E+02 0.  0.
         23    2    1    2    0    0 -0.55728782988E+01 -0.10167728866E+02  0.13139641140E+03  0.15871714180E+03  0.88270462143E+02 0.  0.
        -11    1    4    4    0    0 -0.30040048934E+02 -0.11645466869E+02  0.13025326922E+03  0.13417874489E+03  0.00000000000E+00 0.  1.
         11    1    4    4    0    0  0.24467170635E+02  0.14777380028E+01  0.11431421848E+01  0.24538396903E+02  0.00000000000E+00 0. -1.
        -13    1    3    3    0    0  0.49232148934E+02  0.12187546331E+01  0.11518609813E+03  0.12527221182E+03  0.00000000000E+00 0.  1.
         13    1    3    3    0    0 -0.27764037327E+02  0.49635547963E+02  0.88616778351E+02  0.10529702178E+03  0.00000000000E+00 0. -1.
          2    1    1    2  501    0 -0.15895233308E+02 -0.40686573730E+02 -0.21420265750E+02  0.48650627011E+02  0.00000000000E+00 0. -1.
<scales pt_clust_5="13000.00000" pt_clust_6="13000.00000" pt_clust_7="13000.00000" pt_clust_8="13000.00000" pt_clust_9="43.68130"></scales>
<clustering>
<clus scale="   43.681">  2  9  1 -1</clus>
<clus scale="   88.270">  5  6 -1 -1</clus>
<clus scale="   92.626">  7  8 -1 -1</clus>
<clus scale="   94.448">  2  5  1 -1</clus>
<clus scale="   43.681">  2  5  1 -1</clus>
</clustering>
</event>
<event>
 9    1  0.1464797E-005  0.1449557E+03  0.7546771E-02  0.1207860E+00
          2   -1    0    0  502    0 -0.00000000000E+00  0.00000000000E+00  0.11422870517E+04  0.11422870517E+04  0.00000000000E+00 0. -1.
         21   -1    0    0  501  502  0.00000000000E+00 -0.00000000000E+00 -0.82500105970E+02  0.82500105970E+02  0.00000000000E+00 0. -1.
         23    2    1    2    0    0  0.94759237072E+02  0.77154171333E+02  0.76720066051E+03  0.78163957050E+03  0.86206064266E+02 0.  0.
         23    2    1    2    0    0 -0.10845042415E+03 -0.38667931709E+01  0.33038053136E+03  0.35955994787E+03  0.91409047819E+02 0.  0.
        -13    1    4    4    0    0 -0.57315681629E+02 -0.36881137167E+02  0.24761077099E+03  0.25681978029E+03  0.00000000000E+00 0.  1.
         13    1    4    4    0    0 -0.51134742523E+02  0.33014343996E+02  0.82769760372E+02  0.10274016758E+03  0.00000000000E+00 0. -1.
        -13    1    3    3    0    0  0.68217578250E+02  0.94437468940E+02  0.64269880185E+03  0.65317212388E+03  0.00000000000E+00 0. -1.
         13    1    3    3    0    0  0.26541658822E+02 -0.17283297607E+02  0.12450185867E+03  0.12846744662E+03  0.00000000000E+00 0.  1.
          2    1    1    2  501    0  0.13691187080E+02 -0.73287378162E+02 -0.37794246144E+02  0.83587639296E+02  0.00000000000E+00 0. -1.
<scales pt_clust_5="13000.00000" pt_clust_6="13000.00000" pt_clust_7="13000.00000" pt_clust_8="13000.00000" pt_clust_9="74.55527"></scales>
<clustering>
<clus scale="   74.555">  2  9  1 -1</clus>
<clus scale="   86.206">  7  8 -1 -1</clus>
<clus scale="   91.409">  5  6 -1 -1</clus>
<clus scale="  141.732">  1  7  2 -1</clus>
<clus scale="   74.555">  2  5  1 -1</clus>
</clustering>
</event>
<event>
 9    1  0.1464797E-005  0.1769199E+03  0.7546771E-02  0.1171108E+00
          2   -1    0    0  502    0 -0.00000000000E+00  0.00000000000E+00  0.24174776182E+03  0.24174776182E+03  0.00000000000E+00 0. -1.
         21   -1    0    0  501  502  0.00000000000E+00 -0.00000000000E+00 -0.53630931585E+03  0.53630931585E+03  0.00000000000E+00 0.  1.
         23    2    1    2    0    0  0.34928605032E+02  0.14308703977E+03  0.14753128766E+03  0.22708721324E+03  0.90051169765E+02 0.  0.
         23    2    1    2    0    0  0.24493406055E+02 -0.17795766113E+03 -0.15190525200E+03  0.25271532072E+03  0.92309109217E+02 0.  0.
        -11    1    3    3    0    0 -0.12154417867E+02  0.70711452196E+02  0.11350815846E+03  0.13428306439E+03  0.00000000000E+00 0.  1.
         11    1    3    3    0    0  0.47083022899E+02  0.72375587573E+02  0.34023129203E+02  0.92804148844E+02  0.00000000000E+00 0. -1.
        -13    1    4    4    0    0  0.67385713915E-01 -0.10975691639E+03 -0.14219066871E+03  0.17962397252E+03  0.00000000000E+00 0.  1.
         13    1    4    4    0    0  0.24426020341E+02 -0.68200744736E+02 -0.97145832927E+01  0.73091348194E+02  0.00000000000E+00 0. -1.
          2    1    1    2  501    0 -0.59422011087E+02  0.34870621360E+02 -0.29018758969E+03  0.29825454371E+03  0.00000000000E+00 0. -1.
<scales pt_clust_5="13000.00000" pt_clust_6="13000.00000" pt_clust_7="13000.00000" pt_clust_8="13000.00000" pt_clust_9="68.89801"></scales>
<clustering>
<clus scale="   68.898">  2  9  1 -1</clus>
<clus scale="   90.051">  5  6 -1 -1</clus>
<clus scale="   92.309">  7  8 -1 -1</clus>
<clus scale="  175.752">  1  5  2 -1</clus>
<clus scale="   68.898">  2  5  1 -1</clus>
</clustering>
</event>
<event>
 9    1  0.1464797E-005  0.9554961E+02  0.7546771E-02  0.1291091E+00
         21   -1    0    0  501  502  0.00000000000E+00  0.00000000000E+00  0.13223178214E+03  0.13223178214E+03  0.00000000000E+00 0. -1.
          1   -1    0    0  502    0 -0.00000000000E+00 -0.00000000000E+00 -0.21899197534E+03  0.21899197534E+03  0.00000000000E+00 0. -1.
         23    2    1    2    0    0  0.10422025925E+02  0.31821381002E+02 -0.16404907880E+03  0.18943818075E+03  0.88620004276E+02 0.  0.
         23    2    1    2    0    0 -0.31177135222E+02  0.89007153567E+00  0.29782538913E+02  0.10048576707E+03  0.90761135796E+02 0.  0.
        -13    1    3    3    0    0 -0.29754203812E+02 -0.45411512472E+01 -0.21647561511E+02  0.37074945968E+02  0.00000000000E+00 0.  1.
         13    1    3    3    0    0  0.40176229738E+02  0.36362532249E+02 -0.14240151728E+03  0.15236323478E+03  0.00000000000E+00 0. -1.
        -13    1    4    4    0    0 -0.66164660292E+01  0.20306171197E+02 -0.27731595650E+02  0.35002280050E+02  0.00000000000E+00 0. -1.
         13    1    4    4    0    0 -0.24560669193E+02 -0.19416099661E+02  0.57514134564E+02  0.65483487017E+02  0.00000000000E+00 0.  1.
          1    1    1    2  501    0  0.20755109297E+02 -0.32711452538E+02  0.47506346687E+02  0.61299809662E+02  0.00000000000E+00 0. -1.
<scales pt_clust_5="13000.00000" pt_clust_6="13000.00000" pt_clust_7="13000.00000" pt_clust_8="13000.00000" pt_clust_9="38.74034"></scales>
<clustering>
<clus scale="   38.740">  1  9  2 -1</clus>
<clus scale="   88.620">  5  6 -1 -1</clus>
<clus scale="   90.761">  7  8 -1 -1</clus>
<clus scale="   93.518">  2  5  1 -1</clus>
<clus scale="   38.740">  1  5  2 -1</clus>
</clustering>
</event>
<event>
 9    1  0.1690542E-005  0.1027632E+03  0.7546771E-02  0.1275140E+00
          2   -1    0    0  502    0 -0.00000000000E+00  0.00000000000E+00  0.55318918363E+03  0.55318918363E+03  0.00000000000E+00 0. -1.
         21   -1    0    0  501  502  0.00000000000E+00 -0.00000000000E+00 -0.79844080461E+02  0.79844080461E+02  0.00000000000E+00 0. -1.
         23    2    1    2    0    0 -0.53048500327E+02  0.16604908288E+02  0.44297532047E+03  0.45596945061E+03  0.92688397203E+02 0.  0.
         23    2    1    2    0    0  0.60810149515E+01  0.10672757864E+02  0.64772895464E+02  0.11277081292E+03  0.91492304354E+02 0.  0.
        -13    1    3    3    0    0 -0.43070835838E+02  0.49959244927E+02  0.35988744051E+03  0.36588248508E+03  0.00000000000E+00 0. -1.
         13    1    3    3    0    0 -0.99776644897E+01 -0.33354336639E+02  0.83087879958E+02  0.90086965523E+02  0.00000000000E+00 0.  1.
        -13    1    4    4    0    0  0.43907770385E+02  0.59212917791E+01  0.89953586575E+01  0.45209185725E+02  0.00000000000E+00 0.  1.
         13    1    4    4    0    0 -0.37826755434E+02  0.47514660847E+01  0.55777536807E+02  0.67561627192E+02  0.00000000000E+00 0. -1.
          2    1    1    2  501    0  0.46967485376E+02 -0.27277666152E+02 -0.34403112768E+02  0.64293000563E+02  0.00000000000E+00 0. -1.
<scales pt_clust_5="13000.00000" pt_clust_6="13000.00000" pt_clust_7="13000.00000" pt_clust_8="13000.00000" pt_clust_9="54.31405"></scales>
<clustering>
<clus scale="   54.314">  2  9  1 -1</clus>
<clus scale="   91.492">  7  8 -1 -1</clus>
<clus scale="   92.688">  5  6 -1 -1</clus>
<clus scale="  101.686">  2  7  1 -1</clus>
<clus scale="   54.314">  2  5  1 -1</clus>
</clustering>
</event>
<event>
 9    1  0.1464797E-005  0.9555338E+02  0.7546771E-02  0.1290408E+00
         -1   -1    0    0    0  501 -0.00000000000E+00  0.00000000000E+00  0.51328798897E+03  0.51328798897E+03  0.00000000000E+00 0.  1.
         21   -1    0    0  501  502  0.00000000000E+00 -0.00000000000E+00 -0.55160236755E+02  0.55160236755E+02  0.00000000000E+00 0.  1.
         23    2    1    2    0    0 -0.37130700136E+02  0.11753925200E+01  0.31251009181E+03  0.32779374967E+03  0.91684864603E+02 0.  0.
         23    2    1    2    0    0  0.31742661033E+01 -0.37131853190E+01  0.17346036854E+03  0.19666929445E+03  0.92555109069E+02 0.  0.
        -11    1    4    4    0    0  0.34199704402E+02 -0.34346901031E+02  0.10253718090E+03  0.11341606085E+03  0.00000000000E+00 0. -1.
         11    1    4    4    0    0 -0.31025438298E+02  0.30633715712E+02  0.70923187638E+02  0.83253233599E+02  0.00000000000E+00 0.  1.
        -13    1    3    3    0    0 -0.58285930452E+02 -0.32273051022E+01  0.29274733771E+03  0.29851075177E+03  0.00000000000E+00 0.  1.
         13    1    3    3    0    0  0.21155230317E+02  0.44026976222E+01  0.19762754101E+02  0.29282997896E+02  0.00000000000E+00 0. -1.
         -1    1    1    2    0  502  0.33956434032E+02  0.25377927990E+01 -0.27842708138E+02  0.43985181606E+02  0.00000000000E+00 0.  1.
<scales pt_clust_5="13000.00000" pt_clust_6="13000.00000" pt_clust_7="13000.00000" pt_clust_8="13000.00000" pt_clust_9="34.05114"></scales>
<clustering>
<clus scale="   34.051">  2  9  1 -1</clus>
<clus scale="   91.685">  7  8 -1 -1</clus>
<clus scale="   92.555">  5  6 -1 -1</clus>
<clus scale="   94.711">  1  7  2 -1</clus>
<clus scale="   34.051">  2  5  1 -1</clus>
</clustering>
</event>
<event>
 9    1  0.1464797E-005  0.1296324E+03  0.7546771E-02  0.1228480E+00
          1   -1    0    0  502    0 -0.00000000000E+00  0.00000000000E+00  0.26124285042E+03  0.26124285042E+03  0.00000000000E+00 0. -1.
         21   -1    0    0  501  502  0.00000000000E+00 -0.00000000000E+00 -0.23782176842E+03  0.23782176842E+03  0.00000000000E+00 0.  1.
         23    2    1    2    0    0 -0.24727292870E+02 -0.94814298724E+02  0.21522624573E+03  0.25318103535E+03  0.90427371725E+02 0.  0.
         23    2    1    2    0    0  0.21226675003E+01  0.59627102978E+02 -0.10626164403E+03  0.15066382927E+03  0.88589815051E+02 0.  0.
        -11    1    3    3    0    0 -0.12271690250E+02 -0.35856611755E+02  0.17879015569E+03  0.18276271709E+03  0.00000000000E+00 0. -1.
         11    1    3    3    0    0 -0.12455602621E+02 -0.58957686968E+02  0.36436090042E+02  0.70418318262E+02  0.00000000000E+00 0.  1.
        -11    1    4    4    0    0  0.15794751065E+01  0.24989434229E+02 -0.11268326869E+03  0.11543173570E+03  0.00000000000E+00 0.  1.
         11    1    4    4    0    0  0.54319239379E+00  0.34637668749E+02  0.64216246509E+01  0.35232093572E+02  0.00000000000E+00 0. -1.
          1    1    1    2  501    0  0.22604625370E+02  0.35187195746E+02 -0.85543519688E+02  0.95219754217E+02  0.00000000000E+00 0. -1.
<scales pt_clust_5="13000.00000" pt_clust_6="13000.00000" pt_clust_7="13000.00000" pt_clust_8="13000.00000" pt_clust_9="41.82234"></scales>
<clustering>
<clus scale="   41.822">  2  9  1 -1</clus>
<clus scale="   88.590">  7  8 -1 -1</clus>
<clus scale="   90.427">  5  6 -1 -1</clus>
<clus scale="  128.357">  2  7  1 -1</clus>
<clus scale="   41.822">  2  5  1 -1</clus>
</clustering>
</event>
<event>
 9    1  0.1464797E-005  0.9835988E+02  0.7546771E-02  0.1285617E+00
         -1   -1    0    0    0  501 -0.00000000000E+00  0.00000000000E+00  0.16111493737E+03  0.16111493737E+03  0.00000000000E+00 0.  1.
         21   -1    0    0  501  502  0.00000000000E+00 -0.00000000000E+00 -0.22667400488E+03  0.22667400488E+03  0.00000000000E+00 0.  1.
         23    2    1    2    0    0  0.43510087757E+02  0.16485529460E+02  0.77425605144E+02  0.12713166945E+03  0.89458574917E+02 0.  0.
         23    2    1    2    0    0 -0.33060893887E+01 -0.14221937373E+02  0.17012450368E+02  0.95670713619E+02  0.93006818284E+02 0.  0.
        -13    1    3    3    0    0 -0.26722535531E+02  0.14253711497E+02  0.19053831046E+02  0.35781429180E+02  0.00000000000E+00 0. -1.
         13    1    3    3    0    0  0.70232623288E+02  0.22318179632E+01  0.58371774099E+02  0.91350240267E+02  0.00000000000E+00 0.  1.
        -13    1    4    4    0    0  0.38941873412E+02  0.10420363432E+02 -0.74345008936E+01  0.40991770911E+02  0.00000000000E+00 0.  1.
         13    1    4    4    0    0 -0.42247962800E+02 -0.24642300805E+02  0.24446951262E+02  0.54678942709E+02  0.00000000000E+00 0. -1.
         -1    1    1    2    0  502 -0.40203998368E+02 -0.22635920872E+01 -0.15999712303E+03  0.16498655918E+03  0.00000000000E+00 0.  1.
<scales pt_clust_5="13000.00000" pt_clust_6="13000.00000" pt_clust_7="13000.00000" pt_clust_8="13000.00000" pt_clust_9="40.26767"></scales>
<clustering>
<clus scale="   40.268">  2  9  1 -1</clus>
<clus scale="   89.459">  5  6 -1 -1</clus>
<clus scale="   93.007">  7  8 -1 -1</clus>
<clus scale="   95.012">  1  5  2 -1</clus>
<clus scale="   40.268">  2  5  1 -1</clus>
</clustering>
</event>
<event>
 9    1  0.1464797E-005  0.9941453E+02  0.7546771E-02  0.1286147E+00
         21   -1    0    0  501  502  0.00000000000E+00  0.00000000000E+00  0.48431675503E+03  0.48431675503E+03  0.00000000000E+00 0.  1.
          1   -1    0    0  502    0 -0.00000000000E+00 -0.00000000000E+00 -0.13396909221E+03  0.13396909221E+03  0.00000000000E+00 0. -1.
         23    2    1    2    0    0 -0.22112637683E+02  0.36013772988E+02 -0.37051324400E+02  0.10687892165E+03  0.90908430094E+02 0.  0.
         23    2    1    2    0    0 -0.30454776912E+02  0.43281330524E+02 -0.33066397988E-01  0.11246502168E+03  0.99235139947E+02 0.  0.
        -11    1    3    3    0    0  0.17903785184E+02  0.52538215241E+02 -0.11754221641E+02  0.56735978982E+02  0.00000000000E+00 0.  1.
         11    1    3    3    0    0 -0.40016422867E+02 -0.16524442254E+02 -0.25297102759E+02  0.50142942663E+02  0.00000000000E+00 0. -1.
        -13    1    4    4    0    0  0.29327128645E+02  0.98598265269E+01 -0.24781220310E+02  0.39640957780E+02  0.00000000000E+00 0. -1.
         13    1    4    4    0    0 -0.59781905556E+02  0.33421503997E+02  0.24748153912E+02  0.72824063904E+02  0.00000000000E+00 0.  1.
          1    1    1    2  501    0  0.52567414595E+02 -0.79295103511E+02  0.38743205362E+03  0.39894190391E+03  0.00000000000E+00 0. -1.
<scales pt_clust_5="13000.00000" pt_clust_6="13000.00000" pt_clust_7="13000.00000" pt_clust_8="13000.00000" pt_clust_9="95.13699"></scales>
<clustering>
<clus scale="   90.908">  5  6 -1 -1</clus>
<clus scale="   95.137">  1  9  2 -1</clus>
<clus scale="   91.104">  2  5  1 -1</clus>
<clus scale="   99.235">  7  8 -1 -1</clus>
<clus scale="   95.137">  1  5  2 -1</clus>
</clustering>
</event>
<event>
 9    1  0.1464797E-005  0.9860342E+02  0.7546771E-02  0.1284049E+00
         21   -1    0    0  501  502  0.00000000000E+00  0.00000000000E+00  0.52658866842E+02  0.52658866842E+02  0.00000000000E+00 0. -1.
          1   -1    0    0  502    0 -0.00000000000E+00 -0.00000000000E+00 -0.27775304435E+03  0.27775304435E+03  0.00000000000E+00 0. -1.
         23    2    1    2    0    0  0.24846695291E+02  0.15678367468E+02 -0.11960029590E+03  0.15263680716E+03  0.90169810065E+02 0.  0.
         23    2    1    2    0    0 -0.40285585502E+02 -0.34289949029E+02 -0.11245757197E+03  0.15261077844E+03  0.88569832322E+02 0.  0.
        -11    1    3    3    0    0  0.17481253479E+02 -0.35839335238E+02 -0.33732489832E+02  0.52229618453E+02  0.00000000000E+00 0.  1.
         11    1    3    3    0    0  0.73654418126E+01  0.51517702705E+02 -0.85867806066E+02  0.10040718871E+03  0.00000000000E+00 0. -1.
        -11    1    4    4    0    0 -0.37523383117E+02 -0.49669454103E+01 -0.15752458520E+01  0.37883455845E+02  0.00000000000E+00 0.  1.
         11    1    4    4    0    0 -0.27622023853E+01 -0.29323003619E+02 -0.11088232612E+03  0.11472732259E+03  0.00000000000E+00 0. -1.
          1    1    1    2  501    0  0.15438890211E+02  0.18611581561E+02  0.69636903648E+01  0.25164325595E+02  0.00000000000E+00 0. -1.
<scales pt_clust_5="13000.00000" pt_clust_6="13000.00000" pt_clust_7="13000.00000" pt_clust_8="13000.00000" pt_clust_9="24.18161"></scales>
<clustering>
<clus scale="   24.182">  1  9  2 -1</clus>
<clus scale="   88.570">  7  8 -1 -1</clus>
<clus scale="   90.170">  5  6 -1 -1</clus>
<clus scale="   97.142">  1  7  2 -1</clus>
<clus scale="   24.182">  1  5  2 -1</clus>
</clustering>
</event>
<event>
 9    1  0.1464797E-005  0.1036945E+03  0.7546771E-02  0.1273160E+00
          1   -1    0    0  502    0 -0.00000000000E+00  0.00000000000E+00  0.28560738982E+02  0.28560738982E+02  0.00000000000E+00 0. -1.
         21   -1    0    0  501  502  0.00000000000E+00 -0.00000000000E+00 -0.95087933490E+03  0.95087933490E+03  0.00000000000E+00 0. -1.
         23    2    1    2    0    0 -0.90886628550E+01  0.58546574012E+02 -0.15266714180E+03  0.18749079718E+03  0.91297523088E+02 0.  0.
         23    2    1    2    0    0 -0.45405813739E+02 -0.29314854657E+02 -0.29339334076E+03  0.31169316592E+03  0.90288031637E+02 0.  0.
        -11    1    4    4    0    0  0.86274222715E+01  0.22255238110E+02 -0.12813031058E+03  0.13033458685E+03  0.00000000000E+00 0. -1.
         11    1    4    4    0    0 -0.54033236010E+02 -0.51570092767E+02 -0.16526303017E+03  0.18135857908E+03  0.00000000000E+00 0.  1.
        -11    1    3    3    0    0  0.68826513622E+01 -0.21935232997E+02 -0.56970727165E+02  0.61434429192E+02  0.00000000000E+00 0.  1.
         11    1    3    3    0    0 -0.15971314217E+02  0.80481807009E+02 -0.95696414634E+02  0.12605636799E+03  0.00000000000E+00 0. -1.
          1    1    1    2  501    0  0.54494476594E+02 -0.29231719355E+02 -0.47625811336E+03  0.48025611077E+03  0.00000000000E+00 0. -1.
<scales pt_clust_5="13000.00000" pt_clust_6="13000.00000" pt_clust_7="13000.00000" pt_clust_8="13000.00000" pt_clust_9="61.83964"></scales>
<clustering>
<clus scale="   61.840">  2  9  1 -1</clus>
<clus scale="   90.288">  5  6 -1 -1</clus>
<clus scale="   91.298">  7  8 -1 -1</clus>
<clus scale="  102.807">  2  5  1 -1</clus>
<clus scale="   61.840">  2  5  1 -1</clus>
</clustering>
</event>
<event>
 9    1  0.1464797E-005  0.1421463E+03  0.7546771E-02  0.1211625E+00
          2   -1    0    0  502    0 -0.00000000000E+00  0.00000000000E+00  0.94803671978E+03  0.94803671978E+03  0.00000000000E+00 0. -1.
         21   -1    0    0  501  502  0.00000000000E+00 -0.00000000000E+00 -0.44257556360E+02  0.44257556360E+02  0.00000000000E+00 0. -1.
         23    2    1    2    0    0 -0.11031423648E+03 -0.51807730453E+02  0.61117741401E+03  0.62978276774E+03  0.90748175944E+02 0.  0.
         23    2    1    2    0    0  0.38388835418E+02  0.39496315916E+02  0.76725284035E+02  0.13463548389E+03  0.95949375489E+02 0.  0.
        -11    1    3    3    0    0 -0.29651223668E+02  0.25301975881E+02  0.19806948737E+03  0.20186853860E+03  0.00000000000E+00 0. -1.
         11    1    3    3    0    0 -0.80663012808E+02 -0.77109706334E+02  0.41310792664E+03  0.42791422914E+03  0.00000000000E+00 0.  1.
        -13    1    4    4    0    0  0.22112780873E+02 -0.29992506597E+02  0.38877223176E+02  0.53851313928E+02  0.00000000000E+00 0.  1.
         13    1    4    4    0    0  0.16276054545E+02  0.69488822513E+02  0.37848060858E+02  0.80784169963E+02  0.00000000000E+00 0. -1.
          2    1    1    2  501    0  0.71925401058E+02  0.12311414536E+02  0.21587646537E+03  0.22787602451E+03  0.00000000000E+00 0. -1.
<scales pt_clust_5="13000.00000" pt_clust_6="13000.00000" pt_clust_7="13000.00000" pt_clust_8="13000.00000" pt_clust_9="72.97150"></scales>
<clustering>
<clus scale="   72.971">  2  9  1 -1</clus>
<clus scale="   90.748">  5  6 -1 -1</clus>
<clus scale="   95.949">  7  8 -1 -1</clus>
<clus scale="  138.689">  1  5  2 -1</clus>
<clus scale="   72.971">  2  5  1 -1</clus>
</clustering>
</event>
<event>
 9    1  0.1464797E-005  0.1040259E+03  0.7546771E-02  0.1272521E+00
         21   -1    0    0  501  502  0.00000000000E+00  0.00000000000E+00  0.51635715266E+02  0.51635715266E+02  0.00000000000E+00 0.  1.
          1   -1    0    0  502    0 -0.00000000000E+00 -0.00000000000E+00 -0.39699411829E+03  0.39699411829E+03  0.00000000000E+00 0. -1.
         23    2    1    2    0    0 -0.55897136372E+02  0.21905259374E+02 -0.27531331484E+03  0.29594458227E+03  0.90451336084E+02 0.  0.
         23    2    1    2    0    0  0.23695432889E+02 -0.24353465777E+02 -0.72946001584E+02  0.12026058907E+03  0.89369599425E+02 0.  0.
        -11    1    4    4    0    0  0.16434372511E+02  0.33446992791E+02 -0.25930479767E+02  0.45400217042E+02  0.00000000000E+00 0. -1.
         11    1    4    4    0    0  0.72610603779E+01 -0.57800458567E+02 -0.47015521817E+02  0.74860372028E+02  0.00000000000E+00 0.  1.
        -13    1    3    3    0    0 -0.24887810997E+02  0.52006992974E+02 -0.10045269665E+03  0.11582260021E+03  0.00000000000E+00 0.  1.
         13    1    3    3    0    0 -0.31009325374E+02 -0.30101733600E+02 -0.17486061819E+03  0.18012198206E+03  0.00000000000E+00 0. -1.
          1    1    1    2  501    0  0.32201703482E+02  0.24482064028E+01  0.29009133994E+01  0.32424662224E+02  0.00000000000E+00 0. -1.
<scales pt_clust_5="13000.00000" pt_clust_6="13000.00000" pt_clust_7="13000.00000" pt_clust_8="13000.00000" pt_clust_9="32.29463"></scales>
<clustering>
<clus scale="   32.295">  1  9  2 -1</clus>
<clus scale="   89.370">  5  6 -1 -1</clus>
<clus scale="   90.451">  7  8 -1 -1</clus>
<clus scale="  103.087">  1  5  2 -1</clus>
<clus scale="   32.295">  1  5  2 -1</clus>
</clustering>
</event>
<event>
 9    1  0.1464797E-005  0.1155683E+03  0.7546771E-02  0.1255191E+00
         21   -1    0    0  501  502  0.00000000000E+00  0.00000000000E+00  0.88320779869E+02  0.88320779869E+02  0.00000000000E+00 0.  1.
         -1   -1    0    0    0  501 -0.00000000000E+00 -0.00000000000E+00 -0.89899359673E+03  0.89899359673E+03  0.00000000000E+00 0.  1.
         23    2    1    2    0    0  0.65988194403E+01 -0.22905228335E+02 -0.29556726175E+03  0.31130714155E+03  0.94783628650E+02 0.  0.
         23    2    1    2    0    0 -0.58234133277E+02  0.97012732761E+02 -0.55854369531E+03  0.57578248824E+03  0.82168908932E+02 0.  0.
        -13    1    4    4    0    0  0.16570069272E+02  0.14038616581E+02 -0.41848722495E+02  0.47148335343E+02  0.00000000000E+00 0. -1.
         13    1    4    4    0    0 -0.74804202548E+02  0.82974116179E+02 -0.51669497282E+03  0.52863415290E+03  0.00000000000E+00 0.  1.
        -13    1    3    3    0    0  0.50312268299E+02 -0.61152756926E+01 -0.16415812020E+03  0.17180398531E+03  0.00000000000E+00 0.  1.
         13    1    3    3    0    0 -0.43713448858E+02 -0.16789952643E+02 -0.13140914155E+03  0.13950315625E+03  0.00000000000E+00 0. -1.
         -1    1    1    2    0  502  0.51635313836E+02 -0.74107504425E+02  0.43438140205E+02  0.10022474680E+03  0.00000000000E+00 0.  1.
<scales pt_clust_5="13000.00000" pt_clust_6="13000.00000" pt_clust_7="13000.00000" pt_clust_8="13000.00000" pt_clust_9="90.32236"></scales>
<clustering>
<clus scale="   82.169">  5  6 -1 -1</clus>
<clus scale="   90.322">  1  9  2 -1</clus>
<clus scale="   94.784">  7  8 -1 -1</clus>
<clus scale="  105.469">  1  5  2 -1</clus>
<clus scale="   90.322">  1  5  2 -1</clus>
</clustering>
</event>
<event>
 9    1  0.1464797E-005  0.1181504E+03  0.7546771E-02  0.1246718E+00
         21   -1    0    0  501  502  0.00000000000E+00  0.00000000000E+00  0.18642505433E+03  0.18642505433E+03  0.00000000000E+00 0. -1.
          4   -1    0    0  502    0 -0.00000000000E+00 -0.00000000000E+00 -0.12937438695E+03  0.12937438695E+03  0.00000000000E+00 0. -1.
         23    2    1    2    0    0 -0.74312813557E+02  0.36807967787E+02 -0.59737545225E+02  0.13541541366E+03  0.88834335678E+02 0.  0.
         23    2    1    2    0    0  0.52865633531E+02 -0.22092854916E+02  0.73576842829E+02  0.12994853858E+03  0.90499731664E+02 0.  0.
        -13    1    4    4    0    0  0.27421188093E+02 -0.53890630675E+02  0.64133249360E+02  0.88143038888E+02  0.00000000000E+00 0. -1.
         13    1    4    4    0    0  0.25444445438E+02  0.31797775759E+02  0.94435934694E+01  0.41805499692E+02  0.00000000000E+00 0.  1.
        -13    1    3    3    0    0  0.43632610403E+01 -0.21350900319E+02 -0.21769208444E+01  0.21900638706E+02  0.00000000000E+00 0.  1.
         13    1    3    3    0    0 -0.78676074598E+02  0.58158868106E+02 -0.57560624381E+02  0.11351477495E+03  0.00000000000E+00 0. -1.
          4    1    1    2  501    0  0.21447180027E+02 -0.14715112871E+02  0.43211369775E+02  0.50435489051E+02  0.00000000000E+00 0. -1.
<scales pt_clust_5="13000.00000" pt_clust_6="13000.00000" pt_clust_7="13000.00000" pt_clust_8="13000.00000" pt_clust_9="26.00992"></scales>
<clustering>
<clus scale="   26.010">  1  9  2 -1</clus>
<clus scale="   88.834">  7  8 -1 -1</clus>
<clus scale="   90.500">  5  6 -1 -1</clus>
<clus scale="  116.880">  2  7  1 -1</clus>
<clus scale="   26.010">  1  5  2 -1</clus>
</clustering>
</event>
<event>
 9    1  0.1464797E-005  0.1101404E+03  0.7546771E-02  0.1260960E+00
         21   -1    0    0  501  502  0.00000000000E+00  0.00000000000E+00  0.15938882305E+03  0.15938882305E+03  0.00000000000E+00 0. -1.
          1   -1    0    0  502    0 -0.00000000000E+00 -0.00000000000E+00 -0.11727421935E+03  0.11727421935E+03  0.00000000000E+00 0. -1.
         23    2    1    2    0    0 -0.21982445656E+02  0.41601103173E+02 -0.43655486134E+01  0.10129489933E+03  0.89597538548E+02 0.  0.
         23    2    1    2    0    0  0.51623354060E+02 -0.64198611747E+02  0.10249817341E+02  0.12338864695E+03  0.91286729626E+02 0.  0.
        -11    1    4    4    0    0  0.48195847171E+02 -0.29628828637E+02 -0.34860122322E+02  0.66452504085E+02  0.00000000000E+00 0. -1.
         11    1    4    4    0    0  0.34275068888E+01 -0.34569783111E+02  0.45109939663E+02  0.56936142864E+02  0.00000000000E+00 0.  1.
        -11    1    3    3    0    0 -0.29313152590E+02  0.67586037300E+02 -0.77882854170E+01  0.74079624340E+02  0.00000000000E+00 0. -1.
         11    1    3    3    0    0  0.73307069333E+01 -0.25984934126E+02  0.34227368036E+01  0.27215274993E+02  0.00000000000E+00 0.  1.
          1    1    1    2  501    0 -0.29640908403E+02  0.22597508574E+02  0.36230334972E+02  0.51979496120E+02  0.00000000000E+00 0. -1.
<scales pt_clust_5="13000.00000" pt_clust_6="13000.00000" pt_clust_7="13000.00000" pt_clust_8="13000.00000" pt_clust_9="37.27239"></scales>
<clustering>
<clus scale="   37.272">  1  9  2 -1</clus>
<clus scale="   89.598">  7  8 -1 -1</clus>
<clus scale="   91.287">  5  6 -1 -1</clus>
<clus scale="  108.745">  2  7  1 -1</clus>
<clus scale="   37.272">  1  5  2 -1</clus>
</clustering>
</event>
<event>
 9    1  0.1464797E-005  0.9944113E+02  0.7546771E-02  0.1282841E+00
         21   -1    0    0  501  502  0.00000000000E+00  0.00000000000E+00  0.25501018360E+02  0.25501018360E+02  0.00000000000E+00 0. -1.
          3   -1    0    0  502    0 -0.00000000000E+00 -0.00000000000E+00 -0.67045142894E+03  0.67045142894E+03  0.00000000000E+00 0. -1.
         23    2    1    2    0    0  0.50160836747E+02  0.22587602726E+02 -0.28124218058E+03  0.30074551053E+03  0.91238087599E+02 0.  0.
         23    2    1    2    0    0  0.36980899818E+01 -0.40609648236E+02 -0.21560805569E+03  0.23659029280E+03  0.88460802441E+02 0.  0.
        -11    1    4    4    0    0 -0.34338205175E+02 -0.33091146430E+02 -0.62306472358E+02  0.78461664553E+02  0.00000000000E+00 0. -1.
         11    1    4    4    0    0  0.38036295157E+02 -0.75185018067E+01 -0.15330158334E+03  0.15812862825E+03  0.00000000000E+00 0.  1.
        -13    1    3    3    0    0 -0.22352906756E+02  0.27049198291E+01 -0.12897282588E+03  0.13092348470E+03  0.00000000000E+00 0.  1.
         13    1    3    3    0    0  0.72513743503E+02  0.19882682896E+02 -0.15226935470E+03  0.16982202583E+03  0.00000000000E+00 0. -1.
          3    1    1    2  501    0 -0.53858926729E+02  0.18022045511E+02 -0.14810017431E+03  0.15861664396E+03  0.00000000000E+00 0. -1.
<scales pt_clust_5="13000.00000" pt_clust_6="13000.00000" pt_clust_7="13000.00000" pt_clust_8="13000.00000" pt_clust_9="56.79420"></scales>
<clustering>
<clus scale="   56.794">  1  9  2 -1</clus>
<clus scale="   88.461">  5  6 -1 -1</clus>
<clus scale="   91.238">  7  8 -1 -1</clus>
<clus scale="   96.899">  1  5  2 -1</clus>
<clus scale="   56.794">  1  5  2 -1</clus>
</clustering>
</event>
<event>
 9    1  0.1464797E-005  0.1216306E+03  0.7546771E-02  0.1244205E+00
          1   -1    0    0  502    0 -0.00000000000E+00  0.00000000000E+00  0.36762436903E+03  0.36762436903E+03  0.00000000000E+00 0. -1.
         21   -1    0    0  501  502  0.00000000000E+00 -0.00000000000E+00 -0.15929934406E+03  0.15929934406E+03  0.00000000000E+00 0.  1.
         23    2    1    2    0    0 -0.70073387438E+01  0.84453233337E+02  0.21154241287E+03  0.24146063557E+03  0.79822269276E+02 0.  0.
         23    2    1    2    0    0 -0.26194240680E+02 -0.70684599729E+02  0.11284571103E+03  0.16396178914E+03  0.92015558004E+02 0.  0.
        -11    1    3    3    0    0  0.20640524640E+02  0.78329498622E+02  0.18773368240E+03  0.20446387729E+03  0.00000000000E+00 0. -1.
         11    1    3    3    0    0 -0.27647863384E+02  0.61237347151E+01  0.23808730469E+02  0.36996758278E+02  0.00000000000E+00 0.  1.
        -11    1    4    4    0    0 -0.55420991930E+02 -0.49025440822E+02  0.43975552571E+02  0.86074557322E+02  0.00000000000E+00 0.  1.
         11    1    4    4    0    0  0.29226751250E+02 -0.21659158907E+02  0.68870158461E+02  0.77887231814E+02  0.00000000000E+00 0. -1.
          1    1    1    2  501    0  0.33201579424E+02 -0.13768633608E+02 -0.11606309893E+03  0.12150128839E+03  0.00000000000E+00 0. -1.
<scales pt_clust_5="13000.00000" pt_clust_6="13000.00000" pt_clust_7="13000.00000" pt_clust_8="13000.00000" pt_clust_9="35.94329"></scales>
<clustering>
<clus scale="   35.943">  2  9  1 -1</clus>
<clus scale="   79.822">  5  6 -1 -1</clus>
<clus scale="   92.016">  7  8 -1 -1</clus>
<clus scale="  112.689">  1  5  2 -1</clus>
<clus scale="   35.943">  2  5  1 -1</clus>
</clustering>
</event>
<event>
 9    1  0.1464797E-005  0.2432768E+03  0.7546771E-02  0.1117785E+00
          2   -1    0    0  502    0 -0.00000000000E+00  0.00000000000E+00  0.22305547209E+04  0.22305547209E+04  0.00000000000E+00 0. -1.
         21   -1    0    0  501  502  0.00000000000E+00 -0.00000000000E+00 -0.36448904005E+02  0.36448904005E+02  0.00000000000E+00 0. -1.
         23    2    1    2    0    0  0.23108395269E+03 -0.25868816723E+02  0.14127510779E+04  0.14346195583E+04  0.90546562735E+02 0.  0.
         23    2    1    2    0    0 -0.20241136325E+03  0.69755449464E+02  0.66434167195E+03  0.70416467738E+03  0.93069076981E+02 0.  0.
        -11    1    4    4    0    0 -0.15514183341E+03  0.80185601303E+02  0.59120789503E+03  0.61646207854E+03  0.00000000000E+00 0. -1.
         11    1    4    4    0    0 -0.47269529834E+02 -0.10430151839E+02  0.73133776913E+02  0.87702598842E+02  0.00000000000E+00 0.  1.
        -11    1    3    3    0    0  0.13383953638E+03  0.29616205156E+02  0.82238462289E+03  0.83373053744E+03  0.00000000000E+00 0. -1.
         11    1    3    3    0    0  0.97244416308E+02 -0.55485021880E+02  0.59036645499E+03  0.60088902081E+03  0.00000000000E+00 0.  1.
          2    1    1    2  501    0 -0.28672589440E+02 -0.43886632741E+02  0.11701306712E+03  0.12821938931E+03  0.00000000000E+00 0. -1.
<scales pt_clust_5="13000.00000" pt_clust_6="13000.00000" pt_clust_7="13000.00000" pt_clust_8="13000.00000" pt_clust_9="52.42284"></scales>
<clustering>
<clus scale="   52.423">  2  9  1 -1</clus>
<clus scale="   90.547">  7  8 -1 -1</clus>
<clus scale="   93.069">  5  6 -1 -1</clus>
<clus scale="  242.323">  1  7  2 -1</clus>
<clus scale="   52.423">  2  5  1 -1</clus>
</clustering>
</event>
<event>
 9    1  0.1464797E-005  0.1150503E+03  0.7546771E-02  0.1252039E+00
          1   -1    0    0  502    0 -0.00000000000E+00  0.00000000000E+00  0.58998540752E+03  0.58998540752E+03  0.00000000000E+00 0. -1.
         21   -1    0    0  501  502  0.00000000000E+00 -0.00000000000E+00 -0.35859111852E+02  0.35859111852E+02  0.00000000000E+00 0.  1.
         23    2    1    2    0    0  0.39752085746E+01  0.71337774487E+02  0.40764872827E+03  0.42411260702E+03  0.92677599324E+02 0.  0.
         23    2    1    2    0    0  0.20675954802E+02 -0.59816374443E+02  0.12441505493E+03  0.16670082658E+03  0.91129391132E+02 0.  0.
        -11    1    4    4    0    0  0.21827511647E+02 -0.12930590954E+02 -0.76961876718E+01  0.26511728571E+02  0.00000000000E+00 0.  1.
         11    1    4    4    0    0 -0.11515568446E+01 -0.46885783489E+02  0.13211124261E+03  0.14018909800E+03  0.00000000000E+00 0. -1.
        -13    1    3    3    0    0 -0.23928097100E+02 -0.13599984984E+02  0.10337301663E+03  0.10697426789E+03  0.00000000000E+00 0.  1.
         13    1    3    3    0    0  0.27903305675E+02  0.84937759471E+02  0.30427571164E+03  0.31713833913E+03  0.00000000000E+00 0. -1.
          1    1    1    2  501    0 -0.24651163377E+02 -0.11521400044E+02  0.22062512464E+02  0.35031085782E+02  0.00000000000E+00 0. -1.
<scales pt_clust_5="13000.00000" pt_clust_6="13000.00000" pt_clust_7="13000.00000" pt_clust_8="13000.00000" pt_clust_9="27.21071"></scales>
<clustering>
<clus scale="   27.211">  2  9  1 -1</clus>
<clus scale="   91.129">  5  6 -1 -1</clus>
<clus scale="   92.678">  7  8 -1 -1</clus>
<clus scale="  113.807">  2  5  1 -1</clus>
<clus scale="   27.211">  2  5  1 -1</clus>
</clustering>
</event>
<event>
 9    1  0.1464797E-005  0.9923867E+02  0.7546771E-02  0.1286398E+00
          1   -1    0    0  502    0 -0.00000000000E+00  0.00000000000E+00  0.39637484300E+03  0.39637484300E+03  0.00000000000E+00 0. -1.
         21   -1    0    0  501  502  0.00000000000E+00 -0.00000000000E+00 -0.74623047659E+02  0.74623047659E+02  0.00000000000E+00 0. -1.
         23    2    1    2    0    0 -0.28432780122E+02  0.43272902895E+02  0.27960815708E+03  0.29841554312E+03  0.90499435128E+02 0.  0.
         23    2    1    2    0    0 -0.16757233462E+02 -0.27237021912E+02  0.74282629084E+02  0.11485712308E+03  0.81557277438E+02 0.  0.
        -13    1    3    3    0    0  0.13960205957E+02  0.35252173884E+02  0.40627870437E+02  0.55571818129E+02  0.00000000000E+00 0.  1.
         13    1    3    3    0    0 -0.42392986079E+02  0.80207290108E+01  0.23898028665E+03  0.24284372499E+03  0.00000000000E+00 0. -1.
        -13    1    4    4    0    0  0.30339739045E+02 -0.17394443902E+02  0.13861879460E+02  0.37619385244E+02  0.00000000000E+00 0.  1.
         13    1    4    4    0    0 -0.47096972507E+02 -0.98425780108E+01  0.60420749624E+02  0.77237737838E+02  0.00000000000E+00 0. -1.
          1    1    1    2  501    0  0.45190013584E+02 -0.16035880983E+02 -0.32138990829E+02  0.57725224453E+02  0.00000000000E+00 0. -1.
<scales pt_clust_5="13000.00000" pt_clust_6="13000.00000" pt_clust_7="13000.00000" pt_clust_8="13000.00000" pt_clust_9="47.95088"></scales>
<clustering>
<clus scale="   47.951">  2  9  1 -1</clus>
<clus scale="   81.557">  7  8 -1 -1</clus>
<clus scale="   90.499">  5  6 -1 -1</clus>
<clus scale="   91.158">  2  7  1 -1</clus>
<clus scale="   47.951">  2  5  1 -1</clus>
</clustering>
</event>
<event>
 9    1  0.1464797E-005  0.1397083E+03  0.7546771E-02  0.1230611E+00
         21   -1    0    0  501  502  0.00000000000E+00  0.00000000000E+00  0.10466977203E+03  0.10466977203E+03  0.00000000000E+00 0. -1.
         -2   -1    0    0    0  501 -0.00000000000E+00 -0.00000000000E+00 -0.32614626191E+03  0.32614626191E+03  0.00000000000E+00 0. -1.
         23    2    1    2    0    0  0.37366473090E+02  0.11389359791E+02 -0.13581169191E+03  0.16754888987E+03  0.90010243914E+02 0.  0.
         23    2    1    2    0    0  0.76555441780E+02  0.32108518274E+02 -0.65840001066E+02  0.13972245315E+03  0.91081093323E+02 0.  0.
        -11    1    3    3    0    0  0.60918355818E+01  0.48891134467E+02 -0.69943467494E+02  0.85554322716E+02  0.00000000000E+00 0.  1.
         11    1    3    3    0    0  0.31274637508E+02 -0.37501774676E+02 -0.65868224419E+02  0.81994567156E+02  0.00000000000E+00 0. -1.
        -13    1    4    4    0    0  0.26109538259E+02  0.33096647883E+02  0.14732367811E+02  0.44655780707E+02  0.00000000000E+00 0.  1.
         13    1    4    4    0    0  0.50445903521E+02 -0.98812960939E+00 -0.80572368877E+02  0.95066672439E+02  0.00000000000E+00 0. -1.
         -2    1    1    2    0  502 -0.11392191487E+03 -0.43497878065E+02 -0.19824796895E+02  0.12354469092E+03  0.00000000000E+00 0. -1.
<scales pt_clust_5="13000.00000" pt_clust_6="13000.00000" pt_clust_7="13000.00000" pt_clust_8="13000.00000" pt_clust_9="105.93701"></scales>
<clustering>
<clus scale="   90.010">  5  6 -1 -1</clus>
<clus scale="   91.081">  7  8 -1 -1</clus>
<clus scale="   98.121">  2  5  1 -1</clus>
<clus scale="  105.937">  1  9  2 -1</clus>
<clus scale="  105.937">  1  5  2 -1</clus>
</clustering>
</event>
<event>
 9    1  0.1464797E-005  0.9453278E+02  0.7546771E-02  0.1292747E+00
         21   -1    0    0  501  502  0.00000000000E+00  0.00000000000E+00  0.16971531690E+03  0.16971531690E+03  0.00000000000E+00 0.  1.
         -1   -1    0    0    0  501 -0.00000000000E+00 -0.00000000000E+00 -0.23425549643E+03  0.23425549643E+03  0.00000000000E+00 0.  1.
         23    2    1    2    0    0 -0.11753380923E+02  0.25151508268E+02 -0.15971341892E+03  0.18534130842E+03  0.89845890804E+02 0.  0.
         23    2    1    2    0    0  0.42982602779E+02  0.45310795100E+01 -0.13757515478E+02  0.10148758385E+03  0.90787805457E+02 0.  0.
        -11    1    3    3    0    0  0.34558573362E+01  0.51946894562E+02 -0.13842412006E+03  0.14789070227E+03  0.00000000000E+00 0.  1.
         11    1    3    3    0    0 -0.15209238259E+02 -0.26795386295E+02 -0.21289298857E+02  0.37450606149E+02  0.00000000000E+00 0. -1.
        -13    1    4    4    0    0  0.55707293815E+02 -0.30326984483E+02 -0.95376167738E+01  0.64140429573E+02  0.00000000000E+00 0.  1.
         13    1    4    4    0    0 -0.12724691036E+02  0.34858063993E+02 -0.42198987038E+01  0.37347154274E+02  0.00000000000E+00 0. -1.
         -1    1    1    2    0  502 -0.31229221856E+02 -0.29682587778E+02  0.10893075486E+03  0.11714192106E+03  0.00000000000E+00 0.  1.
<scales pt_clust_5="13000.00000" pt_clust_6="13000.00000" pt_clust_7="13000.00000" pt_clust_8="13000.00000" pt_clust_9="43.08504"></scales>
<clustering>
<clus scale="   43.085">  1  9  2 -1</clus>
<clus scale="   89.846">  5  6 -1 -1</clus>
<clus scale="   90.788">  7  8 -1 -1</clus>
<clus scale="   93.629">  2  5  1 -1</clus>
<clus scale="   43.085">  1  5  2 -1</clus>
</clustering>
</event>
<event>
 9    1  0.1464797E-005  0.1472215E+03  0.7546771E-02  0.1219957E+00
         21   -1    0    0  501  502  0.00000000000E+00  0.00000000000E+00  0.80405311330E+03  0.80405311330E+03  0.00000000000E+00 0.  1.
         -3   -1    0    0    0  501 -0.00000000000E+00 -0.00000000000E+00 -0.13379925578E+03  0.13379925578E+03  0.00000000000E+00 0.  1.
         23    2    1    2    0    0 -0.87458278910E+01 -0.48189117089E+02 -0.85152324353E+02  0.13493101129E+03  0.92502859167E+02 0.  0.
         23    2    1    2    0    0 -0.88059308744E+02  0.98436713396E+02  0.39856463623E+03  0.42978338853E+03  0.91737469980E+02 0.  0.
        -13    1    4    4    0    0 -0.70823002422E+02  0.10978539196E+02  0.17684322079E+03  0.19081391651E+03  0.00000000000E+00 0.  1.
         13    1    4    4    0    0 -0.17236306323E+02  0.87458174200E+02  0.22172141544E+03  0.23896947202E+03  0.00000000000E+00 0. -1.
        -13    1    3    3    0    0  0.38047783270E+02 -0.13189787706E+01 -0.25722282780E+02  0.45945721761E+02  0.00000000000E+00 0. -1.
         13    1    3    3    0    0 -0.46793611161E+02 -0.46870138319E+02 -0.59430041574E+02  0.88985289531E+02  0.00000000000E+00 0.  1.
         -3    1    1    2    0  502  0.96805136635E+02 -0.50247596307E+02  0.35684154563E+03  0.37313796926E+03  0.00000000000E+00 0.  1.
<scales pt_clust_5="13000.00000" pt_clust_6="13000.00000" pt_clust_7="13000.00000" pt_clust_8="13000.00000" pt_clust_9="115.14514"></scales>
<clustering>
<clus scale="   91.737">  5  6 -1 -1</clus>
<clus scale="   92.503">  7  8 -1 -1</clus>
<clus scale="  104.668">  2  7  1 -1</clus>
<clus scale="  115.145">  1  9  2 -1</clus>
<clus scale="  115.145">  1  5  2 -1</clus>
</clustering>
</event>
<event>
 9    1  0.1464797E-005  0.1064188E+03  0.7546771E-02  0.1267525E+00
          2   -1    0    0  502    0 -0.00000000000E+00  0.00000000000E+00  0.53648814264E+03  0.53648814264E+03  0.00000000000E+00 0. -1.
         21   -1    0    0  501  502  0.00000000000E+00 -0.00000000000E+00 -0.28209129120E+02  0.28209129120E+02  0.00000000000E+00 0.  1.
         23    2    1    2    0    0  0.27345802051E+02  0.50768137951E+02  0.31598230199E+03  0.33396945234E+03  0.91463562173E+02 0.  0.
         23    2    1    2    0    0 -0.60935337412E+01 -0.49092429255E+02  0.17265121872E+03  0.20173795402E+03  0.91883409842E+02 0.  0.
        -11    1    3    3    0    0  0.42460652121E+02 -0.11116893802E+02  0.14538523801E+03  0.15186625609E+03  0.00000000000E+00 0.  1.
         11    1    3    3    0    0 -0.15114850070E+02  0.61885031753E+02  0.17059706397E+03  0.18210319625E+03  0.00000000000E+00 0. -1.
        -11    1    4    4    0    0  0.21150834721E+02 -0.59047705938E+02  0.65325497668E+02  0.90561636643E+02  0.00000000000E+00 0.  1.
         11    1    4    4    0    0 -0.27244368463E+02  0.99552766825E+01  0.10732572105E+03  0.11117631738E+03  0.00000000000E+00 0. -1.
          2    1    1    2  501    0 -0.21252268310E+02 -0.16757086957E+01  0.19645492811E+02  0.28989865397E+02  0.00000000000E+00 0. -1.
<scales pt_clust_5="13000.00000" pt_clust_6="13000.00000" pt_clust_7="13000.00000" pt_clust_8="13000.00000" pt_clust_9="21.31823"></scales>
<clustering>
<clus scale="   21.318">  2  9  1 -1</clus>
<clus scale="   91.464">  5  6 -1 -1</clus>
<clus scale="   91.883">  7  8 -1 -1</clus>
<clus scale="  106.057">  1  5  2 -1</clus>
<clus scale="   21.318">  2  5  1 -1</clus>
</clustering>
</event>
<event>
 9    1  0.1464797E-005  0.8939509E+02  0.7546771E-02  0.1309209E+00
          1   -1    0    0  502    0 -0.00000000000E+00  0.00000000000E+00  0.14379845629E+03  0.14379845629E+03  0.00000000000E+00 0. -1.
         21   -1    0    0  501  502  0.00000000000E+00 -0.00000000000E+00 -0.13819247987E+03  0.13819247987E+03  0.00000000000E+00 0.  1.
         23    2    1    2    0    0  0.55922037553E+01 -0.69117501746E+01  0.79234561054E+02  0.11420578091E+03  0.81766739536E+02 0.  0.
         23    2    1    2    0    0  0.21307701389E+02 -0.22057160876E+02 -0.12982045827E+02  0.95391748271E+02  0.89389684192E+02 0.  0.
        -11    1    4    4    0    0 -0.22771238496E+02  0.12754009421E+01 -0.34269700390E+02  0.41165134702E+02  0.00000000000E+00 0.  1.
         11    1    4    4    0    0  0.44078939885E+02 -0.23332561818E+02  0.21287654563E+02  0.54226613569E+02  0.00000000000E+00 0. -1.
        -11    1    3    3    0    0  0.40390897746E+02  0.81975444659E+01  0.25626520681E+02  0.48531875280E+02  0.00000000000E+00 0. -1.
         11    1    3    3    0    0 -0.34798693990E+02 -0.15109294640E+02  0.53608040373E+02  0.65673905629E+02  0.00000000000E+00 0.  1.
          1    1    1    2  501    0 -0.26899905145E+02  0.28968911050E+02 -0.60646538805E+02  0.72393406974E+02  0.00000000000E+00 0. -1.
<scales pt_clust_5="13000.00000" pt_clust_6="13000.00000" pt_clust_7="13000.00000" pt_clust_8="13000.00000" pt_clust_9="39.53230"></scales>
<clustering>
<clus scale="   39.532">  2  9  1 -1</clus>
<clus scale="   81.767">  7  8 -1 -1</clus>
<clus scale="   81.773">  1  7  2 -1</clus>
<clus scale="   89.390">  5  6 -1 -1</clus>
<clus scale="   39.532">  2  5  1 -1</clus>
</clustering>
</event>
<event>
 9    1  0.1464797E-005  0.1027826E+03  0.7546771E-02  0.1274796E+00
         -2   -1    0    0    0  501 -0.00000000000E+00  0.00000000000E+00  0.22676851257E+03  0.22676851257E+03  0.00000000000E+00 0.  1.
         21   -1    0    0  501  502  0.00000000000E+00 -0.00000000000E+00 -0.95298944611E+02  0.95298944611E+02  0.00000000000E+00 0.  1.
         23    2    1    2    0    0 -0.41040839861E+02 -0.40121484025E+02  0.11858732041E+03  0.15986397458E+03  0.90550835389E+02 0.  0.
         23    2    1    2    0    0  0.24458539877E+02  0.27641304310E+02  0.57495842257E+02  0.11299880406E+03  0.90003866390E+02 0.  0.
        -11    1    4    4    0    0 -0.21376350316E+02  0.21444758260E+02  0.59438109577E+02  0.66706183220E+02  0.00000000000E+00 0. -1.
         11    1    4    4    0    0  0.45834890192E+02  0.61965460508E+01 -0.19422673201E+01  0.46292620840E+02  0.00000000000E+00 0.  1.
        -13    1    3    3    0    0 -0.65596274825E+02 -0.18436118126E+02  0.52204036388E+02  0.85837189712E+02  0.00000000000E+00 0.  1.
         13    1    3    3    0    0  0.24555434964E+02 -0.21685365899E+02  0.66383284017E+02  0.74026784864E+02  0.00000000000E+00 0. -1.
         -2    1    1    2    0  502  0.16582299985E+02  0.12480179714E+02 -0.44613594702E+02  0.49204678545E+02  0.00000000000E+00 0.  1.
<scales pt_clust_5="13000.00000" pt_clust_6="13000.00000" pt_clust_7="13000.00000" pt_clust_8="13000.00000" pt_clust_9="20.75398"></scales>
<clustering>
<clus scale="   20.754">  2  9  1 -1</clus>
<clus scale="   90.004">  5  6 -1 -1</clus>
<clus scale="   90.551">  7  8 -1 -1</clus>
<clus scale="  102.301">  2  5  1 -1</clus>
<clus scale="   20.754">  2  5  1 -1</clus>
</clustering>
</event>
<event>
 9    1  0.1464797E-005  0.1101946E+03  0.7546771E-02  0.1260970E+00
         -3   -1    0    0    0  501 -0.00000000000E+00  0.00000000000E+00  0.42721143732E+03  0.42721143732E+03  0.00000000000E+00 0.  1.
         21   -1    0    0  501  502  0.00000000000E+00 -0.00000000000E+00 -0.86873871315E+02  0.86873871315E+02  0.00000000000E+00 0. -1.
         23    2    1    2    0    0  0.45992661960E+02 -0.11844056672E+02  0.25564963432E+03  0.27613652761E+03  0.92946434673E+02 0.  0.
         23    2    1    2    0    0 -0.82516819717E+02  0.63815066553E+02  0.10218512661E+03  0.17206136343E+03  0.91005079143E+02 0.  0.
        -11    1    4    4    0    0 -0.11356322008E+02  0.46988544061E+02  0.24647604723E+01  0.48404177162E+02  0.00000000000E+00 0. -1.
         11    1    4    4    0    0 -0.71160497709E+02  0.16826522492E+02  0.99720366134E+02  0.12365718627E+03  0.00000000000E+00 0.  1.
        -13    1    3    3    0    0  0.43751345481E+02  0.33617524741E+02  0.10302731244E+03  0.11687149058E+03  0.00000000000E+00 0. -1.
         13    1    3    3    0    0  0.22413164792E+01 -0.45461581413E+02  0.15262232188E+03  0.15926503703E+03  0.00000000000E+00 0.  1.
         -3    1    1    2    0  502  0.36524157756E+02 -0.51971009881E+02 -0.17497194921E+02  0.65887417599E+02  0.00000000000E+00 0.  1.
<scales pt_clust_5="13000.00000" pt_clust_6="13000.00000" pt_clust_7="13000.00000" pt_clust_8="13000.00000" pt_clust_9="63.52165"></scales>
<clustering>
<clus scale="   63.522">  2  9  1 -1</clus>
<clus scale="   91.005">  5  6 -1 -1</clus>
<clus scale="   92.946">  7  8 -1 -1</clus>
<clus scale="  108.562">  2  5  1 -1</clus>
<clus scale="   63.522">  2  5  1 -1</clus>
</clustering>
</event>
<event>
 9    1  0.1464797E-005  0.9618130E+02  0.7546771E-02  0.1290230E+00
         21   -1    0    0  501  502  0.00000000000E+00  0.00000000000E+00  0.60745876684E+02  0.60745876684E+02  0.00000000000E+00 0.  1.
          1   -1    0    0  502    0 -0.00000000000E+00 -0.00000000000E+00 -0.22363138056E+03  0.22363138056E+03  0.00000000000E+00 0. -1.
         23    2    1    2    0    0 -0.69054441607E+01 -0.12484983958E+02 -0.10629951988E+03  0.14041916225E+03  0.90633289781E+02 0.  0.
         23    2    1    2    0    0  0.35852056613E+02  0.13730118711E+02 -0.54245527489E+02  0.11489033847E+03  0.93719402995E+02 0.  0.
        -13    1    4    4    0    0  0.43819802918E+02  0.36112643494E+02 -0.67080373749E+02  0.87886715095E+02  0.00000000000E+00 0.  1.
         13    1    4    4    0    0 -0.79677463051E+01 -0.22382524783E+02  0.12834846260E+02  0.27003623374E+02  0.00000000000E+00 0. -1.
        -13    1    3    3    0    0  0.10562533665E+02  0.29948412952E+02 -0.92636398419E+01  0.33080048048E+02  0.00000000000E+00 0.  1.
         13    1    3    3    0    0 -0.17467977826E+02 -0.42433396909E+02 -0.97035880039E+02  0.10733911420E+03  0.00000000000E+00 0. -1.
          1    1    1    2  501    0 -0.28946612452E+02 -0.12451347535E+01 -0.23404565115E+01  0.29067756530E+02  0.00000000000E+00 0. -1.
<scales pt_clust_5="13000.00000" pt_clust_6="13000.00000" pt_clust_7="13000.00000" pt_clust_8="13000.00000" pt_clust_9="28.97338"></scales>
<clustering>
<clus scale="   28.973">  1  9  2 -1</clus>
<clus scale="   90.633">  7  8 -1 -1</clus>
<clus scale="   93.177">  2  7  1 -1</clus>
<clus scale="   93.719">  5  6 -1 -1</clus>
<clus scale="   28.973">  1  5  2 -1</clus>
</clustering>
</event>
<event>
 9    1  0.1464797E-005  0.9653128E+02  0.7546771E-02  0.1288592E+00
          1   -1    0    0  502    0 -0.00000000000E+00  0.00000000000E+00  0.38054428847E+03  0.38054428847E+03  0.00000000000E+00 0. -1.
         21   -1    0    0  501  502  0.00000000000E+00 -0.00000000000E+00 -0.92541340471E+02  0.92541340471E+02  0.00000000000E+00 0.  1.
         23    2    1    2    0    0  0.32942744613E+02  0.19774437986E+02  0.29293868606E+03  0.30961932412E+03  0.92600211995E+02 0.  0.
         23    2    1    2    0    0  0.15514556835E+02  0.15656191768E+02  0.24184973310E+02  0.96747076565E+02  0.91045406669E+02 0.  0.
        -11    1    3    3    0    0  0.33672965567E+02  0.50361389934E+02  0.12488771303E+03  0.13880590431E+03  0.00000000000E+00 0.  1.
         11    1    3    3    0    0 -0.73022095407E+00 -0.30586951948E+02  0.16805097303E+03  0.17081341981E+03  0.00000000000E+00 0. -1.
        -11    1    4    4    0    0  0.79643416208E+01  0.53917189835E+02  0.11180904995E+02  0.55637278273E+02  0.00000000000E+00 0.  1.
         11    1    4    4    0    0  0.75502152143E+01 -0.38260998067E+02  0.13004068315E+02  0.41109798292E+02  0.00000000000E+00 0. -1.
          1    1    1    2  501    0 -0.48457301448E+02 -0.35430629755E+02 -0.29120711366E+02  0.66719228255E+02  0.00000000000E+00 0. -1.
<scales pt_clust_5="13000.00000" pt_clust_6="13000.00000" pt_clust_7="13000.00000" pt_clust_8="13000.00000" pt_clust_9="60.02866"></scales>
<clustering>
<clus scale="   60.029">  2  9  1 -1</clus>
<clus scale="   91.045">  7  8 -1 -1</clus>
<clus scale="   92.600">  5  6 -1 -1</clus>
<clus scale="   95.041">  2  7  1 -1</clus>
<clus scale="   60.029">  2  5  1 -1</clus>
</clustering>
</event>
<event>
 9    1  0.1873275E-005  0.1081371E+03  0.7546771E-02  0.1264221E+00
          3   -1    0    0  502    0 -0.00000000000E+00  0.00000000000E+00  0.34078418025E+03  0.34078418025E+03  0.00000000000E+00 0. -1.
         21   -1    0    0  501  502  0.00000000000E+00 -0.00000000000E+00 -0.16019303749E+03  0.16019303749E+03  0.00000000000E+00 0. -1.
         23    2    1    2    0    0  0.49509120992E+02  0.38861850029E+02  0.27860480023E+03  0.29987582288E+03  0.91342640579E+02 0.  0.
         23    2    1    2    0    0 -0.44069654685E+02  0.85874458267E+01 -0.11223727372E+02  0.10203820574E+03  0.90939236223E+02 0.  0.
        -11    1    4    4    0    0 -0.36499881451E+02 -0.23800408809E+02 -0.39172880506E+02  0.58593646179E+02  0.00000000000E+00 0.  1.
         11    1    4    4    0    0 -0.75697732343E+01  0.32387854635E+02  0.27949153134E+02  0.43444559563E+02  0.00000000000E+00 0. -1.
        -13    1    3    3    0    0  0.18336553764E+02 -0.28843910133E+02  0.11737737220E+03  0.12225239408E+03  0.00000000000E+00 0.  1.
         13    1    3    3    0    0  0.31172567228E+02  0.67705760163E+02  0.16122742804E+03  0.17762342880E+03  0.00000000000E+00 0. -1.
          3    1    1    2  501    0 -0.54394663069E+01 -0.47449295856E+02 -0.86789930101E+02  0.99063189116E+02  0.00000000000E+00 0. -1.
<scales pt_clust_5="13000.00000" pt_clust_6="13000.00000" pt_clust_7="13000.00000" pt_clust_8="13000.00000" pt_clust_9="47.76006"></scales>
<clustering>
<clus scale="   47.760">  2  9  1 -1</clus>
<clus scale="   90.939">  5  6 -1 -1</clus>
<clus scale="   91.343">  7  8 -1 -1</clus>
<clus scale="  107.797">  2  5  1 -1</clus>
<clus scale="   47.760">  2  5  1 -1</clus>
</clustering>
</event>
<event>
 9    1  0.1464797E-005  0.1118393E+03  0.7546771E-02  0.1257450E+00
          1   -1    0    0  502    0 -0.00000000000E+00  0.00000000000E+00  0.30214586431E+03  0.30214586431E+03  0.00000000000E+00 0. -1.
         21   -1    0    0  501  502  0.00000000000E+00 -0.00000000000E+00 -0.27920645206E+03  0.27920645206E+03  0.00000000000E+00 0. -1.
         23    2    1    2    0    0  0.49624273333E+02 -0.70618387277E+02  0.21883734240E+03  0.25172441679E+03  0.89587244930E+02 0.  0.
         23    2    1    2    0    0 -0.27931866026E+02  0.51521817626E+01  0.25277938308E+02  0.97948920415E+02  0.90267838840E+02 0.  0.
        -11    1    3    3    0    0 -0.63103865112E+01 -0.66094853296E+02  0.14008888181E+03  0.15502659584E+03  0.00000000000E+00 0. -1.
         11    1    3    3    0    0  0.55934659844E+02 -0.45235339809E+01  0.78748460583E+02  0.96697820946E+02  0.00000000000E+00 0.  1.
        -11    1    4    4    0    0 -0.58260658568E+02 -0.10300473770E+02  0.24116480780E+02  0.63890599793E+02  0.00000000000E+00 0.  1.
         11    1    4    4    0    0  0.30328792542E+02  0.15452655532E+02  0.11614575279E+01  0.34058320623E+02  0.00000000000E+00 0. -1.
          1    1    1    2  501    0 -0.21692407307E+02  0.65466205514E+02 -0.22117586846E+03  0.23167897917E+03  0.00000000000E+00 0. -1.
<scales pt_clust_5="13000.00000" pt_clust_6="13000.00000" pt_clust_7="13000.00000" pt_clust_8="13000.00000" pt_clust_9="68.96655"></scales>
<clustering>
<clus scale="   68.967">  2  9  1 -1</clus>
<clus scale="   89.587">  5  6 -1 -1</clus>
<clus scale="   90.268">  7  8 -1 -1</clus>
<clus scale="  111.291">  1  5  2 -1</clus>
<clus scale="   68.967">  2  5  1 -1</clus>
</clustering>
</event>
<event>
 9    1  0.1464797E-005  0.1060971E+03  0.7546771E-02  0.1268665E+00
         -2   -1    0    0    0  501 -0.00000000000E+00  0.00000000000E+00  0.21696031379E+03  0.21696031379E+03  0.00000000000E+00 0.  1.
         21   -1    0    0  501  502  0.00000000000E+00 -0.00000000000E+00 -0.89644986003E+02  0.89644986003E+02  0.00000000000E+00 0.  1.
         23    2    1    2    0    0 -0.20129614737E+02 -0.40907068735E+02  0.43381574234E+02  0.11121485450E+03  0.91696200664E+02 0.  0.
         23    2    1    2    0    0  0.66826322898E+02  0.16913173587E+02  0.29368326794E+02  0.11966940889E+03  0.93308391538E+02 0.  0.
        -11    1    4    4    0    0  0.54766321540E+02 -0.26775168562E+02 -0.72659401424E+01  0.61392617738E+02  0.00000000000E+00 0.  1.
         11    1    4    4    0    0  0.12060001358E+02  0.43688342149E+02  0.36634266936E+02  0.58276791147E+02  0.00000000000E+00 0. -1.
        -13    1    3    3    0    0 -0.24877179275E+02 -0.64543785764E+02  0.50989329278E+02  0.85934195927E+02  0.00000000000E+00 0.  1.
         13    1    3    3    0    0  0.47475645389E+01  0.23636717029E+02 -0.76077550445E+01  0.25280658571E+02  0.00000000000E+00 0. -1.
         -2    1    1    2    0  502 -0.46696708162E+02  0.23993895148E+02  0.54565426759E+02  0.75721036409E+02  0.00000000000E+00 0.  1.
<scales pt_clust_5="13000.00000" pt_clust_6="13000.00000" pt_clust_7="13000.00000" pt_clust_8="13000.00000" pt_clust_9="52.50040"></scales>
<clustering>
<clus scale="   52.500">  2  9  1 -1</clus>
<clus scale="   91.696">  7  8 -1 -1</clus>
<clus scale="   93.308">  5  6 -1 -1</clus>
<clus scale="  104.682">  1  7  2 -1</clus>
<clus scale="   52.500">  2  5  1 -1</clus>
</clustering>
</event>
<event>
 9    1  0.1464797E-005  0.9988324E+02  0.7546771E-02  0.1282692E+00
         21   -1    0    0  501  502  0.00000000000E+00  0.00000000000E+00  0.26182576899E+03  0.26182576899E+03  0.00000000000E+00 0. -1.
         -3   -1    0    0    0  501 -0.00000000000E+00 -0.00000000000E+00 -0.11926735177E+03  0.11926735177E+03  0.00000000000E+00 0.  1.
         23    2    1    2    0    0 -0.28839027206E+02  0.10079722335E+02 -0.72453319377E+02  0.12110655112E+03  0.92108756064E+02 0.  0.
         23    2    1    2    0    0  0.36624183385E+01 -0.14429469037E+02  0.90762040890E+02  0.13313717542E+03  0.96260773568E+02 0.  0.
        -11    1    4    4    0    0 -0.65830001818E+01  0.20418172134E+02 -0.11693872107E+02  0.24433261951E+02  0.00000000000E+00 0.  1.
         11    1    4    4    0    0  0.10245418520E+02 -0.34847641171E+02  0.10245591300E+03  0.10870391347E+03  0.00000000000E+00 0. -1.
        -13    1    3    3    0    0  0.23881480729E+02 -0.22070904587E+02 -0.11919209389E+02  0.34634051215E+02  0.00000000000E+00 0. -1.
         13    1    3    3    0    0 -0.52720507935E+02  0.32150626921E+02 -0.60534109988E+02  0.86472499909E+02  0.00000000000E+00 0.  1.
         -3    1    1    2    0  502  0.25176608868E+02  0.43497467024E+01  0.12424969570E+03  0.12684939422E+03  0.00000000000E+00 0.  1.
<scales pt_clust_5="13000.00000" pt_clust_6="13000.00000" pt_clust_7="13000.00000" pt_clust_8="13000.00000" pt_clust_9="25.54960"></scales>
<clustering>
<clus scale="   25.550">  1  9  2 -1</clus>
<clus scale="   92.109">  7  8 -1 -1</clus>
<clus scale="   95.888">  2  7  1 -1</clus>
<clus scale="   96.261">  5  6 -1 -1</clus>
<clus scale="   25.550">  1  5  2 -1</clus>
</clustering>
</event>
<event>
 9    1  0.1464797E-005  0.9735208E+02  0.7546771E-02  0.1287016E+00
         -1   -1    0    0    0  501 -0.00000000000E+00  0.00000000000E+00  0.34268409743E+03  0.34268409743E+03  0.00000000000E+00 0.  1.
         21   -1    0    0  501  502  0.00000000000E+00 -0.00000000000E+00 -0.90101158951E+02  0.90101158951E+02  0.00000000000E+00 0.  1.
         23    2    1    2    0    0 -0.70506532692E+01  0.44402249648E+02  0.25283036819E+03  0.27250707023E+03  0.91190113300E+02 0.  0.
         23    2    1    2    0    0  0.22379404316E+01 -0.31172772763E+01  0.44067605690E+02  0.99521017758E+02  0.89150172795E+02 0.  0.
        -11    1    3    3    0    0 -0.25388256786E+02  0.65306566102E+02  0.21054244703E+03  0.22189554561E+03  0.00000000000E+00 0.  1.
         11    1    3    3    0    0  0.18337603517E+02 -0.20904316454E+02  0.42287921156E+02  0.50611524624E+02  0.00000000000E+00 0. -1.
        -13    1    4    4    0    0  0.17447431430E+02 -0.41691973943E+02  0.11077027726E+02  0.46533150527E+02  0.00000000000E+00 0.  1.
         13    1    4    4    0    0 -0.15209490998E+02  0.38574696667E+02  0.32990577963E+02  0.52987867231E+02  0.00000000000E+00 0. -1.
         -1    1    1    2    0  502  0.48127128376E+01 -0.41284972372E+02 -0.44315035398E+02  0.60757168391E+02  0.00000000000E+00 0.  1.
<scales pt_clust_5="13000.00000" pt_clust_6="13000.00000" pt_clust_7="13000.00000" pt_clust_8="13000.00000" pt_clust_9="41.56454"></scales>
<clustering>
<clus scale="   41.565">  2  9  1 -1</clus>
<clus scale="   89.150">  7  8 -1 -1</clus>
<clus scale="   91.190">  5  6 -1 -1</clus>
<clus scale="   95.444">  2  7  1 -1</clus>
<clus scale="   41.565">  2  5  1 -1</clus>
</clustering>
</event>
<event>
 9    1  0.1464797E-005  0.1063655E+03  0.7546771E-02  0.1268227E+00
         -1   -1    0    0    0  501 -0.00000000000E+00  0.00000000000E+00  0.32010943559E+03  0.32010943559E+03  0.00000000000E+00 0.  1.
         21   -1    0    0  501  502  0.00000000000E+00 -0.00000000000E+00 -0.13993425992E+03  0.13993425992E+03  0.00000000000E+00 0.  1.
         23    2    1    2    0    0  0.51822598160E+02  0.69272890342E+01  0.27152743385E+03  0.29127315860E+03  0.91538716263E+02 0.  0.
         23    2    1    2    0    0 -0.36777303023E+02 -0.28610591371E+02 -0.41347180454E+02  0.11222821378E+03  0.93351200747E+02 0.  0.
        -11    1    3    3    0    0  0.63434689318E+01  0.35049544018E+02  0.19306251978E+03  0.19632077495E+03  0.00000000000E+00 0.  1.
         11    1    3    3    0    0  0.45479129228E+02 -0.28122254984E+02  0.78464914072E+02  0.94952383651E+02  0.00000000000E+00 0. -1.
        -13    1    4    4    0    0 -0.48424020694E+02 -0.45847606170E+02 -0.55755599360E+02  0.86922814219E+02  0.00000000000E+00 0.  1.
         13    1    4    4    0    0  0.11646717671E+02  0.17237014799E+02  0.14408418906E+02  0.25305399563E+02  0.00000000000E+00 0. -1.
         -1    1    1    2    0  502 -0.15045295137E+02  0.21683302337E+02 -0.50005077728E+02  0.56542323127E+02  0.00000000000E+00 0.  1.
<scales pt_clust_5="13000.00000" pt_clust_6="13000.00000" pt_clust_7="13000.00000" pt_clust_8="13000.00000" pt_clust_9="26.39179"></scales>
<clustering>
<clus scale="   26.392">  2  9  1 -1</clus>
<clus scale="   91.539">  5  6 -1 -1</clus>
<clus scale="   93.351">  7  8 -1 -1</clus>
<clus scale="  104.778">  1  5  2 -1</clus>
<clus scale="   26.392">  2  5  1 -1</clus>
</clustering>
</event>
<event>
 9    1  0.1464797E-005  0.9440201E+02  0.7546771E-02  0.1293050E+00
         21   -1    0    0  501  502  0.00000000000E+00  0.00000000000E+00  0.28144257933E+02  0.28144257933E+02  0.00000000000E+00 0. -1.
         -2   -1    0    0    0  501 -0.00000000000E+00 -0.00000000000E+00 -0.42556765214E+03  0.42556765214E+03  0.00000000000E+00 0.  1.
         23    2    1    2    0    0 -0.50099044368E+01 -0.26628938912E+02 -0.24000561621E+03  0.25794527725E+03  0.90547615723E+02 0.  0.
         23    2    1    2    0    0 -0.16341394788E+02  0.26460126197E+02 -0.12401111710E+03  0.15611929409E+03  0.89595186033E+02 0.  0.
        -13    1    3    3    0    0 -0.12957870664E+02  0.29841169145E+02 -0.50730472138E+02  0.60265932263E+02  0.00000000000E+00 0.  1.
         13    1    3    3    0    0  0.79479662271E+01 -0.56470108058E+02 -0.18927514408E+03  0.19767934499E+03  0.00000000000E+00 0. -1.
        -13    1    4    4    0    0 -0.38923048407E+02  0.25451594386E+02 -0.12512467219E+03  0.13348771833E+03  0.00000000000E+00 0.  1.
         13    1    4    4    0    0  0.22581653620E+02  0.10085318115E+01  0.11135550850E+01  0.22631575764E+02  0.00000000000E+00 0. -1.
         -2    1    1    2    0  502  0.21351299224E+02  0.16881271515E+00 -0.33406660888E+02  0.39647338725E+02  0.00000000000E+00 0.  1.
<scales pt_clust_5="13000.00000" pt_clust_6="13000.00000" pt_clust_7="13000.00000" pt_clust_8="13000.00000" pt_clust_9="21.35197"></scales>
<clustering>
<clus scale="   21.352">  1  9  2 -1</clus>
<clus scale="   89.595">  7  8 -1 -1</clus>
<clus scale="   90.548">  5  6 -1 -1</clus>
<clus scale="   93.489">  1  7  2 -1</clus>
<clus scale="   21.352">  1  5  2 -1</clus>
</clustering>
</event>
<event>
 9    1  0.1464797E-005  0.9618611E+02  0.7546771E-02  0.1289096E+00
          2   -1    0    0  502    0 -0.00000000000E+00  0.00000000000E+00  0.77419511896E+03  0.77419511896E+03  0.00000000000E+00 0. -1.
         21   -1    0    0  501  502  0.00000000000E+00 -0.00000000000E+00 -0.50901859140E+02  0.50901859140E+02  0.00000000000E+00 0. -1.
         23    2    1    2    0    0 -0.40264890393E+02 -0.79020640948E+00  0.37802752243E+03  0.39091759542E+03  0.91048738983E+02 0.  0.
         23    2    1    2    0    0 -0.17244041826E+01 -0.40509425934E+02  0.35972100728E+03  0.37353521298E+03  0.92116041476E+02 0.  0.
        -11    1    3    3    0    0 -0.63206117970E+02  0.20519050242E+02  0.21997565341E+03  0.22979410973E+03  0.00000000000E+00 0. -1.
         11    1    3    3    0    0  0.22941227577E+02 -0.21309256651E+02  0.15805186901E+03  0.16112348569E+03  0.00000000000E+00 0.  1.
        -13    1    4    4    0    0 -0.26057430878E+02  0.21557073936E+02  0.13120854372E+03  0.13549678626E+03  0.00000000000E+00 0.  1.
         13    1    4    4    0    0  0.24333026696E+02 -0.62066499870E+02  0.22851246356E+03  0.23803842673E+03  0.00000000000E+00 0. -1.
          2    1    1    2  501    0  0.41989294576E+02  0.41299632344E+02 -0.14455269892E+02  0.60644169698E+02  0.00000000000E+00 0. -1.
<scales pt_clust_5="13000.00000" pt_clust_6="13000.00000" pt_clust_7="13000.00000" pt_clust_8="13000.00000" pt_clust_9="58.89618"></scales>
<clustering>
<clus scale="   58.896">  2  9  1 -1</clus>
<clus scale="   91.049">  5  6 -1 -1</clus>
<clus scale="   92.116">  7  8 -1 -1</clus>
<clus scale="   95.164">  1  5  2 -1</clus>
<clus scale="   58.896">  2  5  1 -1</clus>
</clustering>
</event>
<event>
 9    1  0.1464797E-005  0.1596090E+03  0.7546771E-02  0.1213551E+00
         21   -1    0    0  501  502  0.00000000000E+00  0.00000000000E+00  0.47339017741E+02  0.47339017741E+02  0.00000000000E+00 0.  1.
         -1   -1    0    0    0  501 -0.00000000000E+00 -0.00000000000E+00 -0.10152654683E+04  0.10152654683E+04  0.00000000000E+00 0.  1.
         23    2    1    2    0    0 -0.21134524282E+02  0.14613519531E+02 -0.50999439627E+03  0.51859148648E+03  0.90457849559E+02 0.  0.
         23    2    1    2    0    0  0.11114751321E+03  0.80060382117E+02 -0.25512486816E+03  0.30277402973E+03  0.88430652188E+02 0.  0.
        -11    1    3    3    0    0 -0.54598045206E+02 -0.53371060368E+01 -0.28058919529E+03  0.28590160502E+03  0.00000000000E+00 0. -1.
         11    1    3    3    0    0  0.33463520923E+02  0.19950625568E+02 -0.22940520098E+03  0.23268988146E+03  0.00000000000E+00 0.  1.
        -13    1    4    4    0    0  0.23539778716E+02 -0.17442121277E+02 -0.70536610861E+02  0.76379069440E+02  0.00000000000E+00 0. -1.
         13    1    4    4    0    0  0.87607734489E+02  0.97502503394E+02 -0.18458825730E+03  0.22639496029E+03  0.00000000000E+00 0.  1.
         -1    1    1    2    0  502 -0.90012988923E+02 -0.94673901648E+02 -0.20280718617E+03  0.24123896988E+03  0.00000000000E+00 0.  1.
<scales pt_clust_5="13000.00000" pt_clust_6="13000.00000" pt_clust_7="13000.00000" pt_clust_8="13000.00000" pt_clust_9="132.87236"></scales>
<clustering>
<clus scale="   88.431">  7  8 -1 -1</clus>
<clus scale="   90.458">  5  6 -1 -1</clus>
<clus scale="   94.036">  2  5  1 -1</clus>
<clus scale="  132.872">  1  9  2 -1</clus>
<clus scale="  132.872">  1  5  2 -1</clus>
</clustering>
</event>
<event>
 9    1  0.1464797E-005  0.1443916E+03  0.7546771E-02  0.1224075E+00
         -1   -1    0    0    0  501 -0.00000000000E+00  0.00000000000E+00  0.25479123466E+03  0.25479123466E+03  0.00000000000E+00 0.  1.
         21   -1    0    0  501  502  0.00000000000E+00 -0.00000000000E+00 -0.14320978177E+03  0.14320978177E+03  0.00000000000E+00 0.  1.
         23    2    1    2    0    0  0.12995813443E+02  0.43632972493E+02  0.36821054616E+02  0.10823878244E+03  0.91033600968E+02 0.  0.
         23    2    1    2    0    0  0.33860038558E+02  0.79763660192E+02  0.99155757721E+02  0.15553357317E+03  0.82765236640E+02 0.  0.
        -11    1    4    4    0    0  0.58432770435E+02  0.36565908668E+02  0.68290640270E+02  0.97031262415E+02  0.00000000000E+00 0.  1.
         11    1    4    4    0    0 -0.24572731877E+02  0.43197751524E+02  0.30865117451E+02  0.58502310757E+02  0.00000000000E+00 0. -1.
        -13    1    3    3    0    0  0.31765934406E+00 -0.20730139158E+02  0.37257371469E+02  0.42637440188E+02  0.00000000000E+00 0.  1.
         13    1    3    3    0    0  0.12678154099E+02  0.64363111651E+02 -0.43631685374E+00  0.65601342251E+02  0.00000000000E+00 0. -1.
         -1    1    1    2    0  502 -0.46855852001E+02 -0.12339663269E+03 -0.24395359443E+02  0.13422866083E+03  0.00000000000E+00 0.  1.
<scales pt_clust_5="13000.00000" pt_clust_6="13000.00000" pt_clust_7="13000.00000" pt_clust_8="13000.00000" pt_clust_9="118.31674"></scales>
<clustering>
<clus scale="   82.765">  5  6 -1 -1</clus>
<clus scale="   91.034">  7  8 -1 -1</clus>
<clus scale="  101.783">  1  7  2 -1</clus>
<clus scale="  118.317">  2  9  1 -1</clus>
<clus scale="  118.317">  2  5  1 -1</clus>
</clustering>
</event>
<event>
 9    1  0.1464797E-005  0.2235064E+03  0.7546771E-02  0.1141407E+00
          1   -1    0    0  502    0 -0.00000000000E+00  0.00000000000E+00  0.11141545397E+04  0.11141545397E+04  0.00000000000E+00 0. -1.
         21   -1    0    0  501  502  0.00000000000E+00 -0.00000000000E+00 -0.71000638432E+03  0.71000638432E+03  0.00000000000E+00 0. -1.
         23    2    1    2    0    0  0.27731368285E+02  0.14611192167E+03  0.24802395734E+03  0.30346069570E+03  0.91949921032E+02 0.  0.
         23    2    1    2    0    0  0.17295376008E+03 -0.19387065896E+03  0.79952883384E+03  0.84503393262E+03  0.85657198214E+02 0.  0.
        -11    1    3    3    0    0  0.30590825033E+02  0.10971923819E+03  0.24061211643E+03  0.26621100725E+03  0.00000000000E+00 0. -1.
         11    1    3    3    0    0 -0.28594567484E+01  0.36392683483E+02  0.74118409041E+01  0.37249688449E+02  0.00000000000E+00 0.  1.
        -13    1    4    4    0    0  0.68080597219E+02 -0.56027292096E+02  0.39957669980E+03  0.40918891016E+03  0.00000000000E+00 0. -1.
         13    1    4    4    0    0  0.10487316286E+03 -0.13784336687E+03  0.39995213403E+03  0.43584502245E+03  0.00000000000E+00 0.  1.
          1    1    1    2  501    0 -0.20068512836E+03  0.47758737293E+02 -0.64340463582E+03  0.67566629569E+03  0.00000000000E+00 0. -1.
<scales pt_clust_5="13000.00000" pt_clust_6="13000.00000" pt_clust_7="13000.00000" pt_clust_8="13000.00000" pt_clust_9="206.44120"></scales>
<clustering>
<clus scale="   85.657">  7  8 -1 -1</clus>
<clus scale="   91.950">  5  6 -1 -1</clus>
<clus scale="  174.850">  1  5  2 -1</clus>
<clus scale="  206.441">  2  9  1 -1</clus>
<clus scale="  206.441">  2  5  1 -1</clus>
</clustering>
</event>
<event>
 9    1  0.1464797E-005  0.9614947E+02  0.7546771E-02  0.1290864E+00
         21   -1    0    0  501  502  0.00000000000E+00  0.00000000000E+00  0.46902168784E+03  0.46902168784E+03  0.00000000000E+00 0. -1.
          1   -1    0    0  502    0 -0.00000000000E+00 -0.00000000000E+00 -0.63411457294E+02  0.63411457294E+02  0.00000000000E+00 0. -1.
         23    2    1    2    0    0 -0.10251411610E+02 -0.14728224862E+02  0.48317910186E+02  0.10386996675E+03  0.90179473825E+02 0.  0.
         23    2    1    2    0    0 -0.53505576115E+02 -0.77250342432E+01  0.60880355497E+02  0.12454154225E+03  0.94242534084E+02 0.  0.
        -11    1    4    4    0    0 -0.62511215069E+02 -0.32212659415E+02  0.15217902945E+02  0.71950621999E+02  0.00000000000E+00 0. -1.
         11    1    4    4    0    0  0.90056389538E+01  0.24487625172E+02  0.45662452552E+02  0.52590920248E+02  0.00000000000E+00 0.  1.
        -11    1    3    3    0    0  0.32582809596E+02  0.18436910857E+02  0.15407769258E+02  0.40484052621E+02  0.00000000000E+00 0. -1.
         11    1    3    3    0    0 -0.42834221206E+02 -0.33165135719E+02  0.32910140928E+02  0.63385914125E+02  0.00000000000E+00 0.  1.
          1    1    1    2  501    0  0.63756987725E+02  0.22453259105E+02  0.29641196487E+03  0.30402163615E+03  0.00000000000E+00 0. -1.
<scales pt_clust_5="13000.00000" pt_clust_6="13000.00000" pt_clust_7="13000.00000" pt_clust_8="13000.00000" pt_clust_9="67.59514"></scales>
<clustering>
<clus scale="   67.595">  1  9  2 -1</clus>
<clus scale="   90.179">  7  8 -1 -1</clus>
<clus scale="   92.171">  2  7  1 -1</clus>
<clus scale="   94.243">  5  6 -1 -1</clus>
<clus scale="   67.595">  1  5  2 -1</clus>
</clustering>
</event>
<event>
 9    1  0.1464797E-005  0.9244457E+02  0.7546771E-02  0.1297456E+00
         21   -1    0    0  501  502  0.00000000000E+00  0.00000000000E+00  0.26156356641E+03  0.26156356641E+03  0.00000000000E+00 0.  1.
         -2   -1    0    0    0  501 -0.00000000000E+00 -0.00000000000E+00 -0.10801686002E+03  0.10801686002E+03  0.00000000000E+00 0.  1.
         23    2    1    2    0    0  0.16533928866E+01  0.90493459861E+01 -0.54561974330E+02  0.10698574653E+03  0.91565913673E+02 0.  0.
         23    2    1    2    0    0 -0.43061684404E+02 -0.38771024846E+01  0.82101759153E+02  0.12985756003E+03  0.90845728873E+02 0.  0.
        -11    1    4    4    0    0 -0.21980572330E+02  0.43278941197E+02  0.45674693861E+02  0.66651256331E+02  0.00000000000E+00 0.  1.
         11    1    4    4    0    0 -0.21081112075E+02 -0.47156043682E+02  0.36427065292E+02  0.63206303703E+02  0.00000000000E+00 0. -1.
        -11    1    3    3    0    0  0.28777085851E+02 -0.94229147364E+01 -0.65690571343E+02  0.72333693087E+02  0.00000000000E+00 0.  1.
         11    1    3    3    0    0 -0.27123692964E+02  0.18472260722E+02  0.11128597013E+02  0.34652053442E+02  0.00000000000E+00 0. -1.
         -2    1    1    2    0  502  0.41408291518E+02 -0.51722435014E+01  0.12600692156E+03  0.13273711987E+03  0.00000000000E+00 0.  1.
<scales pt_clust_5="13000.00000" pt_clust_6="13000.00000" pt_clust_7="13000.00000" pt_clust_8="13000.00000" pt_clust_9="41.73007"></scales>
<clustering>
<clus scale="   41.730">  1  9  2 -1</clus>
<clus scale="   90.846">  5  6 -1 -1</clus>
<clus scale="   91.566">  7  8 -1 -1</clus>
<clus scale="   91.731">  1  5  2 -1</clus>
<clus scale="   41.730">  1  5  2 -1</clus>
</clustering>
</event>
<event>
 9    1  0.1464797E-005  0.3382151E+03  0.7546771E-02  0.1112620E+00
          1   -1    0    0  502    0 -0.00000000000E+00  0.00000000000E+00  0.18611006914E+04  0.18611006914E+04  0.00000000000E+00 0. -1.
         21   -1    0    0  501  502  0.00000000000E+00 -0.00000000000E+00 -0.11447237975E+03  0.11447237975E+03  0.00000000000E+00 0. -1.
         23    2    1    2    0    0 -0.82483786183E+01  0.46103463990E+02  0.46946973299E+03  0.48057904563E+03  0.91437540246E+02 0.  0.
         23    2    1    2    0    0 -0.24925255326E+03 -0.23638596809E+03  0.10322866839E+04  0.10919104037E+04  0.92991240908E+02 0.  0.
        -11    1    4    4    0    0 -0.44163309838E+02 -0.66830209102E+02  0.14592244682E+03  0.16646331509E+03  0.00000000000E+00 0.  1.
         11    1    4    4    0    0 -0.20508924342E+03 -0.16955575899E+03  0.88636423704E+03  0.92544708865E+03  0.00000000000E+00 0. -1.
        -13    1    3    3    0    0 -0.14322786833E+02  0.73290970108E+02  0.32818551887E+03  0.33657457319E+03  0.00000000000E+00 0.  1.
         13    1    3    3    0    0  0.60744082146E+01 -0.27187506118E+02  0.14128421411E+03  0.14400447244E+03  0.00000000000E+00 0. -1.
          1    1    1    2  501    0  0.25750093188E+03  0.19028250410E+03  0.24487189479E+03  0.40308362178E+03  0.00000000000E+00 0. -1.
<scales pt_clust_5="13000.00000" pt_clust_6="13000.00000" pt_clust_7="13000.00000" pt_clust_8="13000.00000" pt_clust_9="325.18012"></scales>
<clustering>
<clus scale="   91.438">  7  8 -1 -1</clus>
<clus scale="   92.991">  5  6 -1 -1</clus>
<clus scale="  102.735">  1  7  2 -1</clus>
<clus scale="  325.180">  2  9  1 -1</clus>
<clus scale="  325.180">  2  5  1 -1</clus>
</clustering>
</event>
<event>
 9    1  0.1464797E-005  0.9793889E+02  0.7546771E-02  0.1285844E+00
         -4   -1    0    0    0  501 -0.00000000000E+00  0.00000000000E+00  0.51347381028E+02  0.51347381028E+02  0.00000000000E+00 0.  1.
         21   -1    0    0  501  502  0.00000000000E+00 -0.00000000000E+00 -0.24737354896E+03  0.24737354896E+03  0.00000000000E+00 0. -1.
         23    2    1    2    0    0 -0.14500676512E+02  0.11745636521E+02 -0.84911811782E+02  0.12671224100E+03  0.92183223218E+02 0.  0.
         23    2    1    2    0    0  0.34269936203E+02 -0.33450453337E+02 -0.84267895264E+02  0.13222609023E+03  0.89940532629E+02 0.  0.
        -11    1    4    4    0    0  0.28989254138E+02  0.97798916743E+00  0.10821107409E+02  0.30958515530E+02  0.00000000000E+00 0.  1.
         11    1    4    4    0    0  0.52806820653E+01 -0.34428442504E+02 -0.95089002673E+02  0.10126757470E+03  0.00000000000E+00 0. -1.
        -13    1    3    3    0    0  0.38103068095E+02  0.72194943645E+01 -0.50569463684E+02  0.63727824021E+02  0.00000000000E+00 0.  1.
         13    1    3    3    0    0 -0.52603744607E+02  0.45261421566E+01 -0.34342348098E+02  0.62984416980E+02  0.00000000000E+00 0. -1.
         -4    1    1    2    0  502 -0.19769259691E+02  0.21704816816E+02 -0.26846460886E+02  0.39782598757E+02  0.00000000000E+00 0.  1.
<scales pt_clust_5="13000.00000" pt_clust_6="13000.00000" pt_clust_7="13000.00000" pt_clust_8="13000.00000" pt_clust_9="29.35852"></scales>
<clustering>
<clus scale="   29.359">  2  9  1 -1</clus>
<clus scale="   89.941">  5  6 -1 -1</clus>
<clus scale="   92.183">  7  8 -1 -1</clus>
<clus scale="   95.831">  2  5  1 -1</clus>
<clus scale="   29.359">  2  5  1 -1</clus>
</clustering>
</event>
<event>
 9    1  0.1464797E-005  0.1156304E+03  0.7546771E-02  0.1250620E+00
          2   -1    0    0  502    0 -0.00000000000E+00  0.00000000000E+00  0.18903522372E+03  0.18903522372E+03  0.00000000000E+00 0. -1.
         21   -1    0    0  501  502  0.00000000000E+00 -0.00000000000E+00 -0.14124102183E+03  0.14124102183E+03  0.00000000000E+00 0. -1.
         23    2    1    2    0    0 -0.50507255853E+02  0.57835616542E+02  0.71807259639E+02  0.13944762631E+03  0.91615590986E+02 0.  0.
         23    2    1    2    0    0  0.56485720196E+02 -0.31137729945E+02  0.41539549214E+02  0.11979578554E+03  0.92007071857E+02 0.  0.
        -11    1    3    3    0    0 -0.27454908472E+02 -0.20916603970E+02  0.78155370103E+01  0.35388683779E+02  0.00000000000E+00 0.  1.
         11    1    3    3    0    0 -0.23052347380E+02  0.78752220513E+02  0.63991722629E+02  0.10405894253E+03  0.00000000000E+00 0. -1.
        -13    1    4    4    0    0 -0.47208255124E+01 -0.48495949941E+02  0.16963168977E+02  0.51593531144E+02  0.00000000000E+00 0.  1.
         13    1    4    4    0    0  0.61206545709E+02  0.17358219995E+02  0.24576380238E+02  0.68202254395E+02  0.00000000000E+00 0. -1.
          2    1    1    2  501    0 -0.59784643438E+01 -0.26697886597E+02 -0.65552606962E+02  0.71032833705E+02  0.00000000000E+00 0. -1.
<scales pt_clust_5="13000.00000" pt_clust_6="13000.00000" pt_clust_7="13000.00000" pt_clust_8="13000.00000" pt_clust_9="27.35908"></scales>
<clustering>
<clus scale="   27.359">  2  9  1 -1</clus>
<clus scale="   91.616">  5  6 -1 -1</clus>
<clus scale="   92.007">  7  8 -1 -1</clus>
<clus scale="  115.319">  1  5  2 -1</clus>
<clus scale="   27.359">  2  5  1 -1</clus>
</clustering>
</event>
<event>
 9    1  0.1464797E-005  0.1708427E+03  0.7546771E-02  0.1197099E+00
          1   -1    0    0  502    0 -0.00000000000E+00  0.00000000000E+00  0.12382818945E+03  0.12382818945E+03  0.00000000000E+00 0. -1.
         21   -1    0    0  501  502  0.00000000000E+00 -0.00000000000E+00 -0.82133594204E+03  0.82133594204E+03  0.00000000000E+00 0. -1.
         23    2    1    2    0    0 -0.61707244856E+01 -0.59156183758E+02 -0.51313437216E+02  0.12071153197E+03  0.91655186403E+02 0.  0.
         23    2    1    2    0    0 -0.64028511963E+02 -0.72009930620E+02  0.26039265931E+02  0.13595389205E+03  0.92305671231E+02 0.  0.
        -11    1    3    3    0    0  0.23845696750E+02 -0.20771302567E+02 -0.63097922981E+02  0.70579119776E+02  0.00000000000E+00 0.  1.
         11    1    3    3    0    0 -0.30016421236E+02 -0.38384881191E+02  0.11784485765E+02  0.50132412196E+02  0.00000000000E+00 0. -1.
        -13    1    4    4    0    0  0.28839062973E+01 -0.31012134475E+02 -0.27014331278E+02  0.41229158306E+02  0.00000000000E+00 0.  1.
         13    1    4    4    0    0 -0.66912418260E+02 -0.40997796145E+02  0.53053597209E+02  0.94724733745E+02  0.00000000000E+00 0. -1.
          1    1    1    2  501    0  0.70199236448E+02  0.13116611438E+03 -0.67223358130E+03  0.68849870747E+03  0.00000000000E+00 0. -1.
<scales pt_clust_5="13000.00000" pt_clust_6="13000.00000" pt_clust_7="13000.00000" pt_clust_8="13000.00000" pt_clust_9="143.75985"></scales>
<clustering>
<clus scale="   91.655">  5  6 -1 -1</clus>
<clus scale="   92.306">  7  8 -1 -1</clus>
<clus scale="  109.262">  1  5  2 -1</clus>
<clus scale="  143.760">  2  9  1 -1</clus>
<clus scale="  143.760">  2  5  1 -1</clus>
</clustering>
</event>
<event>
 9    1  0.1464797E-005  0.2217307E+03  0.7546771E-02  0.1132688E+00
          1   -1    0    0  502    0 -0.00000000000E+00  0.00000000000E+00  0.95492063902E+03  0.95492063902E+03  0.00000000000E+00 0. -1.
         21   -1    0    0  501  502  0.00000000000E+00 -0.00000000000E+00 -0.10881563734E+03  0.10881563734E+03  0.00000000000E+00 0. -1.
         23    2    1    2    0    0  0.19977681686E+03 -0.11579264616E+02  0.69031549311E+03  0.72455666947E+03  0.91662595006E+02 0.  0.
         23    2    1    2    0    0 -0.20844161133E+03 -0.20138613074E+02  0.18613871030E+03  0.29443392025E+03  0.90499971565E+02 0.  0.
        -11    1    4    4    0    0 -0.73475879234E+02 -0.14919269172E+02  0.15075128074E+02  0.76475806032E+02  0.00000000000E+00 0.  1.
         11    1    4    4    0    0 -0.13496573209E+03 -0.52193439021E+01  0.17106358222E+03  0.21795811422E+03  0.00000000000E+00 0. -1.
        -13    1    3    3    0    0  0.68906651724E+02 -0.10588443830E+02  0.11448695480E+03  0.13404292079E+03  0.00000000000E+00 0.  1.
         13    1    3    3    0    0  0.13087016514E+03 -0.99082078621E+00  0.57582853831E+03  0.59051374868E+03  0.00000000000E+00 0. -1.
          1    1    1    2  501    0  0.86647944645E+01  0.31717877690E+02 -0.30349201723E+02  0.44745686646E+02  0.00000000000E+00 0. -1.
<scales pt_clust_5="13000.00000" pt_clust_6="13000.00000" pt_clust_7="13000.00000" pt_clust_8="13000.00000" pt_clust_9="32.88012"></scales>
<clustering>
<clus scale="   32.880">  2  9  1 -1</clus>
<clus scale="   90.500">  5  6 -1 -1</clus>
<clus scale="   91.663">  7  8 -1 -1</clus>
<clus scale="  221.253">  2  5  1 -1</clus>
<clus scale="   32.880">  2  5  1 -1</clus>
</clustering>
</event>
<event>
 9    1  0.1464797E-005  0.1612243E+03  0.7546771E-02  0.1210493E+00
         21   -1    0    0  501  502  0.00000000000E+00  0.00000000000E+00  0.92609351701E+02  0.92609351701E+02  0.00000000000E+00 0. -1.
          2   -1    0    0  502    0 -0.00000000000E+00 -0.00000000000E+00 -0.44069218775E+03  0.44069218775E+03  0.00000000000E+00 0. -1.
         23    2    1    2    0    0 -0.28102620263E+02 -0.13959333807E+02 -0.36582922996E+02  0.10401801612E+03  0.92178181565E+02 0.  0.
         23    2    1    2    0    0 -0.96601413162E+02 -0.63718168534E+02 -0.16252499815E+03  0.22005060147E+03  0.92822702797E+02 0.  0.
        -11    1    3    3    0    0 -0.59320583946E+02 -0.24162331513E+02 -0.28995687317E+02  0.70310026503E+02  0.00000000000E+00 0. -1.
         11    1    3    3    0    0  0.31217963683E+02  0.10202997707E+02 -0.75872356789E+01  0.33707989616E+02  0.00000000000E+00 0.  1.
        -13    1    4    4    0    0  0.81314055883E-01 -0.24952172954E+02  0.23121731241E+01  0.25059203732E+02  0.00000000000E+00 0.  1.
         13    1    4    4    0    0 -0.96682727218E+02 -0.38765995580E+02 -0.16483717128E+03  0.19499139773E+03  0.00000000000E+00 0. -1.
          2    1    1    2  501    0  0.12470403342E+03  0.77677502341E+02 -0.14897491489E+03  0.20923292186E+03  0.00000000000E+00 0. -1.
<scales pt_clust_5="13000.00000" pt_clust_6="13000.00000" pt_clust_7="13000.00000" pt_clust_8="13000.00000" pt_clust_9="131.82278"></scales>
<clustering>
<clus scale="   92.178">  5  6 -1 -1</clus>
<clus scale="   92.823">  7  8 -1 -1</clus>
<clus scale="   97.373">  2  5  1 -1</clus>
<clus scale="  131.823">  1  9  2 -1</clus>
<clus scale="  131.823">  1  5  2 -1</clus>
</clustering>
</event>
<event>
 9    1  0.1464797E-005  0.1061989E+03  0.7546771E-02  0.1270384E+00
          2   -1    0    0  502    0 -0.00000000000E+00  0.00000000000E+00  0.32039465349E+03  0.32039465349E+03  0.00000000000E+00 0. -1.
         21   -1    0    0  501  502  0.00000000000E+00 -0.00000000000E+00 -0.80260808053E+02  0.80260808053E+02  0.00000000000E+00 0.  1.
         23    2    1    2    0    0 -0.45482458774E+02  0.18588241166E+02  0.15169053151E+03  0.18285635630E+03  0.89511188819E+02 0.  0.
         23    2    1    2    0    0 -0.24193608552E+01 -0.71256447234E+02  0.85408342034E+02  0.14654087548E+03  0.95374570610E+02 0.  0.
        -11    1    3    3    0    0  0.70230944886E+01  0.41162619235E+02  0.42319480943E+02  0.59452700071E+02  0.00000000000E+00 0. -1.
         11    1    3    3    0    0 -0.52505553262E+02 -0.22574378069E+02  0.10937105056E+03  0.12340365622E+03  0.00000000000E+00 0.  1.
        -13    1    4    4    0    0 -0.32927000774E+02 -0.12397132168E+02 -0.38083055891E+01  0.35388973670E+02  0.00000000000E+00 0.  1.
         13    1    4    4    0    0  0.30507639919E+02 -0.58859315066E+02  0.89216647623E+02  0.11115190181E+03  0.00000000000E+00 0. -1.
          2    1    1    2  501    0  0.47901819629E+02  0.52668206068E+02  0.30349718929E+01  0.71258229760E+02  0.00000000000E+00 0. -1.
<scales pt_clust_5="13000.00000" pt_clust_6="13000.00000" pt_clust_7="13000.00000" pt_clust_8="13000.00000" pt_clust_9="71.19357"></scales>
<clustering>
<clus scale="   71.194">  2  9  1 -1</clus>
<clus scale="   89.511">  5  6 -1 -1</clus>
<clus scale="   95.375">  7  8 -1 -1</clus>
<clus scale="  100.966">  1  5  2 -1</clus>
<clus scale="   71.194">  2  5  1 -1</clus>
</clustering>
</event>
<event>
 9    1  0.1464797E-005  0.9395118E+02  0.7546771E-02  0.1301063E+00
         21   -1    0    0  501  502  0.00000000000E+00  0.00000000000E+00  0.51048112665E+02  0.51048112665E+02  0.00000000000E+00 0.  1.
          1   -1    0    0  502    0 -0.00000000000E+00 -0.00000000000E+00 -0.28048018553E+03  0.28048018553E+03  0.00000000000E+00 0. -1.
         23    2    1    2    0    0 -0.88568329181E+01  0.11495475220E+01 -0.17932601049E+03  0.19716683042E+03  0.81468865394E+02 0.  0.
         23    2    1    2    0    0 -0.72178788883E+01 -0.16199840311E+02 -0.57230991105E+02  0.11121687268E+03  0.93697779181E+02 0.  0.
        -11    1    3    3    0    0  0.91284416203E+01  0.33007831278E+02 -0.13702629636E+03  0.14124111039E+03  0.00000000000E+00 0. -1.
         11    1    3    3    0    0 -0.17985274538E+02 -0.31858283756E+02 -0.42299714138E+02  0.55925720025E+02  0.00000000000E+00 0.  1.
        -13    1    4    4    0    0  0.38298808136E+02 -0.13768703937E+02 -0.36371680920E+01  0.40860799117E+02  0.00000000000E+00 0. -1.
         13    1    4    4    0    0 -0.45516687024E+02 -0.24311363746E+01 -0.53593823013E+02  0.70356073560E+02  0.00000000000E+00 0.  1.
          1    1    1    2  501    0  0.16074711806E+02  0.15050292789E+02  0.71249287366E+01  0.23144595097E+02  0.00000000000E+00 0. -1.
<scales pt_clust_5="13000.00000" pt_clust_6="13000.00000" pt_clust_7="13000.00000" pt_clust_8="13000.00000" pt_clust_9="22.02062"></scales>
<clustering>
<clus scale="   22.021">  1  9  2 -1</clus>
<clus scale="   81.469">  5  6 -1 -1</clus>
<clus scale="   81.760">  2  5  1 -1</clus>
<clus scale="   93.698">  7  8 -1 -1</clus>
<clus scale="   22.021">  1  5  2 -1</clus>
</clustering>
</event>
<event>
 9    1  0.1464797E-005  0.1022265E+03  0.7546771E-02  0.1277797E+00
          1   -1    0    0  502    0 -0.00000000000E+00  0.00000000000E+00  0.70446259573E+03  0.70446259573E+03  0.00000000000E+00 0. -1.
         21   -1    0    0  501  502  0.00000000000E+00 -0.00000000000E+00 -0.41266704232E+02  0.41266704232E+02  0.00000000000E+00 0. -1.
         23    2    1    2    0    0 -0.65445716019E+01  0.48841175621E+02  0.51197302805E+03  0.52306531358E+03  0.95145409547E+02 0.  0.
         23    2    1    2    0    0  0.10779823637E+02 -0.90072327958E+01  0.15729017884E+03  0.18214864760E+03  0.90777720975E+02 0.  0.
        -11    1    4    4    0    0  0.37510155327E+02 -0.35061237257E+02  0.11372990401E+03  0.12478298432E+03  0.00000000000E+00 0.  1.
         11    1    4    4    0    0 -0.26730331689E+02  0.26054004461E+02  0.43560274827E+02  0.57365663282E+02  0.00000000000E+00 0. -1.
        -11    1    3    3    0    0  0.38011032219E+02 -0.11964598908E+01  0.13831058305E+03  0.14344367351E+03  0.00000000000E+00 0.  1.
         11    1    3    3    0    0 -0.44555603821E+02  0.50037635511E+02  0.37366244500E+03  0.37962164006E+03  0.00000000000E+00 0. -1.
          1    1    1    2  501    0 -0.42352520353E+01 -0.39833942825E+02 -0.60673153907E+01  0.40515338784E+02  0.00000000000E+00 0. -1.
<scales pt_clust_5="13000.00000" pt_clust_6="13000.00000" pt_clust_7="13000.00000" pt_clust_8="13000.00000" pt_clust_9="40.05846"></scales>
<clustering>
<clus scale="   40.058">  2  9  1 -1</clus>
<clus scale="   90.778">  5  6 -1 -1</clus>
<clus scale="   95.145">  7  8 -1 -1</clus>
<clus scale="   98.174">  2  5  1 -1</clus>
<clus scale="   40.058">  2  5  1 -1</clus>
</clustering>
</event>
<event>
 9    1  0.1464797E-005  0.1072094E+03  0.7546771E-02  0.1266235E+00
         21   -1    0    0  501  502  0.00000000000E+00  0.00000000000E+00  0.28435311839E+03  0.28435311839E+03  0.00000000000E+00 0. -1.
         -2   -1    0    0    0  501 -0.00000000000E+00 -0.00000000000E+00 -0.95086626499E+02  0.95086626499E+02  0.00000000000E+00 0.  1.
         23    2    1    2    0    0 -0.38041949928E+02 -0.44985159691E+02 -0.10719384543E+02  0.10895022141E+03  0.91018629924E+02 0.  0.
         23    2    1    2    0    0 -0.12398650893E+02  0.67726907246E+02  0.81099366184E+02  0.13935812521E+03  0.90016217191E+02 0.  0.
        -11    1    3    3    0    0 -0.12229270571E+02  0.25898505482E+02  0.10630577530E+02  0.30549907095E+02  0.00000000000E+00 0. -1.
         11    1    3    3    0    0 -0.25812679357E+02 -0.70883665173E+02 -0.21349962073E+02  0.78400314313E+02  0.00000000000E+00 0.  1.
        -11    1    4    4    0    0 -0.43569574274E+02  0.46754253917E+02  0.79160940281E+02  0.10173850072E+03  0.00000000000E+00 0. -1.
         11    1    4    4    0    0  0.31170923381E+02  0.20972653328E+02  0.19384259031E+01  0.37619624494E+02  0.00000000000E+00 0.  1.
         -2    1    1    2    0  502  0.50440600821E+02 -0.22741747555E+02  0.11888651025E+03  0.13113139827E+03  0.00000000000E+00 0.  1.
<scales pt_clust_5="13000.00000" pt_clust_6="13000.00000" pt_clust_7="13000.00000" pt_clust_8="13000.00000" pt_clust_9="55.33029"></scales>
<clustering>
<clus scale="   55.330">  1  9  2 -1</clus>
<clus scale="   90.016">  7  8 -1 -1</clus>
<clus scale="   91.019">  5  6 -1 -1</clus>
<clus scale="  106.360">  1  7  2 -1</clus>
<clus scale="   55.330">  1  5  2 -1</clus>
</clustering>
</event>
<event>
 9    1  0.1464797E-005  0.1182768E+03  0.7546771E-02  0.1247285E+00
         21   -1    0    0  501  502  0.00000000000E+00  0.00000000000E+00  0.37982977289E+02  0.37982977289E+02  0.00000000000E+00 0. -1.
          1   -1    0    0  502    0 -0.00000000000E+00 -0.00000000000E+00 -0.46386001063E+03  0.46386001063E+03  0.00000000000E+00 0. -1.
         23    2    1    2    0    0  0.68619509458E+02  0.17063019967E+01 -0.22994058132E+03  0.25709385742E+03  0.92266093661E+02 0.  0.
         23    2    1    2    0    0 -0.80888292233E+02  0.19920968581E+02 -0.16929161689E+03  0.20830452730E+03  0.88268701892E+02 0.  0.
        -13    1    4    4    0    0 -0.65836358967E+02  0.53326364819E+02 -0.11928451621E+03  0.14631104933E+03  0.00000000000E+00 0. -1.
         13    1    4    4    0    0 -0.15051933267E+02 -0.33405396237E+02 -0.50007100679E+02  0.61993477973E+02  0.00000000000E+00 0.  1.
        -13    1    3    3    0    0  0.54560674343E+02 -0.40867030516E+02 -0.11455084235E+03  0.13329995068E+03  0.00000000000E+00 0. -1.
         13    1    3    3    0    0  0.14058835115E+02  0.42573332513E+02 -0.11538973897E+03  0.12379390674E+03  0.00000000000E+00 0.  1.
          1    1    1    2  501    0  0.12268782775E+02 -0.21627270578E+02 -0.26644835129E+02  0.36444603201E+02  0.00000000000E+00 0. -1.
<scales pt_clust_5="13000.00000" pt_clust_6="13000.00000" pt_clust_7="13000.00000" pt_clust_8="13000.00000" pt_clust_9="24.86487"></scales>
<clustering>
<clus scale="   24.865">  1  9  2 -1</clus>
<clus scale="   88.269">  5  6 -1 -1</clus>
<clus scale="   92.266">  7  8 -1 -1</clus>
<clus scale="  115.186">  1  5  2 -1</clus>
<clus scale="   24.865">  1  5  2 -1</clus>
</clustering>
</event>
<event>
 9    1  0.1464797E-005  0.9992271E+02  0.7546771E-02  0.1287646E+00
          1   -1    0    0  502    0 -0.00000000000E+00  0.00000000000E+00  0.12813241846E+03  0.12813241846E+03  0.00000000000E+00 0. -1.
         21   -1    0    0  501  502  0.00000000000E+00 -0.00000000000E+00 -0.15227392970E+03  0.15227392970E+03  0.00000000000E+00 0. -1.
         23    2    1    2    0    0 -0.29488147662E+02 -0.20203226008E+02  0.72700158091E+02  0.11519017432E+03  0.81888595541E+02 0.  0.
         23    2    1    2    0    0  0.65062241359E+01  0.86976000183E+01 -0.42115609655E+02  0.10475552676E+03  0.95299614961E+02 0.  0.
        -11    1    4    4    0    0  0.29845011399E+02 -0.31575663714E+02 -0.38528169525E+02  0.58070363279E+02  0.00000000000E+00 0.  1.
         11    1    4    4    0    0 -0.23338787264E+02  0.40273263732E+02 -0.35874401299E+01  0.46685163481E+02  0.00000000000E+00 0. -1.
        -11    1    3    3    0    0  0.34984155734E+01  0.29486361840E+02  0.23172100446E+02  0.37664714059E+02  0.00000000000E+00 0.  1.
         11    1    3    3    0    0 -0.32986563236E+02 -0.49689587847E+02  0.49528057645E+02  0.77525460261E+02  0.00000000000E+00 0. -1.
          1    1    1    2  501    0  0.22981923526E+02  0.11505625989E+02 -0.54726059675E+02  0.60460647085E+02  0.00000000000E+00 0. -1.
<scales pt_clust_5="13000.00000" pt_clust_6="13000.00000" pt_clust_7="13000.00000" pt_clust_8="13000.00000" pt_clust_9="25.70113"></scales>
<clustering>
<clus scale="   25.701">  2  9  1 -1</clus>
<clus scale="   81.889">  7  8 -1 -1</clus>
<clus scale="   87.225">  1  7  2 -1</clus>
<clus scale="   95.300">  5  6 -1 -1</clus>
<clus scale="   25.701">  2  5  1 -1</clus>
</clustering>
</event>
<event>
 9    1  0.1464797E-005  0.9324725E+02  0.7546771E-02  0.1299113E+00
         -1   -1    0    0    0  501 -0.00000000000E+00  0.00000000000E+00  0.17357400967E+03  0.17357400967E+03  0.00000000000E+00 0.  1.
         21   -1    0    0  501  502  0.00000000000E+00 -0.00000000000E+00 -0.13509659982E+03  0.13509659982E+03  0.00000000000E+00 0.  1.
         23    2    1    2    0    0 -0.13179441116E+01 -0.16489639489E+02  0.70484070183E+02  0.11659482037E+03  0.91393122282E+02 0.  0.
         23    2    1    2    0    0  0.48790923479E+02 -0.30431669904E+02  0.23771329427E+02  0.10509028925E+03  0.84689149510E+02 0.  0.
        -13    1    3    3    0    0 -0.31456213979E+01 -0.46044437879E+02  0.71791915934E+01  0.46706808770E+02  0.00000000000E+00 0.  1.
         13    1    3    3    0    0  0.18276772862E+01  0.29554798390E+02  0.63304878589E+02  0.69888011600E+02  0.00000000000E+00 0. -1.
        -13    1    4    4    0    0  0.57761416629E+02 -0.48540772433E+02  0.33629771191E+02  0.82604778008E+02  0.00000000000E+00 0.  1.
         13    1    4    4    0    0 -0.89704931503E+01  0.18109102529E+02 -0.98584417639E+01  0.22485511242E+02  0.00000000000E+00 0. -1.
         -1    1    1    2    0  502 -0.47472979367E+02  0.46921309393E+02 -0.55777989758E+02  0.86985499864E+02  0.00000000000E+00 0.  1.
<scales pt_clust_5="13000.00000" pt_clust_6="13000.00000" pt_clust_7="13000.00000" pt_clust_8="13000.00000" pt_clust_9="66.74798"></scales>
<clustering>
<clus scale="   66.748">  2  9  1 -1</clus>
<clus scale="   84.689">  7  8 -1 -1</clus>
<clus scale="   86.687">  2  7  1 -1</clus>
<clus scale="   91.393">  5  6 -1 -1</clus>
<clus scale="   66.748">  2  5  1 -1</clus>
</clustering>
</event>
<event>
 9    1  0.1464797E-005  0.8573454E+02  0.7546771E-02  0.1322419E+00
         21   -1    0    0  501  502  0.00000000000E+00  0.00000000000E+00  0.25077369903E+02  0.25077369903E+02  0.00000000000E+00 0.  1.
         -3   -1    0    0    0  501 -0.00000000000E+00 -0.00000000000E+00 -0.38172961288E+03  0.38172961288E+03  0.00000000000E+00 0.  1.
         23    2    1    2    0    0 -0.51832049321E+01  0.30766919666E+02 -0.22092507449E+03  0.23807254029E+03  0.83049244103E+02 0.  0.
         23    2    1    2    0    0  0.10049599344E+02 -0.36164825548E+01 -0.81669137433E+02  0.10804590361E+03  0.69928505517E+02 0.  0.
        -11    1    3    3    0    0  0.22774096611E+02  0.48642510557E+02 -0.11213776959E+03  0.12433677122E+03  0.00000000000E+00 0.  1.
         11    1    3    3    0    0 -0.27957301543E+02 -0.17875590891E+02 -0.10878730490E+03  0.11373576907E+03  0.00000000000E+00 0. -1.
        -13    1    4    4    0    0  0.28012426145E+02 -0.14011052121E+02 -0.91714544477E+01  0.32636194275E+02  0.00000000000E+00 0.  1.
         13    1    4    4    0    0 -0.17962826801E+02  0.10394569566E+02 -0.72497682986E+02  0.75409709331E+02  0.00000000000E+00 0. -1.
         -3    1    1    2    0  502 -0.48663944123E+01 -0.27150437111E+02 -0.54058031060E+02  0.60688538885E+02  0.00000000000E+00 0.  1.
<scales pt_clust_5="13000.00000" pt_clust_6="13000.00000" pt_clust_7="13000.00000" pt_clust_8="13000.00000" pt_clust_9="27.58313"></scales>
<clustering>
<clus scale="   27.583">  1  9  2 -1</clus>
<clus scale="   69.929">  7  8 -1 -1</clus>
<clus scale="   73.097">  1  7  2 -1</clus>
<clus scale="   83.049">  5  6 -1 -1</clus>
<clus scale="   27.583">  1  5  2 -1</clus>
</clustering>
</event>
<event>
 9    1  0.1464797E-005  0.2118965E+03  0.7546771E-02  0.1140300E+00
          2   -1    0    0  502    0 -0.00000000000E+00  0.00000000000E+00  0.76663002663E+03  0.76663002663E+03  0.00000000000E+00 0. -1.
         21   -1    0    0  501  502  0.00000000000E+00 -0.00000000000E+00 -0.19660542132E+03  0.19660542132E+03  0.00000000000E+00 0.  1.
         23    2    1    2    0    0 -0.15441103704E+03  0.53304407586E+02  0.31913799322E+03  0.36999497011E+03  0.91449936919E+02 0.  0.
         23    2    1    2    0    0  0.32092005210E+03 -0.10027919623E+03  0.95289621885E+02  0.36055548429E+03  0.88738650988E+02 0.  0.
        -11    1    3    3    0    0 -0.13147754765E+03  0.89471152584E+01  0.18727901307E+03  0.22899743480E+03  0.00000000000E+00 0.  1.
         11    1    3    3    0    0 -0.22933489392E+02  0.44357292328E+02  0.13185898015E+03  0.14099753531E+03  0.00000000000E+00 0. -1.
        -13    1    4    4    0    0  0.15651366297E+03 -0.94590818338E+02  0.42037176135E+02  0.18764613982E+03  0.00000000000E+00 0.  1.
         13    1    4    4    0    0  0.16440638913E+03 -0.56883778917E+01  0.53252445750E+02  0.17290934448E+03  0.00000000000E+00 0. -1.
          2    1    1    2  501    0 -0.16650901506E+03  0.46974788644E+02  0.15559699020E+03  0.23268499355E+03  0.00000000000E+00 0. -1.
<scales pt_clust_5="13000.00000" pt_clust_6="13000.00000" pt_clust_7="13000.00000" pt_clust_8="13000.00000" pt_clust_9="173.00842"></scales>
<clustering>
<clus scale="   88.739">  7  8 -1 -1</clus>
<clus scale="   91.450">  5  6 -1 -1</clus>
<clus scale="  173.008">  2  9  1 -1</clus>
<clus scale="  210.741">  2  7  1 -1</clus>
<clus scale="  173.008">  2  5  1 -1</clus>
</clustering>
</event>
<event>
 9    1  0.1464797E-005  0.1214937E+03  0.7546771E-02  0.1241258E+00
         21   -1    0    0  501  502  0.00000000000E+00  0.00000000000E+00  0.17520540454E+03  0.17520540454E+03  0.00000000000E+00 0.  1.
          1   -1    0    0  502    0 -0.00000000000E+00 -0.00000000000E+00 -0.14469297264E+03  0.14469297264E+03  0.00000000000E+00 0. -1.
         23    2    1    2    0    0  0.71747479000E+02 -0.36730369205E+02 -0.72150562072E+02  0.14105295780E+03  0.90517470867E+02 0.  0.
         23    2    1    2    0    0 -0.52467985556E+02  0.54834355517E+02  0.88802552368E+02  0.14898633318E+03  0.92473445447E+02 0.  0.
        -11    1    4    4    0    0 -0.22013829942E+02  0.75509662256E+02  0.77648371410E+02  0.11052414843E+03  0.00000000000E+00 0.  1.
         11    1    4    4    0    0 -0.30454155614E+02 -0.20675306738E+02  0.11154180958E+02  0.38462184750E+02  0.00000000000E+00 0. -1.
        -13    1    3    3    0    0  0.92963987233E+02 -0.33502026928E+02 -0.65622793378E+02  0.11862141350E+03  0.00000000000E+00 0. -1.
         13    1    3    3    0    0 -0.21216508233E+02 -0.32283422770E+01 -0.65277686935E+01  0.22431544298E+02  0.00000000000E+00 0.  1.
          1    1    1    2  501    0 -0.19279493443E+02 -0.18103986313E+02  0.13860441600E+02  0.29859086208E+02  0.00000000000E+00 0. -1.
<scales pt_clust_5="13000.00000" pt_clust_6="13000.00000" pt_clust_7="13000.00000" pt_clust_8="13000.00000" pt_clust_9="26.44718"></scales>
<clustering>
<clus scale="   26.447">  1  9  2 -1</clus>
<clus scale="   90.517">  7  8 -1 -1</clus>
<clus scale="   92.473">  5  6 -1 -1</clus>
<clus scale="  120.012">  2  7  1 -1</clus>
<clus scale="   26.447">  1  5  2 -1</clus>
</clustering>
</event>
<event>
 9    1  0.1464797E-005  0.1360747E+03  0.7546771E-02  0.1218758E+00
         21   -1    0    0  501  502  0.00000000000E+00  0.00000000000E+00  0.12677502085E+03  0.12677502085E+03  0.00000000000E+00 0. -1.
          1   -1    0    0  502    0 -0.00000000000E+00 -0.00000000000E+00 -0.19689578979E+03  0.19689578979E+03  0.00000000000E+00 0. -1.
         23    2    1    2    0    0 -0.40316847397E+02  0.10114759480E+03 -0.81235265069E+02  0.16336943906E+03  0.90742058651E+02 0.  0.
         23    2    1    2    0    0  0.21588671414E+02 -0.88597418183E+02 -0.10678381464E+02  0.12894565404E+03  0.90539387140E+02 0.  0.
        -11    1    4    4    0    0 -0.25896453662E+02 -0.72365647835E+02  0.30459736451E+01  0.76920031554E+02  0.00000000000E+00 0.  1.
         11    1    4    4    0    0  0.47485125076E+02 -0.16231770348E+02 -0.13724355109E+02  0.52025622488E+02  0.00000000000E+00 0. -1.
        -13    1    3    3    0    0 -0.59653179965E+02  0.79070747613E+02 -0.88838993945E+02  0.13305281603E+03  0.00000000000E+00 0. -1.
         13    1    3    3    0    0  0.19336332567E+02  0.22076847192E+02  0.76037288751E+01  0.30316623029E+02  0.00000000000E+00 0.  1.
          1    1    1    2  501    0  0.18728175983E+02 -0.12550176621E+02  0.21792877586E+02  0.31355717538E+02  0.00000000000E+00 0. -1.
<scales pt_clust_5="13000.00000" pt_clust_6="13000.00000" pt_clust_7="13000.00000" pt_clust_8="13000.00000" pt_clust_9="22.54443"></scales>
<clustering>
<clus scale="   22.544">  1  9  2 -1</clus>
<clus scale="   90.539">  5  6 -1 -1</clus>
<clus scale="   90.742">  7  8 -1 -1</clus>
<clus scale="  135.940">  1  5  2 -1</clus>
<clus scale="   22.544">  1  5  2 -1</clus>
</clustering>
</event>
<event>
 9    1  0.1464797E-005  0.1168005E+03  0.7546771E-02  0.1249054E+00
         21   -1    0    0  501  502  0.00000000000E+00  0.00000000000E+00  0.16978808118E+03  0.16978808118E+03  0.00000000000E+00 0.  1.
         -3   -1    0    0    0  501 -0.00000000000E+00 -0.00000000000E+00 -0.71933991546E+03  0.71933991546E+03  0.00000000000E+00 0.  1.
         23    2    1    2    0    0  0.54849888527E+02  0.44695129808E+02 -0.61961053119E+03  0.63069581693E+03  0.94094836374E+02 0.  0.
         23    2    1    2    0    0 -0.48069991888E+01 -0.79921603210E+02 -0.43217480110E+02  0.12968169434E+03  0.92406825283E+02 0.  0.
        -11    1    3    3    0    0 -0.18807866069E+01 -0.26223447366E+02 -0.11385751202E+03  0.11685349628E+03  0.00000000000E+00 0.  1.
         11    1    3    3    0    0  0.56730675134E+02  0.70918577175E+02 -0.50575301917E+03  0.51384232065E+03  0.00000000000E+00 0. -1.
        -13    1    4    4    0    0  0.36895171459E+02 -0.23410732490E+02 -0.40215892953E+02  0.59385470603E+02  0.00000000000E+00 0. -1.
         13    1    4    4    0    0 -0.41702170647E+02 -0.56510870720E+02 -0.30015871568E+01  0.70296223737E+02  0.00000000000E+00 0.  1.
         -3    1    1    2    0  502 -0.50042889338E+02  0.35226473402E+02  0.11327617702E+03  0.12875048537E+03  0.00000000000E+00 0.  1.
<scales pt_clust_5="13000.00000" pt_clust_6="13000.00000" pt_clust_7="13000.00000" pt_clust_8="13000.00000" pt_clust_9="61.19800"></scales>
<clustering>
<clus scale="   61.198">  1  9  2 -1</clus>
<clus scale="   92.407">  7  8 -1 -1</clus>
<clus scale="   94.095">  5  6 -1 -1</clus>
<clus scale="  115.445">  1  7  2 -1</clus>
<clus scale="   61.198">  1  5  2 -1</clus>
</clustering>
</event>
<event>
 9    1  0.1464797E-005  0.1231165E+03  0.7546771E-02  0.1242710E+00
         -1   -1    0    0    0  501 -0.00000000000E+00  0.00000000000E+00  0.26395251274E+03  0.26395251274E+03  0.00000000000E+00 0.  1.
         21   -1    0    0  501  502  0.00000000000E+00 -0.00000000000E+00 -0.97484354132E+02  0.97484354132E+02  0.00000000000E+00 0.  1.
         23    2    1    2    0    0 -0.57254252215E+02  0.75613584149E+01  0.11390412315E+03  0.16496749293E+03  0.10442653358E+03 0.  0.
         23    2    1    2    0    0  0.68874953140E+02 -0.29423821086E+02  0.92249820542E+02  0.14969363769E+03  0.91041942851E+02 0.  0.
        -11    1    3    3    0    0 -0.42288773947E+02  0.33516832647E+02  0.12244951876E+03  0.13381181979E+03  0.00000000000E+00 0. -1.
         11    1    3    3    0    0 -0.14965478269E+02 -0.25955474232E+02 -0.85453956080E+01  0.31155673135E+02  0.00000000000E+00 0.  1.
        -13    1    4    4    0    0 -0.61528989014E+01 -0.31971823510E+02  0.24536624876E+01  0.32650821169E+02  0.00000000000E+00 0. -1.
         13    1    4    4    0    0  0.75027852041E+02  0.25480024231E+01  0.89796158054E+02  0.11704281652E+03  0.00000000000E+00 0.  1.
         -1    1    1    2    0  502 -0.11620700924E+02  0.21862462672E+02 -0.39685785084E+02  0.46775736250E+02  0.00000000000E+00 0.  1.
<scales pt_clust_5="13000.00000" pt_clust_6="13000.00000" pt_clust_7="13000.00000" pt_clust_8="13000.00000" pt_clust_9="24.75900"></scales>
<clustering>
<clus scale="   24.759">  2  9  1 -1</clus>
<clus scale="   91.042">  7  8 -1 -1</clus>
<clus scale="  104.427">  5  6 -1 -1</clus>
<clus scale="  111.988">  2  7  1 -1</clus>
<clus scale="   24.759">  2  5  1 -1</clus>
</clustering>
</event>
<event>
 9    1  0.1464797E-005  0.9419679E+02  0.7546771E-02  0.1294569E+00
         -1   -1    0    0    0  501 -0.00000000000E+00  0.00000000000E+00  0.24004080642E+03  0.24004080642E+03  0.00000000000E+00 0.  1.
         21   -1    0    0  501  502  0.00000000000E+00 -0.00000000000E+00 -0.15939295477E+03  0.15939295477E+03  0.00000000000E+00 0.  1.
         23    2    1    2    0    0  0.43566403869E+01 -0.21175370274E+02  0.13430893597E+03  0.16381621100E+03  0.91266007275E+02 0.  0.
         23    2    1    2    0    0 -0.24819593860E+01 -0.25111576686E+02  0.58997115757E+02  0.11380677097E+03  0.93992393549E+02 0.  0.
        -11    1    4    4    0    0 -0.43546100158E+02 -0.27986481553E+02  0.15765089190E+02  0.54111403843E+02  0.00000000000E+00 0.  1.
         11    1    4    4    0    0  0.41064140772E+02  0.28749048673E+01  0.43232026567E+02  0.59695367127E+02  0.00000000000E+00 0. -1.
        -13    1    3    3    0    0 -0.27151288043E+02 -0.31008405325E+02  0.12168894025E+03  0.12847922720E+03  0.00000000000E+00 0.  1.
         13    1    3    3    0    0  0.31507928430E+02  0.98330350513E+01  0.12619995724E+02  0.35336983804E+02  0.00000000000E+00 0. -1.
         -1    1    1    2    0  502 -0.18746810009E+01  0.46286946960E+02 -0.11265820008E+03  0.12181077922E+03  0.00000000000E+00 0.  1.
<scales pt_clust_5="13000.00000" pt_clust_6="13000.00000" pt_clust_7="13000.00000" pt_clust_8="13000.00000" pt_clust_9="46.32489"></scales>
<clustering>
<clus scale="   46.325">  2  9  1 -1</clus>
<clus scale="   91.266">  7  8 -1 -1</clus>
<clus scale="   91.476">  1  7  2 -1</clus>
<clus scale="   93.992">  5  6 -1 -1</clus>
<clus scale="   46.325">  2  5  1 -1</clus>
</clustering>
</event>
<event>
 9    1  0.1464797E-005  0.1457900E+03  0.7546771E-02  0.1208090E+00
         21   -1    0    0  501  502  0.00000000000E+00  0.00000000000E+00  0.19626559525E+03  0.19626559525E+03  0.00000000000E+00 0.  1.
          3   -1    0    0  502    0 -0.00000000000E+00 -0.00000000000E+00 -0.15533779819E+03  0.15533779819E+03  0.00000000000E+00 0. -1.
         23    2    1    2    0    0  0.11342741227E+03 -0.26001919815E+01 -0.24955929901E+02  0.14782255640E+03  0.91412093795E+02 0.  0.
         23    2    1    2    0    0 -0.10915082305E+03  0.46420454062E+02  0.27591298596E+02  0.14543004737E+03  0.79497535754E+02 0.  0.
        -11    1    3    3    0    0  0.94807272621E+02 -0.16552547067E+02  0.18990057283E+02  0.98097033757E+02  0.00000000000E+00 0.  1.
         11    1    3    3    0    0  0.18620139649E+02  0.13952355085E+02 -0.43945987184E+02  0.49725522647E+02  0.00000000000E+00 0. -1.
        -13    1    4    4    0    0 -0.34487466991E+02 -0.22433282862E+02  0.10193942298E+02  0.42385776140E+02  0.00000000000E+00 0.  1.
         13    1    4    4    0    0 -0.74663356060E+02  0.68853736924E+02  0.17397356298E+02  0.10304427123E+03  0.00000000000E+00 0. -1.
          3    1    1    2  501    0 -0.42765892192E+01 -0.43820262081E+02  0.38292428365E+02  0.58350789662E+02  0.00000000000E+00 0. -1.
<scales pt_clust_5="13000.00000" pt_clust_6="13000.00000" pt_clust_7="13000.00000" pt_clust_8="13000.00000" pt_clust_9="44.02845"></scales>
<clustering>
<clus scale="   44.028">  1  9  2 -1</clus>
<clus scale="   79.498">  7  8 -1 -1</clus>
<clus scale="   91.412">  5  6 -1 -1</clus>
<clus scale="  138.631">  1  7  2 -1</clus>
<clus scale="   44.028">  1  5  2 -1</clus>
</clustering>
</event>
<event>
 9    1  0.1464797E-005  0.1035428E+03  0.7546771E-02  0.1273488E+00
          2   -1    0    0  502    0 -0.00000000000E+00  0.00000000000E+00  0.52271060678E+03  0.52271060678E+03  0.00000000000E+00 0. -1.
         21   -1    0    0  501  502  0.00000000000E+00 -0.00000000000E+00 -0.34360776076E+02  0.34360776076E+02  0.00000000000E+00 0.  1.
         23    2    1    2    0    0 -0.49285414106E+02 -0.29823719118E+02  0.29353582962E+03  0.31275243043E+03  0.91281395700E+02 0.  0.
         23    2    1    2    0    0  0.35006127487E+02  0.49869240505E+01  0.19145246905E+03  0.21547342742E+03  0.92327957003E+02 0.  0.
        -11    1    4    4    0    0  0.16202891261E+02 -0.43303462388E+02  0.76622669014E+02  0.89491658532E+02  0.00000000000E+00 0.  1.
         11    1    4    4    0    0  0.18803236227E+02  0.48290386439E+02  0.11482980004E+03  0.12598176889E+03  0.00000000000E+00 0. -1.
        -13    1    3    3    0    0 -0.44553595621E+02  0.12223394978E+02  0.24054302709E+03  0.24493954795E+03  0.00000000000E+00 0. -1.
         13    1    3    3    0    0 -0.47318184854E+01 -0.42047114096E+02  0.52992802532E+02  0.67812882479E+02  0.00000000000E+00 0.  1.
          2    1    1    2  501    0  0.14279286618E+02  0.24836795067E+02  0.33615320303E+01  0.28845525010E+02  0.00000000000E+00 0. -1.
<scales pt_clust_5="13000.00000" pt_clust_6="13000.00000" pt_clust_7="13000.00000" pt_clust_8="13000.00000" pt_clust_9="28.64899"></scales>
<clustering>
<clus scale="   28.649">  2  9  1 -1</clus>
<clus scale="   91.281">  7  8 -1 -1</clus>
<clus scale="   92.328">  5  6 -1 -1</clus>
<clus scale="  102.611">  1  7  2 -1</clus>
<clus scale="   28.649">  2  5  1 -1</clus>
</clustering>
</event>
<event>
 9    1  0.1464797E-005  0.9974491E+02  0.7546771E-02  0.1282702E+00
         21   -1    0    0  501  502  0.00000000000E+00  0.00000000000E+00  0.58982597279E+02  0.58982597279E+02  0.00000000000E+00 0. -1.
          2   -1    0    0  502    0 -0.00000000000E+00 -0.00000000000E+00 -0.58699740447E+03  0.58699740447E+03  0.00000000000E+00 0. -1.
         23    2    1    2    0    0  0.19249410207E+02  0.42411066124E+02 -0.29954112243E+03  0.31559990159E+03  0.87801910770E+02 0.  0.
         23    2    1    2    0    0  0.50521581066E+01 -0.34745949718E+02 -0.26685235263E+03  0.28431229817E+03  0.91599669545E+02 0.  0.
        -13    1    4    4    0    0  0.25560773783E+02 -0.55739989897E+02 -0.12231848047E+03  0.13682876267E+03  0.00000000000E+00 0.  1.
         13    1    4    4    0    0 -0.20508615676E+02  0.20994040178E+02 -0.14453387216E+03  0.14748353550E+03  0.00000000000E+00 0. -1.
        -13    1    3    3    0    0 -0.31395888555E+02  0.12351639504E+02 -0.16977187072E+03  0.17309174707E+03  0.00000000000E+00 0.  1.
         13    1    3    3    0    0  0.50645298761E+02  0.30059426620E+02 -0.12976925171E+03  0.14250815452E+03  0.00000000000E+00 0. -1.
          2    1    1    2  501    0 -0.24301568313E+02 -0.76651164060E+01  0.38378667875E+02  0.46067801987E+02  0.00000000000E+00 0. -1.
<scales pt_clust_5="13000.00000" pt_clust_6="13000.00000" pt_clust_7="13000.00000" pt_clust_8="13000.00000" pt_clust_9="25.48176"></scales>
<clustering>
<clus scale="   25.482">  1  9  2 -1</clus>
<clus scale="   87.802">  7  8 -1 -1</clus>
<clus scale="   91.600">  5  6 -1 -1</clus>
<clus scale="   96.269">  2  7  1 -1</clus>
<clus scale="   25.482">  1  5  2 -1</clus>
</clustering>
</event>
<event>
 9    1  0.1464797E-005  0.1153187E+03  0.7546771E-02  0.1251243E+00
          1   -1    0    0  502    0 -0.00000000000E+00  0.00000000000E+00  0.66439850650E+03  0.66439850650E+03  0.00000000000E+00 0. -1.
         21   -1    0    0  501  502  0.00000000000E+00 -0.00000000000E+00 -0.50332145147E+02  0.50332145147E+02  0.00000000000E+00 0. -1.
         23    2    1    2    0    0  0.44440037605E+02 -0.84611716769E+01  0.25984315654E+03  0.27900332322E+03  0.90982855536E+02 0.  0.
         23    2    1    2    0    0 -0.11501111639E+03 -0.16769048973E+02  0.32217721906E+03  0.35421790322E+03  0.90351561034E+02 0.  0.
        -13    1    3    3    0    0  0.24185231928E+02 -0.42149377976E+02  0.20987145907E+03  0.21542405817E+03  0.00000000000E+00 0. -1.
         13    1    3    3    0    0  0.20254805677E+02  0.33688206299E+02  0.49971697469E+02  0.63579265052E+02  0.00000000000E+00 0.  1.
        -13    1    4    4    0    0 -0.11701792614E+03  0.12097966637E+02  0.27086195999E+03  0.29530620923E+03  0.00000000000E+00 0. -1.
         13    1    4    4    0    0  0.20068097591E+01 -0.28867015610E+02  0.51315259071E+02  0.58911693993E+02  0.00000000000E+00 0.  1.
          1    1    1    2  501    0  0.70571078781E+02  0.25230220650E+02  0.32045985749E+02  0.81509425203E+02  0.00000000000E+00 0. -1.
<scales pt_clust_5="13000.00000" pt_clust_6="13000.00000" pt_clust_7="13000.00000" pt_clust_8="13000.00000" pt_clust_9="74.94559"></scales>
<clustering>
<clus scale="   74.946">  2  9  1 -1</clus>
<clus scale="   90.352">  7  8 -1 -1</clus>
<clus scale="   90.983">  5  6 -1 -1</clus>
<clus scale="  114.821">  2  7  1 -1</clus>
<clus scale="   74.946">  2  5  1 -1</clus>
</clustering>
</event>
<event>
 9    1  0.1464797E-005  0.1329188E+03  0.7546771E-02  0.1224001E+00
          4   -1    0    0  502    0 -0.00000000000E+00  0.00000000000E+00  0.39357308154E+02  0.39357308154E+02  0.00000000000E+00 0. -1.
         21   -1    0    0  501  502  0.00000000000E+00 -0.00000000000E+00 -0.78635963891E+03  0.78635963891E+03  0.00000000000E+00 0. -1.
         23    2    1    2    0    0  0.71398524393E+02  0.41933048399E+02 -0.16125749776E+03  0.20279378884E+03  0.90913202425E+02 0.  0.
         23    2    1    2    0    0 -0.11039253707E+03 -0.33331881329E+02 -0.30527553141E+03  0.33962553693E+03  0.94100099374E+02 0.  0.
        -11    1    4    4    0    0 -0.35307497274E+02  0.33019496062E+02 -0.89559651395E+02  0.10177346237E+03  0.00000000000E+00 0.  1.
         11    1    4    4    0    0 -0.75085039795E+02 -0.66351377391E+02 -0.21571588001E+03  0.23785207456E+03  0.00000000000E+00 0. -1.
        -13    1    3    3    0    0  0.49872974981E+02 -0.21589267309E+02 -0.88369268537E+02  0.10374265139E+03  0.00000000000E+00 0. -1.
         13    1    3    3    0    0  0.21525549411E+02  0.63522315708E+02 -0.72888229224E+02  0.99051137448E+02  0.00000000000E+00 0.  1.
          4    1    1    2  501    0  0.38994012677E+02 -0.86011670696E+01 -0.28046930158E+03  0.28329762129E+03  0.00000000000E+00 0. -1.
<scales pt_clust_5="13000.00000" pt_clust_6="13000.00000" pt_clust_7="13000.00000" pt_clust_8="13000.00000" pt_clust_9="39.93135"></scales>
<clustering>
<clus scale="   39.931">  2  9  1 -1</clus>
<clus scale="   90.913">  7  8 -1 -1</clus>
<clus scale="   94.100">  5  6 -1 -1</clus>
<clus scale="  130.682">  1  7  2 -1</clus>
<clus scale="   39.931">  2  5  1 -1</clus>
</clustering>
</event>
<event>
 9    1  0.2160473E-005  0.9315858E+02  0.7546771E-02  0.1296607E+00
         21   -1    0    0  501  502  0.00000000000E+00  0.00000000000E+00  0.20914688889E+03  0.20914688889E+03  0.00000000000E+00 0. -1.
          2   -1    0    0  502    0 -0.00000000000E+00 -0.00000000000E+00 -0.32781283113E+03  0.32781283113E+03  0.00000000000E+00 0. -1.
         23    2    1    2    0    0  0.12396390933E+02  0.86370042167E+00 -0.25041052388E+03  0.26722742037E+03  0.92469709840E+02 0.  0.
         23    2    1    2    0    0  0.62885021814E+01 -0.33162831802E+02 -0.32129539237E+02  0.10166360354E+03  0.90354094096E+02 0.  0.
        -11    1    3    3    0    0  0.31399556208E+02 -0.38347850268E+02 -0.14113705442E+03  0.14958662333E+03  0.00000000000E+00 0.  1.
         11    1    3    3    0    0 -0.19003165274E+02  0.39211550690E+02 -0.10927346947E+03  0.11764079703E+03  0.00000000000E+00 0. -1.
        -13    1    4    4    0    0  0.34552018228E+02  0.16306951466E+02 -0.21050277001E+02  0.43621930168E+02  0.00000000000E+00 0. -1.
         13    1    4    4    0    0 -0.28263516047E+02 -0.49469783267E+02 -0.11079262236E+02  0.58041673370E+02  0.00000000000E+00 0.  1.
          2    1    1    2  501    0 -0.18684893115E+02  0.32299131380E+02  0.16387412088E+03  0.16806869611E+03  0.00000000000E+00 0. -1.
<scales pt_clust_5="13000.00000" pt_clust_6="13000.00000" pt_clust_7="13000.00000" pt_clust_8="13000.00000" pt_clust_9="37.31433"></scales>
<clustering>
<clus scale="   37.314">  1  9  2 -1</clus>
<clus scale="   90.354">  7  8 -1 -1</clus>
<clus scale="   91.059">  1  7  2 -1</clus>
<clus scale="   92.470">  5  6 -1 -1</clus>
<clus scale="   37.314">  1  5  2 -1</clus>
</clustering>
</event>
<event>
 9    1  0.1464797E-005  0.1285766E+03  0.7546771E-02  0.1230049E+00
          2   -1    0    0  502    0 -0.00000000000E+00  0.00000000000E+00  0.49673459477E+03  0.49673459477E+03  0.00000000000E+00 0. -1.
         21   -1    0    0  501  502  0.00000000000E+00 -0.00000000000E+00 -0.70674426745E+02  0.70674426745E+02  0.00000000000E+00 0.  1.
         23    2    1    2    0    0  0.39645268315E+01  0.89922392668E+02  0.34552105399E+03  0.36900835627E+03  0.93169813067E+02 0.  0.
         23    2    1    2    0    0  0.31672386139E+02 -0.84335768621E+02  0.94826183251E+02  0.15960220804E+03  0.91461455653E+02 0.  0.
        -11    1    4    4    0    0  0.58094005254E+02 -0.80082006246E+02  0.60093373879E+02  0.11575515001E+03  0.00000000000E+00 0.  1.
         11    1    4    4    0    0 -0.26421619115E+02 -0.42537623758E+01  0.34732809372E+02  0.43847058030E+02  0.00000000000E+00 0. -1.
        -11    1    3    3    0    0  0.28583233553E+01  0.20956209478E+02  0.52165485778E+01  0.21784056260E+02  0.00000000000E+00 0.  1.
         11    1    3    3    0    0  0.11062034762E+01  0.68966183190E+02  0.34030450541E+03  0.34722430001E+03  0.00000000000E+00 0. -1.
          2    1    1    2  501    0 -0.35636912970E+02 -0.55866240462E+01 -0.14287069219E+02  0.38798457201E+02  0.00000000000E+00 0. -1.
<scales pt_clust_5="13000.00000" pt_clust_6="13000.00000" pt_clust_7="13000.00000" pt_clust_8="13000.00000" pt_clust_9="36.07215"></scales>
<clustering>
<clus scale="   36.072">  2  9  1 -1</clus>
<clus scale="   91.461">  5  6 -1 -1</clus>
<clus scale="   93.170">  7  8 -1 -1</clus>
<clus scale="  127.344">  2  5  1 -1</clus>
<clus scale="   36.072">  2  5  1 -1</clus>
</clustering>
</event>
<event>
 9    1  0.1464797E-005  0.1032289E+03  0.7546771E-02  0.1274170E+00
         -1   -1    0    0    0  501 -0.00000000000E+00  0.00000000000E+00  0.16987671796E+03  0.16987671796E+03  0.00000000000E+00 0.  1.
         21   -1    0    0  501  502  0.00000000000E+00 -0.00000000000E+00 -0.33247467945E+03  0.33247467945E+03  0.00000000000E+00 0. -1.
         23    2    1    2    0    0  0.10272740737E+01 -0.51617145228E+02  0.13299599090E+03  0.16972884459E+03  0.91948692851E+02 0.  0.
         23    2    1    2    0    0  0.98870490479E+01  0.13672620741E+02 -0.11362482989E+03  0.14641924745E+03  0.90792619527E+02 0.  0.
        -11    1    4    4    0    0 -0.34036160369E+02 -0.17393703767E+02 -0.53310319238E+02  0.65597189579E+02  0.00000000000E+00 0.  1.
         11    1    4    4    0    0  0.43923209416E+02  0.31066324508E+02 -0.60314510648E+02  0.80822057872E+02  0.00000000000E+00 0. -1.
        -13    1    3    3    0    0 -0.54890431159E+01  0.23473254118E+02  0.60603100989E+02  0.65221615303E+02  0.00000000000E+00 0.  1.
         13    1    3    3    0    0  0.65163171896E+01 -0.75090399346E+02  0.72392889908E+02  0.10450722929E+03  0.00000000000E+00 0. -1.
         -1    1    1    2    0  502 -0.10914323122E+02  0.37944524488E+02 -0.18196912250E+03  0.18620330537E+03  0.00000000000E+00 0.  1.
<scales pt_clust_5="13000.00000" pt_clust_6="13000.00000" pt_clust_7="13000.00000" pt_clust_8="13000.00000" pt_clust_9="39.48303"></scales>
<clustering>
<clus scale="   39.483">  2  9  1 -1</clus>
<clus scale="   90.793">  5  6 -1 -1</clus>
<clus scale="   91.949">  7  8 -1 -1</clus>
<clus scale="  102.201">  2  5  1 -1</clus>
<clus scale="   39.483">  2  5  1 -1</clus>
</clustering>
</event>
<event>
 9    1  0.1464797E-005  0.1316715E+03  0.7546771E-02  0.1225088E+00
         21   -1    0    0  501  502  0.00000000000E+00  0.00000000000E+00  0.14784277883E+03  0.14784277883E+03  0.00000000000E+00 0.  1.
         -1   -1    0    0    0  501 -0.00000000000E+00 -0.00000000000E+00 -0.28560654018E+03  0.28560654018E+03  0.00000000000E+00 0.  1.
         23    2    1    2    0    0  0.62784177447E+02 -0.57166780745E+02 -0.58139325374E+02  0.13738453115E+03  0.91018868850E+02 0.  0.
         23    2    1    2    0    0  0.19874113001E+02  0.13749020169E+03 -0.71145987170E+02  0.18049606794E+03  0.90656180830E+02 0.  0.
        -11    1    4    4    0    0 -0.35530845698E+02  0.67684303215E+02 -0.27289277283E+02  0.81168408586E+02  0.00000000000E+00 0. -1.
         11    1    4    4    0    0  0.55404958699E+02  0.69805898472E+02 -0.43856709887E+02  0.99327659351E+02  0.00000000000E+00 0.  1.
        -11    1    3    3    0    0  0.67953969479E+02 -0.31051580510E+01 -0.44832321808E+02  0.81469755451E+02  0.00000000000E+00 0.  1.
         11    1    3    3    0    0 -0.51697920318E+01 -0.54061622694E+02 -0.13307003566E+02  0.55914775702E+02  0.00000000000E+00 0. -1.
         -1    1    1    2    0  502 -0.82658290449E+02 -0.80323420942E+02 -0.84784488060E+01  0.11556871993E+03  0.00000000000E+00 0.  1.
<scales pt_clust_5="13000.00000" pt_clust_6="13000.00000" pt_clust_7="13000.00000" pt_clust_8="13000.00000" pt_clust_9="115.25730"></scales>
<clustering>
<clus scale="   90.656">  5  6 -1 -1</clus>
<clus scale="   91.019">  7  8 -1 -1</clus>
<clus scale="  115.257">  1  9  2 -1</clus>
<clus scale="  131.421">  1  5  2 -1</clus>
<clus scale="  115.257">  1  5  2 -1</clus>
</clustering>
</event>
<event>
 9    1  0.1464797E-005  0.1040863E+03  0.7546771E-02  0.1276128E+00
         21   -1    0    0  501  502  0.00000000000E+00  0.00000000000E+00  0.12130282139E+03  0.12130282139E+03  0.00000000000E+00 0.  1.
          1   -1    0    0  502    0 -0.00000000000E+00 -0.00000000000E+00 -0.24514047873E+03  0.24514047873E+03  0.00000000000E+00 0. -1.
         23    2    1    2    0    0 -0.21994831699E+02 -0.35328249712E+02 -0.17171619022E+03  0.19591656697E+03  0.84646283901E+02 0.  0.
         23    2    1    2    0    0  0.64413100738E+02  0.40947230696E+02  0.36748793412E+02  0.12631413770E+03  0.93696661189E+02 0.  0.
        -11    1    3    3    0    0 -0.48192007056E+02 -0.69679174400E-01 -0.11068854675E+03  0.12072459891E+03  0.00000000000E+00 0. -1.
         11    1    3    3    0    0  0.26197175357E+02 -0.35258570538E+02 -0.61027643471E+02  0.75191968060E+02  0.00000000000E+00 0.  1.
        -11    1    4    4    0    0  0.66790454951E+02  0.11005518668E+02  0.58308178584E+02  0.89341647643E+02  0.00000000000E+00 0.  1.
         11    1    4    4    0    0 -0.23773542130E+01  0.29941712027E+02 -0.21559385172E+02  0.36972490059E+02  0.00000000000E+00 0. -1.
          1    1    1    2  501    0 -0.42418269039E+02 -0.56189809834E+01  0.11129739465E+02  0.44212595447E+02  0.00000000000E+00 0. -1.
<scales pt_clust_5="13000.00000" pt_clust_6="13000.00000" pt_clust_7="13000.00000" pt_clust_8="13000.00000" pt_clust_9="42.78881"></scales>
<clustering>
<clus scale="   42.789">  1  9  2 -1</clus>
<clus scale="   84.646">  5  6 -1 -1</clus>
<clus scale="   93.697">  7  8 -1 -1</clus>
<clus scale="   96.020">  2  5  1 -1</clus>
<clus scale="   42.789">  1  5  2 -1</clus>
</clustering>
</event>
<event>
 9    1  0.1464797E-005  0.1061502E+03  0.7546771E-02  0.1268103E+00
          1   -1    0    0  502    0 -0.00000000000E+00  0.00000000000E+00  0.73147716774E+02  0.73147716774E+02  0.00000000000E+00 0. -1.
         21   -1    0    0  501  502  0.00000000000E+00 -0.00000000000E+00 -0.30609292007E+03  0.30609292007E+03  0.00000000000E+00 0.  1.
         23    2    1    2    0    0 -0.38251834899E+02 -0.47533389197E+02 -0.13372331246E+01  0.11010824826E+03  0.91648307024E+02 0.  0.
         23    2    1    2    0    0  0.19028417463E+02  0.29606470827E+02 -0.12124457308E+03  0.15568198709E+03  0.91093418090E+02 0.  0.
        -11    1    3    3    0    0 -0.64838253909E+02 -0.20437032604E+02 -0.15259836093E+02  0.69674486501E+02  0.00000000000E+00 0. -1.
         11    1    3    3    0    0  0.26586419010E+02 -0.27096356593E+02  0.13922602968E+02  0.40433761757E+02  0.00000000000E+00 0.  1.
        -13    1    4    4    0    0 -0.27282566900E+02  0.21033867365E+02 -0.96531333932E+02  0.10249419722E+03  0.00000000000E+00 0.  1.
         13    1    4    4    0    0  0.46310984363E+02  0.85726034623E+01 -0.24713239145E+02  0.53187789876E+02  0.00000000000E+00 0. -1.
          1    1    1    2  501    0  0.19223417436E+02  0.17926918370E+02 -0.11036339709E+03  0.11345040149E+03  0.00000000000E+00 0. -1.
<scales pt_clust_5="13000.00000" pt_clust_6="13000.00000" pt_clust_7="13000.00000" pt_clust_8="13000.00000" pt_clust_9="26.28525"></scales>
<clustering>
<clus scale="   26.285">  2  9  1 -1</clus>
<clus scale="   91.093">  7  8 -1 -1</clus>
<clus scale="   91.648">  5  6 -1 -1</clus>
<clus scale="  105.672">  2  7  1 -1</clus>
<clus scale="   26.285">  2  5  1 -1</clus>
</clustering>
</event>
<event>
 9    1  0.1464797E-005  0.2994653E+03  0.7546771E-02  0.1085553E+00
         21   -1    0    0  501  502  0.00000000000E+00  0.00000000000E+00  0.35097068348E+03  0.35097068348E+03  0.00000000000E+00 0.  1.
          2   -1    0    0  502    0 -0.00000000000E+00 -0.00000000000E+00 -0.12894058019E+04  0.12894058019E+04  0.00000000000E+00 0. -1.
         23    2    1    2    0    0 -0.26772067312E+03  0.83619813869E+02 -0.10899020534E+04  0.11291130058E+04  0.91340362687E+02 0.  0.
         23    2    1    2    0    0  0.30539227058E+03 -0.10759296354E+03 -0.17434365784E+02  0.33655941394E+03  0.90153187781E+02 0.  0.
        -13    1    4    4    0    0  0.11259749171E+03  0.51982338430E+01 -0.78114305528E+01  0.11298776580E+03  0.00000000000E+00 0. -1.
         13    1    4    4    0    0  0.19279477888E+03 -0.11279119739E+03 -0.96229352316E+01  0.22357164814E+03  0.00000000000E+00 0.  1.
        -13    1    3    3    0    0 -0.42820452583E+02  0.49884616603E+02 -0.19579687096E+03  0.20653929605E+03  0.00000000000E+00 0.  1.
         13    1    3    3    0    0 -0.22490022053E+03  0.33735197266E+02 -0.89410518242E+03  0.92257370977E+03  0.00000000000E+00 0. -1.
          2    1    1    2  501    0 -0.37671597467E+02  0.23973149673E+02  0.16890130073E+03  0.17470406563E+03  0.00000000000E+00 0. -1.
<scales pt_clust_5="13000.00000" pt_clust_6="13000.00000" pt_clust_7="13000.00000" pt_clust_8="13000.00000" pt_clust_9="44.65267"></scales>
<clustering>
<clus scale="   44.653">  1  9  2 -1</clus>
<clus scale="   90.153">  5  6 -1 -1</clus>
<clus scale="   91.340">  7  8 -1 -1</clus>
<clus scale="  299.105">  1  5  2 -1</clus>
<clus scale="   44.653">  1  5  2 -1</clus>
</clustering>
</event>
<event>
 9    1  0.1464797E-005  0.3674484E+03  0.7546771E-02  0.1055674E+00
          2   -1    0    0  502    0 -0.00000000000E+00  0.00000000000E+00  0.11194183123E+04  0.11194183123E+04  0.00000000000E+00 0. -1.
         21   -1    0    0  501  502  0.00000000000E+00 -0.00000000000E+00 -0.17868860791E+03  0.17868860791E+03  0.00000000000E+00 0. -1.
         23    2    1    2    0    0  0.86893516828E+02 -0.28127360632E+03  0.29745511771E+03  0.42839808271E+03  0.91542587553E+02 0.  0.
         23    2    1    2    0    0 -0.96498578128E+02  0.41371474915E+03  0.57393754308E+03  0.71990717151E+03  0.91597832936E+02 0.  0.
        -11    1    3    3    0    0 -0.54746275026E+01 -0.13371647874E+03  0.13990777397E+03  0.19360850563E+03  0.00000000000E+00 0. -1.
         11    1    3    3    0    0  0.92368144331E+02 -0.14755712757E+03  0.15754734374E+03  0.23478957708E+03  0.00000000000E+00 0.  1.
        -13    1    4    4    0    0 -0.43815815859E+02  0.21609147509E+03  0.22220978969E+03  0.31303760471E+03  0.00000000000E+00 0.  1.
         13    1    4    4    0    0 -0.52682762268E+02  0.19762327406E+03  0.35172775339E+03  0.40686956681E+03  0.00000000000E+00 0. -1.
          2    1    1    2  501    0  0.96050612993E+01 -0.13244114283E+03  0.69337043579E+02  0.14980166598E+03  0.00000000000E+00 0. -1.
<scales pt_clust_5="13000.00000" pt_clust_6="13000.00000" pt_clust_7="13000.00000" pt_clust_8="13000.00000" pt_clust_9="132.78898"></scales>
<clustering>
<clus scale="   91.543">  5  6 -1 -1</clus>
<clus scale="   91.598">  7  8 -1 -1</clus>
<clus scale="  132.789">  2  9  1 -1</clus>
<clus scale="  367.435">  1  5  2 -1</clus>
<clus scale="  132.789">  2  5  1 -1</clus>
</clustering>
</event>
<event>
 9    1  0.1464797E-005  0.1128624E+03  0.7546771E-02  0.1255942E+00
         21   -1    0    0  501  502  0.00000000000E+00  0.00000000000E+00  0.29383467001E+03  0.29383467001E+03  0.00000000000E+00 0. -1.
         -1   -1    0    0    0  501 -0.00000000000E+00 -0.00000000000E+00 -0.11776639528E+03  0.11776639528E+03  0.00000000000E+00 0.  1.
         23    2    1    2    0    0 -0.10885356038E+02 -0.65819928820E+02 -0.22317627924E+02  0.11449031690E+03  0.90328301996E+02 0.  0.
         23    2    1    2    0    0  0.44136581822E+02  0.53411338636E+02  0.22005376093E+02  0.11719491452E+03  0.91921719209E+02 0.  0.
        -11    1    3    3    0    0  0.24196145239E+02 -0.51849010652E+02  0.17284663772E+02  0.59770669661E+02  0.00000000000E+00 0. -1.
         11    1    3    3    0    0 -0.35081501277E+02 -0.13970918168E+02 -0.39602291695E+02  0.54719647238E+02  0.00000000000E+00 0.  1.
        -11    1    4    4    0    0  0.42013532631E+02 -0.16461631988E+02  0.10792576927E+02  0.46396141742E+02  0.00000000000E+00 0.  1.
         11    1    4    4    0    0  0.21230491917E+01  0.69872970624E+02  0.11212799166E+02  0.70798772777E+02  0.00000000000E+00 0. -1.
         -1    1    1    2    0  502 -0.33251225784E+02  0.12408590184E+02  0.17638052656E+03  0.17991583387E+03  0.00000000000E+00 0.  1.
<scales pt_clust_5="13000.00000" pt_clust_6="13000.00000" pt_clust_7="13000.00000" pt_clust_8="13000.00000" pt_clust_9="35.49109"></scales>
<clustering>
<clus scale="   35.491">  1  9  2 -1</clus>
<clus scale="   90.328">  5  6 -1 -1</clus>
<clus scale="   91.922">  7  8 -1 -1</clus>
<clus scale="  111.568">  2  5  1 -1</clus>
<clus scale="   35.491">  1  5  2 -1</clus>
</clustering>
</event>
<event>
 9    1  0.1464797E-005  0.1644942E+03  0.7546771E-02  0.1206668E+00
          1   -1    0    0  502    0 -0.00000000000E+00  0.00000000000E+00  0.60483052722E+03  0.60483052722E+03  0.00000000000E+00 0. -1.
         21   -1    0    0  501  502  0.00000000000E+00 -0.00000000000E+00 -0.35196783080E+03  0.35196783080E+03  0.00000000000E+00 0. -1.
         23    2    1    2    0    0  0.38213457493E+02  0.19554505857E+02  0.46356897038E+03  0.47412754142E+03  0.89766854687E+02 0.  0.
         23    2    1    2    0    0 -0.16984077900E+03 -0.25570019400E+02  0.40549040219E+02  0.19896115677E+03  0.91878186402E+02 0.  0.
        -13    1    3    3    0    0 -0.25749344342E+02 -0.11048093196E+02  0.15544963670E+03  0.15795467276E+03  0.00000000000E+00 0. -1.
         13    1    3    3    0    0  0.63962801835E+02  0.30602599053E+02  0.30811933369E+03  0.31617286867E+03  0.00000000000E+00 0.  1.
        -13    1    4    4    0    0 -0.12747978807E+03 -0.56184510818E+02  0.13101172406E+02  0.13992653909E+03  0.00000000000E+00 0. -1.
         13    1    4    4    0    0 -0.42360990924E+02  0.30614491417E+02  0.27447867813E+02  0.59034617677E+02  0.00000000000E+00 0.  1.
          1    1    1    2  501    0  0.13162732150E+03  0.60155135434E+01 -0.25125531419E+03  0.28370965983E+03  0.00000000000E+00 0. -1.
<scales pt_clust_5="13000.00000" pt_clust_6="13000.00000" pt_clust_7="13000.00000" pt_clust_8="13000.00000" pt_clust_9="136.44313"></scales>
<clustering>
<clus scale="   89.767">  5  6 -1 -1</clus>
<clus scale="   91.878">  7  8 -1 -1</clus>
<clus scale="   99.502">  1  5  2 -1</clus>
<clus scale="  136.443">  2  9  1 -1</clus>
<clus scale="  136.443">  2  5  1 -1</clus>
</clustering>
</event>
<event>
 9    1  0.1464797E-005  0.1332185E+03  0.7546771E-02  0.1237782E+00
         -1   -1    0    0    0  501 -0.00000000000E+00  0.00000000000E+00  0.13887488040E+03  0.13887488040E+03  0.00000000000E+00 0.  1.
         21   -1    0    0  501  502  0.00000000000E+00 -0.00000000000E+00 -0.22715250946E+03  0.22715250946E+03  0.00000000000E+00 0. -1.
         23    2    1    2    0    0 -0.43765631100E+02 -0.66151101496E+01  0.65476071802E+02  0.11969081136E+03  0.89886507312E+02 0.  0.
         23    2    1    2    0    0  0.24230177884E+01 -0.20082485023E+02 -0.14851399706E+03  0.19684488466E+03  0.12760221030E+03 0.  0.
        -11    1    4    4    0    0  0.59065436394E+02 -0.25744380111E+02 -0.44605893124E+02  0.78365710519E+02  0.00000000000E+00 0.  1.
         11    1    4    4    0    0 -0.56642418605E+02  0.56618950882E+01 -0.10390810394E+03  0.11847917414E+03  0.00000000000E+00 0. -1.
        -13    1    3    3    0    0  0.11407388765E+02 -0.21507850453E+02 -0.88766280432E+01  0.25913523013E+02  0.00000000000E+00 0.  1.
         13    1    3    3    0    0 -0.55173019865E+02  0.14892740304E+02  0.74352699846E+02  0.93777288343E+02  0.00000000000E+00 0. -1.
         -1    1    1    2    0  502  0.41342613312E+02  0.26697595172E+02 -0.52397038019E+01  0.49491693842E+02  0.00000000000E+00 0.  1.
<scales pt_clust_5="13000.00000" pt_clust_6="13000.00000" pt_clust_7="13000.00000" pt_clust_8="13000.00000" pt_clust_9="49.21357"></scales>
<clustering>
<clus scale="   49.214">  2  9  1 -1</clus>
<clus scale="   89.887">  7  8 -1 -1</clus>
<clus scale="   97.696">  1  7  2 -1</clus>
<clus scale="  127.602">  5  6 -1 -1</clus>
<clus scale="   49.214">  2  5  1 -1</clus>
</clustering>
</event>
<event>
 9    1  0.1464797E-005  0.1260680E+03  0.7546771E-02  0.1237970E+00
         -3   -1    0    0    0  501 -0.00000000000E+00  0.00000000000E+00  0.29278375199E+03  0.29278375199E+03  0.00000000000E+00 0.  1.
         21   -1    0    0  501  502  0.00000000000E+00 -0.00000000000E+00 -0.12854353920E+03  0.12854353920E+03  0.00000000000E+00 0.  1.
         23    2    1    2    0    0 -0.73214093677E+02  0.31119846644E+02  0.17204618783E+03  0.21640039171E+03  0.10440541373E+03 0.  0.
         23    2    1    2    0    0  0.55410486783E+02 -0.19412547518E+02  0.67090264390E+02  0.12705857503E+03  0.90529602158E+02 0.  0.
        -11    1    3    3    0    0 -0.32977372515E+02 -0.27614222646E+02  0.12204205653E+03  0.12939982980E+03  0.00000000000E+00 0.  1.
         11    1    3    3    0    0 -0.40236721162E+02  0.58734069290E+02  0.50004131300E+02  0.87000561908E+02  0.00000000000E+00 0. -1.
        -11    1    4    4    0    0 -0.21645887676E+02  0.95550733856E+01  0.25645111542E+02  0.34892916569E+02  0.00000000000E+00 0.  1.
         11    1    4    4    0    0  0.77056374459E+02 -0.28967620904E+02  0.41445152848E+02  0.92165658465E+02  0.00000000000E+00 0. -1.
         -3    1    1    2    0  502  0.17803606894E+02 -0.11707299126E+02 -0.74896239428E+02  0.77868324444E+02  0.00000000000E+00 0.  1.
<scales pt_clust_5="13000.00000" pt_clust_6="13000.00000" pt_clust_7="13000.00000" pt_clust_8="13000.00000" pt_clust_9="21.30796"></scales>
<clustering>
<clus scale="   21.308">  2  9  1 -1</clus>
<clus scale="   90.530">  7  8 -1 -1</clus>
<clus scale="  104.405">  5  6 -1 -1</clus>
<clus scale="  114.840">  2  7  1 -1</clus>
<clus scale="   21.308">  2  5  1 -1</clus>
</clustering>
</event>
<event>
 9    1  0.1464797E-005  0.1015530E+03  0.7546771E-02  0.1280602E+00
          2   -1    0    0  502    0 -0.00000000000E+00  0.00000000000E+00  0.58011324876E+03  0.58011324876E+03  0.00000000000E+00 0. -1.
         21   -1    0    0  501  502  0.00000000000E+00 -0.00000000000E+00 -0.56311135858E+02  0.56311135858E+02  0.00000000000E+00 0. -1.
         23    2    1    2    0    0 -0.44547272607E+02  0.26510960900E+02  0.35692265733E+03  0.37046418174E+03  0.84632358439E+02 0.  0.
         23    2    1    2    0    0  0.29213559374E+02 -0.60112608795E+01  0.20114442317E+03  0.22318815046E+03  0.92001653377E+02 0.  0.
        -11    1    3    3    0    0 -0.48766154672E+02 -0.19610329784E+02  0.20563427126E+03  0.21224550971E+03  0.00000000000E+00 0.  1.
         11    1    3    3    0    0  0.42188820648E+01  0.46121290684E+02  0.15128838607E+03  0.15821867203E+03  0.00000000000E+00 0. -1.
        -13    1    4    4    0    0  0.53132842025E+02  0.21367925195E+02  0.14894873260E+03  0.15957885848E+03  0.00000000000E+00 0. -1.
         13    1    4    4    0    0 -0.23919282651E+02 -0.27379186074E+02  0.52195690570E+02  0.63609291984E+02  0.00000000000E+00 0.  1.
          2    1    1    2  501    0  0.15333713232E+02 -0.20499700021E+02 -0.34264967604E+02  0.42772052409E+02  0.00000000000E+00 0. -1.
<scales pt_clust_5="13000.00000" pt_clust_6="13000.00000" pt_clust_7="13000.00000" pt_clust_8="13000.00000" pt_clust_9="25.60001"></scales>
<clustering>
<clus scale="   25.600">  2  9  1 -1</clus>
<clus scale="   84.632">  5  6 -1 -1</clus>
<clus scale="   92.002">  7  8 -1 -1</clus>
<clus scale="   94.928">  1  5  2 -1</clus>
<clus scale="   25.600">  2  5  1 -1</clus>
</clustering>
</event>
<event>
 9    1  0.2291473E-005  0.1136342E+03  0.7546771E-02  0.1254884E+00
         21   -1    0    0  501  502  0.00000000000E+00  0.00000000000E+00  0.46680556301E+03  0.46680556301E+03  0.00000000000E+00 0.  1.
          3   -1    0    0  502    0 -0.00000000000E+00 -0.00000000000E+00 -0.19632857310E+03  0.19632857310E+03  0.00000000000E+00 0. -1.
         23    2    1    2    0    0 -0.76599398208E+02  0.18869588262E+02 -0.14798838323E+03  0.19149145280E+03  0.92438551247E+02 0.  0.
         23    2    1    2    0    0  0.79672679814E+01 -0.18124922923E+02  0.67927447644E+02  0.11444839300E+03  0.89957247212E+02 0.  0.
        -11    1    3    3    0    0 -0.52339600782E+02  0.14790775194E+02 -0.15632538546E+03  0.16551684802E+03  0.00000000000E+00 0. -1.
         11    1    3    3    0    0 -0.24259797426E+02  0.40788130683E+01  0.83370022260E+01  0.25974604777E+02  0.00000000000E+00 0.  1.
        -11    1    4    4    0    0  0.34337140796E+02 -0.13841241580E+02  0.77645670302E+02  0.86020168119E+02  0.00000000000E+00 0.  1.
         11    1    4    4    0    0 -0.26369872815E+02 -0.42836813427E+01 -0.97182226574E+01  0.28428224878E+02  0.00000000000E+00 0. -1.
          3    1    1    2  501    0  0.68632130227E+02 -0.74466533985E+00  0.35053792550E+03  0.35719429032E+03  0.00000000000E+00 0. -1.
<scales pt_clust_5="13000.00000" pt_clust_6="13000.00000" pt_clust_7="13000.00000" pt_clust_8="13000.00000" pt_clust_9="68.63617"></scales>
<clustering>
<clus scale="   68.636">  1  9  2 -1</clus>
<clus scale="   89.957">  7  8 -1 -1</clus>
<clus scale="   92.439">  5  6 -1 -1</clus>
<clus scale="  111.625">  1  7  2 -1</clus>
<clus scale="   68.636">  1  5  2 -1</clus>
</clustering>
</event>
<event>
 9    1  0.1464797E-005  0.2119726E+03  0.7546771E-02  0.1156902E+00
         21   -1    0    0  501  502  0.00000000000E+00  0.00000000000E+00  0.10601634626E+03  0.10601634626E+03  0.00000000000E+00 0. -1.
          2   -1    0    0  502    0 -0.00000000000E+00 -0.00000000000E+00 -0.95313671987E+03  0.95313671987E+03  0.00000000000E+00 0. -1.
         23    2    1    2    0    0 -0.10001489320E+03 -0.40095674558E+02 -0.27642171820E+03  0.31072005318E+03  0.92343614704E+02 0.  0.
         23    2    1    2    0    0  0.26625915321E+03  0.28994758245E+01 -0.47645455395E+03  0.55374695323E+03  0.93404510641E+02 0.  0.
        -13    1    4    4    0    0  0.95236858475E+02  0.44453806395E+02 -0.20205944741E+03  0.22775912803E+03  0.00000000000E+00 0.  1.
         13    1    4    4    0    0  0.17102229473E+03 -0.41554330571E+02 -0.27439510654E+03  0.32598782520E+03  0.00000000000E+00 0. -1.
        -13    1    3    3    0    0 -0.21459857381E+02 -0.53299000946E+02 -0.77770505249E+02  0.96693125233E+02  0.00000000000E+00 0.  1.
         13    1    3    3    0    0 -0.78555035817E+02  0.13203326389E+02 -0.19865121295E+03  0.21402692794E+03  0.00000000000E+00 0. -1.
          2    1    1    2  501    0 -0.16624426001E+03  0.37196198733E+02 -0.94244101465E+02  0.19468605971E+03  0.00000000000E+00 0. -1.
<scales pt_clust_5="13000.00000" pt_clust_6="13000.00000" pt_clust_7="13000.00000" pt_clust_8="13000.00000" pt_clust_9="190.28399"></scales>
<clustering>
<clus scale="   92.344">  7  8 -1 -1</clus>
<clus scale="   93.405">  5  6 -1 -1</clus>
<clus scale="  141.908">  2  7  1 -1</clus>
<clus scale="  190.284">  1  9  2 -1</clus>
<clus scale="  190.284">  1  5  2 -1</clus>
</clustering>
</event>
<event>
 9    1  0.1464797E-005  0.1125372E+03  0.7546771E-02  0.1257259E+00
         21   -1    0    0  501  502  0.00000000000E+00  0.00000000000E+00  0.36332254479E+03  0.36332254479E+03  0.00000000000E+00 0. -1.
          1   -1    0    0  502    0 -0.00000000000E+00 -0.00000000000E+00 -0.56320605590E+02  0.56320605590E+02  0.00000000000E+00 0. -1.
         23    2    1    2    0    0  0.71985234481E+02 -0.33922905699E+02  0.83195685251E+02  0.14887820252E+03  0.94395760633E+02 0.  0.
         23    2    1    2    0    0 -0.38776707074E+02 -0.67191653778E+01  0.15937880984E+03  0.18766573133E+03  0.90928771551E+02 0.  0.
        -11    1    4    4    0    0  0.25982254667E+02 -0.70786316692E+01  0.84398134736E+02  0.88590234963E+02  0.00000000000E+00 0. -1.
         11    1    4    4    0    0 -0.64758961741E+02  0.35946629140E+00  0.74980675101E+02  0.99075496367E+02  0.00000000000E+00 0.  1.
        -13    1    3    3    0    0  0.45093294391E+01  0.27707208174E+02  0.37105769542E+02  0.46528072924E+02  0.00000000000E+00 0.  1.
         13    1    3    3    0    0  0.67475905042E+02 -0.61630113873E+02  0.46089915709E+02  0.10235012959E+03  0.00000000000E+00 0. -1.
          1    1    1    2  501    0 -0.33208527407E+02  0.40642071077E+02  0.64427444114E+02  0.83099216537E+02  0.00000000000E+00 0. -1.
<scales pt_clust_5="13000.00000" pt_clust_6="13000.00000" pt_clust_7="13000.00000" pt_clust_8="13000.00000" pt_clust_9="52.48413"></scales>
<clustering>
<clus scale="   52.484">  1  9  2 -1</clus>
<clus scale="   90.929">  5  6 -1 -1</clus>
<clus scale="   94.396">  7  8 -1 -1</clus>
<clus scale="  109.645">  1  5  2 -1</clus>
<clus scale="   52.484">  1  5  2 -1</clus>
</clustering>
</event>
<event>
 9    1  0.1464797E-005  0.9909832E+02  0.7546771E-02  0.1283668E+00
          2   -1    0    0  502    0 -0.00000000000E+00  0.00000000000E+00  0.40057451030E+03  0.40057451030E+03  0.00000000000E+00 0. -1.
         21   -1    0    0  501  502  0.00000000000E+00 -0.00000000000E+00 -0.35434905246E+03  0.35434905246E+03  0.00000000000E+00 0.  1.
         23    2    1    2    0    0 -0.25376386683E+02  0.24778973968E+02  0.36208657149E+03  0.37520722297E+03  0.91737758645E+02 0.  0.
         23    2    1    2    0    0  0.32138482658E+02 -0.87828318698E+02 -0.12908875142E+03  0.18247318754E+03  0.88802380576E+02 0.  0.
        -11    1    3    3    0    0  0.17039821649E+02 -0.17853051301E+02  0.36163138202E+02  0.43781954355E+02  0.00000000000E+00 0.  1.
         11    1    3    3    0    0 -0.42416208332E+02  0.42632025269E+02  0.32592343329E+03  0.33142526862E+03  0.00000000000E+00 0. -1.
        -11    1    4    4    0    0  0.58633232384E+02 -0.63014604558E+02 -0.11474894498E+03  0.14344342683E+03  0.00000000000E+00 0.  1.
         11    1    4    4    0    0 -0.26494749725E+02 -0.24813714139E+02 -0.14339806441E+02  0.39029760711E+02  0.00000000000E+00 0. -1.
          2    1    1    2  501    0 -0.67620959758E+01  0.63049344730E+02 -0.18677236223E+03  0.19724315224E+03  0.00000000000E+00 0. -1.
<scales pt_clust_5="13000.00000" pt_clust_6="13000.00000" pt_clust_7="13000.00000" pt_clust_8="13000.00000" pt_clust_9="63.41093"></scales>
<clustering>
<clus scale="   63.411">  2  9  1 -1</clus>
<clus scale="   88.802">  7  8 -1 -1</clus>
<clus scale="   91.738">  5  6 -1 -1</clus>
<clus scale="   96.387">  2  7  1 -1</clus>
<clus scale="   63.411">  2  5  1 -1</clus>
</clustering>
</event>
<event>
 9    1  0.1464797E-005  0.2030044E+03  0.7546771E-02  0.1165947E+00
         21   -1    0    0  501  502  0.00000000000E+00  0.00000000000E+00  0.25575836817E+03  0.25575836817E+03  0.00000000000E+00 0. -1.
          3   -1    0    0  502    0 -0.00000000000E+00 -0.00000000000E+00 -0.44351597561E+03  0.44351597561E+03  0.00000000000E+00 0. -1.
         23    2    1    2    0    0  0.12164238110E+02 -0.92468341210E+02  0.19985778037E+02  0.13246938627E+03  0.91925753522E+02 0.  0.
         23    2    1    2    0    0  0.26383933015E+02  0.25669997440E+03 -0.27259453299E+03  0.38607404656E+03  0.90301723311E+02 0.  0.
        -11    1    4    4    0    0 -0.73263474440E+00  0.49231227004E+02 -0.11190051486E+03  0.12225373488E+03  0.00000000000E+00 0.  1.
         11    1    4    4    0    0  0.27116567759E+02  0.20746874740E+03 -0.16069401813E+03  0.26382031168E+03  0.00000000000E+00 0. -1.
        -11    1    3    3    0    0 -0.10794218114E+02 -0.88079025210E+02 -0.15396197180E+02  0.90063714748E+02  0.00000000000E+00 0.  1.
         11    1    3    3    0    0  0.22958456223E+02 -0.43893160002E+01  0.35381975218E+02  0.42405671524E+02  0.00000000000E+00 0. -1.
          3    1    1    2  501    0 -0.38548171124E+02 -0.16423163319E+03  0.64851147512E+02  0.18073091095E+03  0.00000000000E+00 0. -1.
<scales pt_clust_5="13000.00000" pt_clust_6="13000.00000" pt_clust_7="13000.00000" pt_clust_8="13000.00000" pt_clust_9="181.81415"></scales>
<clustering>
<clus scale="   90.302">  5  6 -1 -1</clus>
<clus scale="   91.926">  7  8 -1 -1</clus>
<clus scale="  130.953">  2  7  1 -1</clus>
<clus scale="  181.814">  1  9  2 -1</clus>
<clus scale="  181.814">  1  5  2 -1</clus>
</clustering>
</event>
<event>
 9    1  0.1464797E-005  0.1331474E+03  0.7546771E-02  0.1223558E+00
         21   -1    0    0  501  502  0.00000000000E+00  0.00000000000E+00  0.10747205101E+03  0.10747205101E+03  0.00000000000E+00 0. -1.
          2   -1    0    0  502    0 -0.00000000000E+00 -0.00000000000E+00 -0.41034358193E+03  0.41034358193E+03  0.00000000000E+00 0. -1.
         23    2    1    2    0    0  0.39363471862E+02 -0.77547455125E+02 -0.22979065708E+03  0.26164241060E+03  0.89943950500E+02 0.  0.
         23    2    1    2    0    0 -0.86714436605E+02  0.82838381815E+02 -0.11690553241E+03  0.19143754079E+03  0.92735308806E+02 0.  0.
        -11    1    4    4    0    0 -0.57140330241E+02  0.68603757845E+02 -0.12863447088E+03  0.15658326868E+03  0.00000000000E+00 0. -1.
         11    1    4    4    0    0 -0.29574106364E+02  0.14234623971E+02  0.11728938476E+02  0.34854272114E+02  0.00000000000E+00 0.  1.
        -13    1    3    3    0    0  0.62993860585E+02 -0.56196216106E+02 -0.11591001566E+03  0.14339237395E+03  0.00000000000E+00 0.  1.
         13    1    3    3    0    0 -0.23630388723E+02 -0.21351239018E+02 -0.11388064142E+03  0.11825003665E+03  0.00000000000E+00 0. -1.
          2    1    1    2  501    0  0.47350964743E+02 -0.52909266905E+01  0.43824658558E+02  0.64735681545E+02  0.00000000000E+00 0. -1.
<scales pt_clust_5="13000.00000" pt_clust_6="13000.00000" pt_clust_7="13000.00000" pt_clust_8="13000.00000" pt_clust_9="47.64565"></scales>
<clustering>
<clus scale="   47.646">  1  9  2 -1</clus>
<clus scale="   89.944">  7  8 -1 -1</clus>
<clus scale="   92.735">  5  6 -1 -1</clus>
<clus scale="  131.219">  2  7  1 -1</clus>
<clus scale="   47.646">  1  5  2 -1</clus>
</clustering>
</event>
<event>
 9    1  0.1464797E-005  0.1690460E+03  0.7546771E-02  0.1206442E+00
         21   -1    0    0  501  502  0.00000000000E+00  0.00000000000E+00  0.85136207059E+02  0.85136207059E+02  0.00000000000E+00 0. -1.
          2   -1    0    0  502    0 -0.00000000000E+00 -0.00000000000E+00 -0.51787595130E+03  0.51787595130E+03  0.00000000000E+00 0. -1.
         23    2    1    2    0    0 -0.31035108835E+01 -0.17823835735E+02 -0.16173317586E+03  0.18613051998E+03  0.90330666958E+02 0.  0.
         23    2    1    2    0    0  0.13379960204E+03 -0.41744155388E+02 -0.18481274230E+03  0.24937286409E+03  0.91576020956E+02 0.  0.
        -13    1    4    4    0    0  0.32197102055E+02  0.74188014230E+01 -0.10775165954E+03  0.11270364736E+03  0.00000000000E+00 0.  1.
         13    1    4    4    0    0  0.10160249998E+03 -0.49162956811E+02 -0.77061082763E+02  0.13666921673E+03  0.00000000000E+00 0. -1.
        -13    1    3    3    0    0  0.23449810698E+02 -0.40073009346E+02 -0.46137153944E+02  0.65455150095E+02  0.00000000000E+00 0. -1.
         13    1    3    3    0    0 -0.26553321582E+02  0.22249173611E+02 -0.11559602192E+03  0.12067536988E+03  0.00000000000E+00 0.  1.
          2    1    1    2  501    0 -0.13069609116E+03  0.59567991124E+02 -0.86193826082E+02  0.16750877429E+03  0.00000000000E+00 0. -1.
<scales pt_clust_5="13000.00000" pt_clust_6="13000.00000" pt_clust_7="13000.00000" pt_clust_8="13000.00000" pt_clust_9="142.09282"></scales>
<clustering>
<clus scale="   90.331">  7  8 -1 -1</clus>
<clus scale="   91.576">  5  6 -1 -1</clus>
<clus scale="   92.125">  2  7  1 -1</clus>
<clus scale="  142.093">  1  9  2 -1</clus>
<clus scale="  142.093">  1  5  2 -1</clus>
</clustering>
</event>
<event>
 9    1  0.1464797E-005  0.1069566E+03  0.7546771E-02  0.1267555E+00
         21   -1    0    0  501  502  0.00000000000E+00  0.00000000000E+00  0.44610362734E+03  0.44610362734E+03  0.00000000000E+00 0. -1.
          1   -1    0    0  502    0 -0.00000000000E+00 -0.00000000000E+00 -0.25066014922E+03  0.25066014922E+03  0.00000000000E+00 0. -1.
         23    2    1    2    0    0 -0.26949005495E+02  0.48552940632E+02 -0.20871458298E+03  0.23455354984E+03  0.91487450795E+02 0.  0.
         23    2    1    2    0    0  0.47554576314E+02  0.37442481880E+02  0.11834373568E+03  0.16302862491E+03  0.94391289778E+02 0.  0.
        -11    1    3    3    0    0  0.95072860170E+01  0.32395112927E+02 -0.15291884721E+02  0.37063102505E+02  0.00000000000E+00 0.  1.
         11    1    3    3    0    0 -0.36456291512E+02  0.16157827705E+02 -0.19342269826E+03  0.19749044734E+03  0.00000000000E+00 0. -1.
        -13    1    4    4    0    0  0.73734452580E+02  0.11055002175E+02  0.72344190964E+02  0.10388774969E+03  0.00000000000E+00 0.  1.
         13    1    4    4    0    0 -0.26179876267E+02  0.26387479705E+02  0.45999544718E+02  0.59140875212E+02  0.00000000000E+00 0. -1.
          1    1    1    2  501    0 -0.20605570819E+02 -0.85995422512E+02  0.28581432543E+03  0.29918160181E+03  0.00000000000E+00 0. -1.
<scales pt_clust_5="13000.00000" pt_clust_6="13000.00000" pt_clust_7="13000.00000" pt_clust_8="13000.00000" pt_clust_9="88.42965"></scales>
<clustering>
<clus scale="   88.430">  1  9  2 -1</clus>
<clus scale="   91.487">  5  6 -1 -1</clus>
<clus scale="   94.391">  7  8 -1 -1</clus>
<clus scale="  104.403">  2  5  1 -1</clus>
<clus scale="   88.430">  1  5  2 -1</clus>
</clustering>
</event>
<event>
 9    1  0.1464797E-005  0.1051907E+03  0.7546771E-02  0.1270501E+00
         21   -1    0    0  501  502  0.00000000000E+00  0.00000000000E+00  0.18909635689E+03  0.18909635689E+03  0.00000000000E+00 0. -1.
         -1   -1    0    0    0  501 -0.00000000000E+00 -0.00000000000E+00 -0.16690406883E+03  0.16690406883E+03  0.00000000000E+00 0.  1.
         23    2    1    2    0    0  0.38902535783E+02  0.34963213824E+02 -0.11515105865E+03  0.15517202625E+03  0.89904159042E+02 0.  0.
         23    2    1    2    0    0 -0.10256568004E+02 -0.56246089377E+02  0.11893056000E+03  0.16067142029E+03  0.91662464721E+02 0.  0.
        -11    1    3    3    0    0  0.11777324335E+02  0.38083012157E+02 -0.32576210504E+01  0.39995415716E+02  0.00000000000E+00 0.  1.
         11    1    3    3    0    0  0.27125211448E+02 -0.31197983323E+01 -0.11189343760E+03  0.11517661054E+03  0.00000000000E+00 0. -1.
        -13    1    4    4    0    0  0.27823604238E+02 -0.97940007040E+01  0.24288819846E+01  0.29596872644E+02  0.00000000000E+00 0.  1.
         13    1    4    4    0    0 -0.38080172243E+02 -0.46452088673E+02  0.11650167802E+03  0.13107454765E+03  0.00000000000E+00 0. -1.
         -1    1    1    2    0  502 -0.28645967779E+02  0.21282875553E+02  0.18412786704E+02  0.40156979169E+02  0.00000000000E+00 0.  1.
<scales pt_clust_5="13000.00000" pt_clust_6="13000.00000" pt_clust_7="13000.00000" pt_clust_8="13000.00000" pt_clust_9="35.68686"></scales>
<clustering>
<clus scale="   35.687">  1  9  2 -1</clus>
<clus scale="   89.904">  5  6 -1 -1</clus>
<clus scale="   91.662">  7  8 -1 -1</clus>
<clus scale="  103.662">  2  5  1 -1</clus>
<clus scale="   35.687">  1  5  2 -1</clus>
</clustering>
</event>
<event>
 9    1  0.1464797E-005  0.9308198E+02  0.7546771E-02  0.1296424E+00
          2   -1    0    0  502    0 -0.00000000000E+00  0.00000000000E+00  0.68197904604E+03  0.68197904604E+03  0.00000000000E+00 0. -1.
         21   -1    0    0  501  502  0.00000000000E+00 -0.00000000000E+00 -0.26646355026E+02  0.26646355026E+02  0.00000000000E+00 0.  1.
         23    2    1    2    0    0  0.17286306481E+02 -0.55346361308E+01  0.52257446140E+03  0.53065146977E+03  0.90429342951E+02 0.  0.
         23    2    1    2    0    0  0.34266175257E+01  0.10724394097E+02  0.12428223356E+03  0.15500000439E+03  0.91935702784E+02 0.  0.
        -11    1    4    4    0    0  0.20133923958E+02 -0.10461399430E+02 -0.47463139885E+01  0.23180665833E+02  0.00000000000E+00 0.  1.
         11    1    4    4    0    0 -0.16707306432E+02  0.21185793527E+02  0.12902854755E+03  0.13181933856E+03  0.00000000000E+00 0. -1.
        -11    1    3    3    0    0 -0.36485762868E+02 -0.11108790739E+02  0.22322285655E+03  0.22645763359E+03  0.00000000000E+00 0. -1.
         11    1    3    3    0    0  0.53772069349E+02  0.55741546082E+01  0.29935160485E+03  0.30419383618E+03  0.00000000000E+00 0.  1.
          2    1    1    2  501    0 -0.20712924006E+02 -0.51897579661E+01  0.84759960546E+01  0.22973926912E+02  0.00000000000E+00 0. -1.
<scales pt_clust_5="13000.00000" pt_clust_6="13000.00000" pt_clust_7="13000.00000" pt_clust_8="13000.00000" pt_clust_9="21.35319"></scales>
<clustering>
<clus scale="   21.353">  2  9  1 -1</clus>
<clus scale="   90.429">  7  8 -1 -1</clus>
<clus scale="   91.594">  1  7  2 -1</clus>
<clus scale="   91.936">  5  6 -1 -1</clus>
<clus scale="   21.353">  2  5  1 -1</clus>
</clustering>
</event>
<event>
 9    1  0.1464797E-005  0.1303762E+03  0.7546771E-02  0.1241148E+00
         21   -1    0    0  501  502  0.00000000000E+00  0.00000000000E+00  0.11560851417E+03  0.11560851417E+03  0.00000000000E+00 0. -1.
          1   -1    0    0  502    0 -0.00000000000E+00 -0.00000000000E+00 -0.22896731312E+03  0.22896731312E+03  0.00000000000E+00 0. -1.
         23    2    1    2    0    0 -0.23044081728E+02  0.30920060579E+02 -0.42054177047E+02  0.10603056384E+03  0.89369160296E+02 0.  0.
         23    2    1    2    0    0  0.58561349638E+02  0.63901434004E+02 -0.50746326183E+02  0.13522423133E+03  0.90540478127E+02 0.  0.
        -11    1    3    3    0    0 -0.10124374204E+02  0.54001732080E+02 -0.53972801620E+02  0.77017876726E+02  0.00000000000E+00 0.  1.
         11    1    3    3    0    0 -0.12919707524E+02 -0.23081671501E+02  0.11918624574E+02  0.29012687113E+02  0.00000000000E+00 0. -1.
        -13    1    4    4    0    0  0.47752964128E+02 -0.11509053138E+02 -0.21558954447E+02  0.53643195319E+02  0.00000000000E+00 0.  1.
         13    1    4    4    0    0  0.10808385510E+02  0.75410487142E+02 -0.29187371736E+02  0.81581036015E+02  0.00000000000E+00 0. -1.
          1    1    1    2  501    0 -0.35517267910E+02 -0.94821494583E+02 -0.20558295727E+02  0.10332103212E+03  0.00000000000E+00 0. -1.
<scales pt_clust_5="13000.00000" pt_clust_6="13000.00000" pt_clust_7="13000.00000" pt_clust_8="13000.00000" pt_clust_9="93.81034"></scales>
<clustering>
<clus scale="   89.369">  5  6 -1 -1</clus>
<clus scale="   90.540">  7  8 -1 -1</clus>
<clus scale="   97.334">  2  5  1 -1</clus>
<clus scale="   93.810">  1  9  2 -1</clus>
<clus scale="   93.810">  1  5  2 -1</clus>
</clustering>
</event>
<event>
 9    1  0.1464797E-005  0.1213240E+03  0.7546771E-02  0.1241019E+00
         21   -1    0    0  501  502  0.00000000000E+00  0.00000000000E+00  0.13412503701E+03  0.13412503701E+03  0.00000000000E+00 0. -1.
         -1   -1    0    0    0  501 -0.00000000000E+00 -0.00000000000E+00 -0.33030019633E+03  0.33030019633E+03  0.00000000000E+00 0.  1.
         23    2    1    2    0    0  0.51148686707E+02 -0.63387396549E+02 -0.16925158791E+03  0.20871555141E+03  0.91005116332E+02 0.  0.
         23    2    1    2    0    0 -0.69146665422E+02  0.41531896134E+02 -0.11234390950E+03  0.16571954748E+03  0.91299806568E+02 0.  0.
        -11    1    3    3    0    0  0.30413623710E+02  0.19715474001E+02 -0.44528813460E+02  0.57415186583E+02  0.00000000000E+00 0. -1.
         11    1    3    3    0    0  0.20735062996E+02 -0.83102870550E+02 -0.12472277445E+03  0.15130036483E+03  0.00000000000E+00 0.  1.
        -13    1    4    4    0    0 -0.15285209905E+02 -0.18551121071E+02  0.37601188908E+01  0.24329410780E+02  0.00000000000E+00 0.  1.
         13    1    4    4    0    0 -0.53861455516E+02  0.60083017206E+02 -0.11610402840E+03  0.14139013670E+03  0.00000000000E+00 0. -1.
         -1    1    1    2    0  502  0.17997978715E+02  0.21855500415E+02  0.85420338092E+02  0.89990134437E+02  0.00000000000E+00 0.  1.
<scales pt_clust_5="13000.00000" pt_clust_6="13000.00000" pt_clust_7="13000.00000" pt_clust_8="13000.00000" pt_clust_9="28.31237"></scales>
<clustering>
<clus scale="   28.312">  1  9  2 -1</clus>
<clus scale="   91.005">  5  6 -1 -1</clus>
<clus scale="   91.300">  7  8 -1 -1</clus>
<clus scale="  121.102">  2  5  1 -1</clus>
<clus scale="   28.312">  1  5  2 -1</clus>
</clustering>
</event>
<event>
 9    1  0.1464797E-005  0.1036134E+03  0.7546771E-02  0.1273509E+00
         21   -1    0    0  501  502  0.00000000000E+00  0.00000000000E+00  0.54102213214E+02  0.54102213214E+02  0.00000000000E+00 0.  1.
          2   -1    0    0  502    0 -0.00000000000E+00 -0.00000000000E+00 -0.32242494065E+03  0.32242494065E+03  0.00000000000E+00 0. -1.
         23    2    1    2    0    0  0.48590093890E+02 -0.87129720505E+01 -0.19295160917E+03  0.21912966033E+03  0.91381461171E+02 0.  0.
         23    2    1    2    0    0 -0.29733009052E+02  0.36420948612E+02 -0.63358959699E+02  0.12179393238E+03  0.92783979575E+02 0.  0.
        -13    1    3    3    0    0  0.63464351190E+01 -0.35916489204E+02 -0.14556264830E+03  0.15006250703E+03  0.00000000000E+00 0. -1.
         13    1    3    3    0    0  0.42243658771E+02  0.27203517153E+02 -0.47388960870E+02  0.69067153295E+02  0.00000000000E+00 0.  1.
        -13    1    4    4    0    0  0.19358853442E+02  0.16184379169E+02  0.13313522676E+02  0.28529795332E+02  0.00000000000E+00 0.  1.
         13    1    4    4    0    0 -0.49091862494E+02  0.20236569443E+02 -0.76672482375E+02  0.93264137049E+02  0.00000000000E+00 0. -1.
          2    1    1    2  501    0 -0.18857084838E+02 -0.27707976561E+02 -0.12012158564E+02  0.35603561157E+02  0.00000000000E+00 0. -1.
<scales pt_clust_5="13000.00000" pt_clust_6="13000.00000" pt_clust_7="13000.00000" pt_clust_8="13000.00000" pt_clust_9="33.51599"></scales>
<clustering>
<clus scale="   33.516">  1  9  2 -1</clus>
<clus scale="   91.381">  5  6 -1 -1</clus>
<clus scale="   92.784">  7  8 -1 -1</clus>
<clus scale="  102.359">  2  5  1 -1</clus>
<clus scale="   33.516">  1  5  2 -1</clus>
</clustering>
</event>
<event>
 9    1  0.1464797E-005  0.9414070E+02  0.7546771E-02  0.1294123E+00
         -2   -1    0    0    0  501 -0.00000000000E+00  0.00000000000E+00  0.59942390996E+02  0.59942390996E+02  0.00000000000E+00 0.  1.
         21   -1    0    0  501  502  0.00000000000E+00 -0.00000000000E+00 -0.24396445523E+03  0.24396445523E+03  0.00000000000E+00 0. -1.
         23    2    1    2    0    0 -0.30253122186E+01 -0.62534490085E+01 -0.36229550934E+02  0.98926341757E+02  0.91790972291E+02 0.  0.
         23    2    1    2    0    0  0.20071766460E+02 -0.68122118236E+01 -0.56756917269E+02  0.11144562947E+03  0.93538754709E+02 0.  0.
        -11    1    4    4    0    0 -0.21297151938E+02  0.31842407653E+02 -0.15199485734E+02  0.41213249961E+02  0.00000000000E+00 0. -1.
         11    1    4    4    0    0  0.41368918398E+02 -0.38654619476E+02 -0.41557431535E+02  0.70232379513E+02  0.00000000000E+00 0.  1.
        -11    1    3    3    0    0 -0.18694486699E+02 -0.45501800145E+02 -0.13845694139E+02  0.51103824667E+02  0.00000000000E+00 0.  1.
         11    1    3    3    0    0  0.15669174481E+02  0.39248351136E+02 -0.22383856795E+02  0.47822517090E+02  0.00000000000E+00 0. -1.
         -2    1    1    2    0  502 -0.17046454242E+02  0.13065660832E+02 -0.91035596037E+02  0.93534874998E+02  0.00000000000E+00 0.  1.
<scales pt_clust_5="13000.00000" pt_clust_6="13000.00000" pt_clust_7="13000.00000" pt_clust_8="13000.00000" pt_clust_9="21.47773"></scales>
<clustering>
<clus scale="   21.478">  2  9  1 -1</clus>
<clus scale="   91.791">  7  8 -1 -1</clus>
<clus scale="   92.404">  1  7  2 -1</clus>
<clus scale="   93.539">  5  6 -1 -1</clus>
<clus scale="   21.478">  2  5  1 -1</clus>
</clustering>
</event>
<event>
 9    1  0.1464797E-005  0.1016641E+03  0.7546771E-02  0.1281169E+00
         -1   -1    0    0    0  501 -0.00000000000E+00  0.00000000000E+00  0.39918902032E+03  0.39918902032E+03  0.00000000000E+00 0.  1.
         21   -1    0    0  501  502  0.00000000000E+00 -0.00000000000E+00 -0.30089524912E+02  0.30089524912E+02  0.00000000000E+00 0. -1.
         23    2    1    2    0    0  0.62386579560E+01 -0.24410383923E+02  0.17259780858E+03  0.20051204355E+03  0.98895340575E+02 0.  0.
         23    2    1    2    0    0 -0.24459375860E+02  0.11292288745E+02  0.15366175044E+03  0.18039978655E+03  0.90589031282E+02 0.  0.
        -11    1    4    4    0    0 -0.18765727713E+02  0.33095283910E+02  0.15320791066E+03  0.15786105993E+03  0.00000000000E+00 0.  1.
         11    1    4    4    0    0 -0.56936481474E+01 -0.21802995164E+02  0.45383978018E+00  0.22538726626E+02  0.00000000000E+00 0. -1.
        -13    1    3    3    0    0  0.30136864531E+02  0.57666335503E+01  0.15531416752E+03  0.15831606141E+03  0.00000000000E+00 0.  1.
         13    1    3    3    0    0 -0.23898206575E+02 -0.30177017473E+02  0.17283641054E+02  0.42195982144E+02  0.00000000000E+00 0. -1.
         -1    1    1    2    0  502  0.18220717904E+02  0.13118095177E+02  0.42839936394E+02  0.48366715128E+02  0.00000000000E+00 0.  1.
<scales pt_clust_5="13000.00000" pt_clust_6="13000.00000" pt_clust_7="13000.00000" pt_clust_8="13000.00000" pt_clust_9="22.45171"></scales>
<clustering>
<clus scale="   22.452">  2  9  1 -1</clus>
<clus scale="   90.589">  5  6 -1 -1</clus>
<clus scale="   93.604">  2  5  1 -1</clus>
<clus scale="   98.895">  7  8 -1 -1</clus>
<clus scale="   22.452">  2  5  1 -1</clus>
</clustering>
</event>
<event>
 9    1  0.1464797E-005  0.9804642E+02  0.7546771E-02  0.1285457E+00
         21   -1    0    0  501  502  0.00000000000E+00  0.00000000000E+00  0.98096220279E+02  0.98096220279E+02  0.00000000000E+00 0. -1.
         -1   -1    0    0    0  501 -0.00000000000E+00 -0.00000000000E+00 -0.22371759973E+03  0.22371759973E+03  0.00000000000E+00 0.  1.
         23    2    1    2    0    0  0.47210871412E+02  0.29077000023E+02 -0.10007077632E+03  0.14705393456E+03  0.92392429818E+02 0.  0.
         23    2    1    2    0    0  0.19836241812E+02  0.87663358924E+00  0.10061274639E+02  0.93146520141E+02  0.90447774939E+02 0.  0.
        -13    1    3    3    0    0 -0.15544715408E+02  0.41019032009E+02 -0.41473163358E+02  0.60367395529E+02  0.00000000000E+00 0.  1.
         13    1    3    3    0    0  0.62755586819E+02 -0.11942031986E+02 -0.58597612958E+02  0.86686539032E+02  0.00000000000E+00 0. -1.
        -13    1    4    4    0    0 -0.11371928370E+01 -0.42103102098E+02 -0.63299283259E+01  0.42591459313E+02  0.00000000000E+00 0.  1.
         13    1    4    4    0    0  0.20973434649E+02  0.42979735687E+02  0.16391202965E+02  0.50555060828E+02  0.00000000000E+00 0. -1.
         -1    1    1    2    0  502 -0.67047113223E+02 -0.29953633612E+02 -0.35611877775E+02  0.81613365308E+02  0.00000000000E+00 0.  1.
<scales pt_clust_5="13000.00000" pt_clust_6="13000.00000" pt_clust_7="13000.00000" pt_clust_8="13000.00000" pt_clust_9="73.43392"></scales>
<clustering>
<clus scale="   73.434">  1  9  2 -1</clus>
<clus scale="   90.448">  7  8 -1 -1</clus>
<clus scale="   92.392">  5  6 -1 -1</clus>
<clus scale="   96.216">  1  7  2 -1</clus>
<clus scale="   73.434">  1  5  2 -1</clus>
</clustering>
</event>
<event>
 9    1  0.1464797E-005  0.9412787E+02  0.7546771E-02  0.1294209E+00
          1   -1    0    0  502    0 -0.00000000000E+00  0.00000000000E+00  0.24864682202E+03  0.24864682202E+03  0.00000000000E+00 0. -1.
         21   -1    0    0  501  502  0.00000000000E+00 -0.00000000000E+00 -0.15974138476E+03  0.15974138476E+03  0.00000000000E+00 0. -1.
         23    2    1    2    0    0 -0.18293174285E+02  0.22045983600E+02  0.19471070777E+03  0.21713938894E+03  0.91741969079E+02 0.  0.
         23    2    1    2    0    0 -0.65345002018E+01  0.18278070039E+02 -0.21280626493E+02  0.94363018231E+02  0.89859482575E+02 0.  0.
        -13    1    4    4    0    0 -0.42021792347E+02  0.30956169651E+02 -0.24860510945E+01  0.52252233651E+02  0.00000000000E+00 0.  1.
         13    1    4    4    0    0  0.35487292145E+02 -0.12678099612E+02 -0.18794575398E+02  0.42110784580E+02  0.00000000000E+00 0. -1.
        -13    1    3    3    0    0 -0.14683076555E+02 -0.32519215140E+02  0.43009966022E+02  0.55883354120E+02  0.00000000000E+00 0.  1.
         13    1    3    3    0    0 -0.36100977298E+01  0.54565198739E+02  0.15170074174E+03  0.16125603482E+03  0.00000000000E+00 0. -1.
          1    1    1    2  501    0  0.24827674486E+02 -0.40324053638E+02 -0.84524644014E+02  0.96885799620E+02  0.00000000000E+00 0. -1.
<scales pt_clust_5="13000.00000" pt_clust_6="13000.00000" pt_clust_7="13000.00000" pt_clust_8="13000.00000" pt_clust_9="47.35444"></scales>
<clustering>
<clus scale="   47.354">  2  9  1 -1</clus>
<clus scale="   89.859">  5  6 -1 -1</clus>
<clus scale="   91.742">  7  8 -1 -1</clus>
<clus scale="   92.294">  2  5  1 -1</clus>
<clus scale="   47.354">  2  5  1 -1</clus>
</clustering>
</event>
<event>
 9    1  0.1464797E-005  0.1053621E+03  0.7546771E-02  0.1269891E+00
         21   -1    0    0  501  502  0.00000000000E+00  0.00000000000E+00  0.53710574199E+02  0.53710574199E+02  0.00000000000E+00 0.  1.
         -1   -1    0    0    0  501 -0.00000000000E+00 -0.00000000000E+00 -0.47760780336E+03  0.47760780336E+03  0.00000000000E+00 0.  1.
         23    2    1    2    0    0 -0.31776173901E+02 -0.48477706456E+02 -0.32726815452E+03  0.34449878231E+03  0.90637480124E+02 0.  0.
         23    2    1    2    0    0  0.36182374216E+02  0.20618197292E+02 -0.11519472720E+03  0.15305200269E+03  0.91765004711E+02 0.  0.
        -11    1    3    3    0    0 -0.59623434361E+02 -0.19296494571E+02 -0.24480583163E+03  0.25269982950E+03  0.00000000000E+00 0.  1.
         11    1    3    3    0    0  0.27847260460E+02 -0.29181211886E+02 -0.82462322887E+02  0.91798952816E+02  0.00000000000E+00 0. -1.
        -13    1    4    4    0    0  0.66373667441E+02  0.22430091309E+02 -0.73498849736E+02  0.10154138879E+03  0.00000000000E+00 0. -1.
         13    1    4    4    0    0 -0.30191293226E+02 -0.18118940165E+01 -0.41695877465E+02  0.51510613898E+02  0.00000000000E+00 0.  1.
         -1    1    1    2    0  502 -0.44062003142E+01  0.27859509164E+02  0.18565652556E+02  0.33767592554E+02  0.00000000000E+00 0.  1.
<scales pt_clust_5="13000.00000" pt_clust_6="13000.00000" pt_clust_7="13000.00000" pt_clust_8="13000.00000" pt_clust_9="28.20579"></scales>
<clustering>
<clus scale="   28.206">  1  9  2 -1</clus>
<clus scale="   90.637">  5  6 -1 -1</clus>
<clus scale="   91.765">  7  8 -1 -1</clus>
<clus scale="  104.382">  2  5  1 -1</clus>
<clus scale="   28.206">  1  5  2 -1</clus>
</clustering>
</event>
<event>
 9    1  0.1464797E-005  0.1050953E+03  0.7546771E-02  0.1276405E+00
         21   -1    0    0  501  502  0.00000000000E+00  0.00000000000E+00  0.15469190303E+03  0.15469190303E+03  0.00000000000E+00 0. -1.
          2   -1    0    0  502    0 -0.00000000000E+00 -0.00000000000E+00 -0.30873755743E+03  0.30873755743E+03  0.00000000000E+00 0. -1.
         23    2    1    2    0    0 -0.25264689848E+01 -0.65977753729E+01 -0.18637202064E+03  0.20761441746E+03  0.91210210899E+02 0.  0.
         23    2    1    2    0    0 -0.34832944542E+02  0.44041919749E+02 -0.72475926712E+02  0.13842121720E+03  0.10370462236E+03 0.  0.
        -13    1    4    4    0    0  0.31243764918E+02  0.26653243677E+02 -0.33153545054E+01  0.41201454104E+02  0.00000000000E+00 0.  1.
         13    1    4    4    0    0 -0.66076709460E+02  0.17388676072E+02 -0.69160572207E+02  0.97219763097E+02  0.00000000000E+00 0. -1.
        -13    1    3    3    0    0  0.88210916804E+00  0.40131422129E+02 -0.54652800799E+02  0.67810307430E+02  0.00000000000E+00 0. -1.
         13    1    3    3    0    0 -0.34085781528E+01 -0.46729197501E+02 -0.13171921984E+03  0.13980411003E+03  0.00000000000E+00 0.  1.
          2    1    1    2  501    0  0.37359413527E+02 -0.37444144376E+02  0.10480229296E+03  0.11739382580E+03  0.00000000000E+00 0. -1.
<scales pt_clust_5="13000.00000" pt_clust_6="13000.00000" pt_clust_7="13000.00000" pt_clust_8="13000.00000" pt_clust_9="52.89414"></scales>
<clustering>
<clus scale="   52.894">  1  9  2 -1</clus>
<clus scale="   91.210">  7  8 -1 -1</clus>
<clus scale="   92.788">  2  7  1 -1</clus>
<clus scale="  103.705">  5  6 -1 -1</clus>
<clus scale="   52.894">  1  5  2 -1</clus>
</clustering>
</event>
<event>
 9    1  0.1464797E-005  0.9560464E+02  0.7546771E-02  0.1290158E+00
         21   -1    0    0  501  502  0.00000000000E+00  0.00000000000E+00  0.75142133090E+02  0.75142133090E+02  0.00000000000E+00 0.  1.
          2   -1    0    0  502    0 -0.00000000000E+00 -0.00000000000E+00 -0.42208506650E+03  0.42208506650E+03  0.00000000000E+00 0. -1.
         23    2    1    2    0    0  0.39898444817E+02  0.25671678899E+01 -0.25833926018E+03  0.27675661253E+03  0.90865686481E+02 0.  0.
         23    2    1    2    0    0  0.28883521452E+02  0.29546810474E+02  0.57070011608E+01  0.99405440158E+02  0.90230814305E+02 0.  0.
        -11    1    3    3    0    0  0.56873025114E+02 -0.87325608498E+01 -0.24660700851E+03  0.25323075495E+03  0.00000000000E+00 0. -1.
         11    1    3    3    0    0 -0.16974580297E+02  0.11299728740E+02 -0.11732251670E+02  0.23525857585E+02  0.00000000000E+00 0.  1.
        -13    1    4    4    0    0  0.56024133376E+02  0.30689321668E+02  0.22199028306E+02  0.67626435975E+02  0.00000000000E+00 0.  1.
         13    1    4    4    0    0 -0.27140611925E+02 -0.11425111942E+01 -0.16492027145E+02  0.31779004183E+02  0.00000000000E+00 0. -1.
          2    1    1    2  501    0 -0.68781966268E+02 -0.32113978363E+02 -0.94310674393E+02  0.12106514690E+03  0.00000000000E+00 0. -1.
<scales pt_clust_5="13000.00000" pt_clust_6="13000.00000" pt_clust_7="13000.00000" pt_clust_8="13000.00000" pt_clust_9="75.90963"></scales>
<clustering>
<clus scale="   75.910">  1  9  2 -1</clus>
<clus scale="   90.231">  7  8 -1 -1</clus>
<clus scale="   90.866">  5  6 -1 -1</clus>
<clus scale="   95.001">  1  7  2 -1</clus>
<clus scale="   75.910">  1  5  2 -1</clus>
</clustering>
</event>
<event>
 9    1  0.1464797E-005  0.1011604E+03  0.7546771E-02  0.1279818E+00
         21   -1    0    0  501  502  0.00000000000E+00  0.00000000000E+00  0.60095526784E+03  0.60095526784E+03  0.00000000000E+00 0. -1.
          3   -1    0    0  502    0 -0.00000000000E+00 -0.00000000000E+00 -0.59238666382E+02  0.59238666382E+02  0.00000000000E+00 0. -1.
         23    2    1    2    0    0 -0.24359105245E+02  0.40303787379E+02  0.23122325850E+02  0.10608536448E+03  0.92204670809E+02 0.  0.
         23    2    1    2    0    0 -0.24966328098E+02 -0.40712321545E+02  0.13934317184E+03  0.17166306384E+03  0.88152579567E+02 0.  0.
        -11    1    4    4    0    0 -0.33670824911E+02  0.27851582174E+01  0.10473088391E+02  0.35371841017E+02  0.00000000000E+00 0. -1.
         11    1    4    4    0    0  0.87044968129E+01 -0.43497479762E+02  0.12887008345E+03  0.13629122282E+03  0.00000000000E+00 0.  1.
        -13    1    3    3    0    0 -0.44466703366E+02  0.58801124686E+02  0.62772494381E+01  0.73988268212E+02  0.00000000000E+00 0.  1.
         13    1    3    3    0    0  0.20107598120E+02 -0.18497337307E+02  0.16845076412E+02  0.32097096269E+02  0.00000000000E+00 0. -1.
          3    1    1    2  501    0  0.49325433344E+02  0.40853416532E+00  0.37925110377E+03  0.38244550590E+03  0.00000000000E+00 0. -1.
<scales pt_clust_5="13000.00000" pt_clust_6="13000.00000" pt_clust_7="13000.00000" pt_clust_8="13000.00000" pt_clust_9="49.32713"></scales>
<clustering>
<clus scale="   49.327">  1  9  2 -1</clus>
<clus scale="   88.153">  5  6 -1 -1</clus>
<clus scale="   92.205">  7  8 -1 -1</clus>
<clus scale="   97.481">  1  5  2 -1</clus>
<clus scale="   49.327">  1  5  2 -1</clus>
</clustering>
</event>
<event>
 9    1  0.1464797E-005  0.1381630E+03  0.7546771E-02  0.1215991E+00
          1   -1    0    0  502    0 -0.00000000000E+00  0.00000000000E+00  0.58573784048E+03  0.58573784048E+03  0.00000000000E+00 0. -1.
         21   -1    0    0  501  502  0.00000000000E+00 -0.00000000000E+00 -0.49314392012E+02  0.49314392012E+02  0.00000000000E+00 0. -1.
         23    2    1    2    0    0  0.97138542768E+02  0.55467014889E+02  0.38197659407E+03  0.40799372782E+03  0.89667593303E+02 0.  0.
         23    2    1    2    0    0 -0.62781722993E+02 -0.69679385241E+02  0.11835355928E+03  0.17524047221E+03  0.88909485639E+02 0.  0.
        -13    1    4    4    0    0 -0.38446552896E+02  0.93898212463E+01  0.13796044369E+02  0.41912253731E+02  0.00000000000E+00 0.  1.
         13    1    4    4    0    0 -0.24335170097E+02 -0.79069206488E+02  0.10455751491E+03  0.13332821848E+03  0.00000000000E+00 0. -1.
        -13    1    3    3    0    0  0.66817885717E+02 -0.24555326185E+01  0.11403987948E+03  0.13219589103E+03  0.00000000000E+00 0.  1.
         13    1    3    3    0    0  0.30320657051E+02  0.57922547507E+02  0.26793671459E+03  0.27579783679E+03  0.00000000000E+00 0. -1.
          1    1    1    2  501    0 -0.34356819775E+02  0.14212370353E+02  0.36093295116E+02  0.51818032464E+02  0.00000000000E+00 0. -1.
<scales pt_clust_5="13000.00000" pt_clust_6="13000.00000" pt_clust_7="13000.00000" pt_clust_8="13000.00000" pt_clust_9="37.18041"></scales>
<clustering>
<clus scale="   37.180">  2  9  1 -1</clus>
<clus scale="   88.909">  5  6 -1 -1</clus>
<clus scale="   89.668">  7  8 -1 -1</clus>
<clus scale="  137.672">  2  5  1 -1</clus>
<clus scale="   37.180">  2  5  1 -1</clus>
</clustering>
</event>
<event>
 9    1  0.1464797E-005  0.1052678E+03  0.7546771E-02  0.1271722E+00
         21   -1    0    0  501  502  0.00000000000E+00  0.00000000000E+00  0.47839012833E+02  0.47839012833E+02  0.00000000000E+00 0.  1.
          2   -1    0    0  502    0 -0.00000000000E+00 -0.00000000000E+00 -0.48664366882E+03  0.48664366882E+03  0.00000000000E+00 0. -1.
         23    2    1    2    0    0 -0.35706805485E+02 -0.50206919201E+02 -0.18552737535E+03  0.21571658730E+03  0.91200484314E+02 0.  0.
         23    2    1    2    0    0  0.67416206980E+02 -0.24647423647E+02 -0.14399880125E+03  0.18256607657E+03  0.86268633329E+02 0.  0.
        -11    1    4    4    0    0  0.66337297225E+02 -0.46239183952E+02 -0.75107327101E+02  0.11036217522E+03  0.00000000000E+00 0.  1.
         11    1    4    4    0    0  0.10789097551E+01  0.21591760305E+02 -0.68891474145E+02  0.72203901343E+02  0.00000000000E+00 0. -1.
        -13    1    3    3    0    0 -0.64597118539E+02 -0.45592307980E+02 -0.15110555830E+03  0.17054130298E+03  0.00000000000E+00 0.  1.
         13    1    3    3    0    0  0.28890313054E+02 -0.46146112212E+01 -0.34421817046E+02  0.45175284325E+02  0.00000000000E+00 0. -1.
          2    1    1    2  501    0 -0.31709401495E+02  0.74854342848E+02 -0.10927847939E+03  0.13620001778E+03  0.00000000000E+00 0. -1.
<scales pt_clust_5="13000.00000" pt_clust_6="13000.00000" pt_clust_7="13000.00000" pt_clust_8="13000.00000" pt_clust_9="81.29366"></scales>
<clustering>
<clus scale="   81.294">  1  9  2 -1</clus>
<clus scale="   86.269">  5  6 -1 -1</clus>
<clus scale="   91.200">  7  8 -1 -1</clus>
<clus scale="  101.025">  1  5  2 -1</clus>
<clus scale="   81.294">  1  5  2 -1</clus>
</clustering>
</event>
<event>
 9    1  0.1464797E-005  0.1030042E+03  0.7546771E-02  0.1274725E+00
         21   -1    0    0  501  502  0.00000000000E+00  0.00000000000E+00  0.43608769812E+03  0.43608769812E+03  0.00000000000E+00 0. -1.
          1   -1    0    0  502    0 -0.00000000000E+00 -0.00000000000E+00 -0.37999054336E+02  0.37999054336E+02  0.00000000000E+00 0. -1.
         23    2    1    2    0    0 -0.22985030473E+02  0.49772609694E+02  0.86960229996E+02  0.13739645502E+03  0.91159639923E+02 0.  0.
         23    2    1    2    0    0  0.48969842928E+00 -0.27453044254E+02  0.22107109324E+03  0.24122028146E+03  0.92525058648E+02 0.  0.
        -11    1    3    3    0    0 -0.31239471001E+02 -0.17926835449E+02  0.17473722410E+02  0.40032573644E+02  0.00000000000E+00 0. -1.
         11    1    3    3    0    0  0.82544405282E+01  0.67699445144E+02  0.69486507585E+02  0.97363881381E+02  0.00000000000E+00 0.  1.
        -13    1    4    4    0    0 -0.19613344577E+02 -0.56395882081E+02  0.15902853256E+03  0.16986834011E+03  0.00000000000E+00 0.  1.
         13    1    4    4    0    0  0.20103043006E+02  0.28942837827E+02  0.62042560678E+02  0.71351941354E+02  0.00000000000E+00 0. -1.
          1    1    1    2  501    0  0.22495332044E+02 -0.22319565440E+02  0.90057320544E+02  0.95470015967E+02  0.00000000000E+00 0. -1.
<scales pt_clust_5="13000.00000" pt_clust_6="13000.00000" pt_clust_7="13000.00000" pt_clust_8="13000.00000" pt_clust_9="31.68916"></scales>
<clustering>
<clus scale="   31.689">  1  9  2 -1</clus>
<clus scale="   91.160">  5  6 -1 -1</clus>
<clus scale="   92.525">  7  8 -1 -1</clus>
<clus scale="  101.780">  2  5  1 -1</clus>
<clus scale="   31.689">  1  5  2 -1</clus>
</clustering>
</event>
<event>
 9    1  0.1464797E-005  0.1591545E+03  0.7546771E-02  0.1192260E+00
         21   -1    0    0  501  502  0.00000000000E+00  0.00000000000E+00  0.35131314346E+03  0.35131314346E+03  0.00000000000E+00 0.  1.
          3   -1    0    0  502    0 -0.00000000000E+00 -0.00000000000E+00 -0.10775867853E+03  0.10775867853E+03  0.00000000000E+00 0. -1.
         23    2    1    2    0    0 -0.11590556677E+03 -0.24059342228E+02  0.27217426476E+02  0.16111321851E+03  0.10584766657E+03 0.  0.
         23    2    1    2    0    0  0.10597662895E+03  0.67422128032E+02  0.19226354718E+03  0.24737750048E+03  0.91943281082E+02 0.  0.
        -13    1    4    4    0    0  0.69674332972E+02 -0.60976929977E+01  0.11568723756E+03  0.13518591446E+03  0.00000000000E+00 0. -1.
         13    1    4    4    0    0  0.36302295978E+02  0.73519821030E+02  0.76576309628E+02  0.11219158602E+03  0.00000000000E+00 0.  1.
        -13    1    3    3    0    0 -0.45833270072E+02  0.40050267139E+02  0.25851685394E+02  0.66128830181E+02  0.00000000000E+00 0.  1.
         13    1    3    3    0    0 -0.70072296696E+02 -0.64109609367E+02  0.13657410820E+01  0.94984388328E+02  0.00000000000E+00 0. -1.
          3    1    1    2  501    0  0.99289378176E+01 -0.43362785805E+02  0.24073491267E+02  0.50581103000E+02  0.00000000000E+00 0. -1.
<scales pt_clust_5="13000.00000" pt_clust_6="13000.00000" pt_clust_7="13000.00000" pt_clust_8="13000.00000" pt_clust_9="44.48502"></scales>
<clustering>
<clus scale="   44.485">  1  9  2 -1</clus>
<clus scale="   91.943">  5  6 -1 -1</clus>
<clus scale="  105.848">  7  8 -1 -1</clus>
<clus scale="  150.266">  1  5  2 -1</clus>
<clus scale="   44.485">  1  5  2 -1</clus>
</clustering>
</event>
<event>
 9    1  0.1464797E-005  0.1326000E+03  0.7546771E-02  0.1236902E+00
          1   -1    0    0  502    0 -0.00000000000E+00  0.00000000000E+00  0.17246066596E+03  0.17246066596E+03  0.00000000000E+00 0. -1.
         21   -1    0    0  501  502  0.00000000000E+00 -0.00000000000E+00 -0.21959735462E+03  0.21959735462E+03  0.00000000000E+00 0. -1.
         23    2    1    2    0    0  0.22003987437E+02 -0.38008838658E+02 -0.21325837126E+02  0.10309472057E+03  0.90801337001E+02 0.  0.
         23    2    1    2    0    0  0.72379088246E+02  0.75655734777E+02  0.67094464270E+02  0.15127941764E+03  0.86146807513E+02 0.  0.
        -11    1    3    3    0    0 -0.23723427110E+02  0.11177438311E+02  0.11149245942E+02  0.28496347241E+02  0.00000000000E+00 0.  1.
         11    1    3    3    0    0  0.45727414546E+02 -0.49186276968E+02 -0.32475083068E+02  0.74598373329E+02  0.00000000000E+00 0. -1.
        -13    1    4    4    0    0  0.27442428011E+02  0.25784046956E+02 -0.18942957759E+02  0.42151388841E+02  0.00000000000E+00 0.  1.
         13    1    4    4    0    0  0.44936660234E+02  0.49871687821E+02  0.86037422029E+02  0.10912802879E+03  0.00000000000E+00 0. -1.
          1    1    1    2  501    0 -0.94383075682E+02 -0.37646896120E+02 -0.92905315801E+02  0.13768388238E+03  0.00000000000E+00 0. -1.
<scales pt_clust_5="13000.00000" pt_clust_6="13000.00000" pt_clust_7="13000.00000" pt_clust_8="13000.00000" pt_clust_9="100.80423"></scales>
<clustering>
<clus scale="   86.147">  7  8 -1 -1</clus>
<clus scale="   90.801">  5  6 -1 -1</clus>
<clus scale="  100.865">  1  5  2 -1</clus>
<clus scale="  100.804">  2  9  1 -1</clus>
<clus scale="  100.804">  2  5  1 -1</clus>
</clustering>
</event>
<event>
 9    1  0.1464797E-005  0.9261506E+02  0.7546771E-02  0.1296966E+00
          1   -1    0    0  502    0 -0.00000000000E+00  0.00000000000E+00  0.27139031814E+03  0.27139031814E+03  0.00000000000E+00 0. -1.
         21   -1    0    0  501  502  0.00000000000E+00 -0.00000000000E+00 -0.10167377952E+03  0.10167377952E+03  0.00000000000E+00 0.  1.
         23    2    1    2    0    0  0.69347026135E+01  0.16643968744E+02  0.20607945765E+03  0.22602532654E+03  0.91069169180E+02 0.  0.
         23    2    1    2    0    0  0.53696696106E+01  0.21350395629E+02 -0.47559824737E+02  0.10556178958E+03  0.91633409544E+02 0.  0.
        -11    1    4    4    0    0  0.10986147205E+02 -0.34308897168E+02 -0.30140067203E+02  0.46970410965E+02  0.00000000000E+00 0.  1.
         11    1    4    4    0    0 -0.56164775940E+01  0.55659292797E+02 -0.17419757534E+02  0.58591378613E+02  0.00000000000E+00 0. -1.
        -13    1    3    3    0    0 -0.65315990264E+01 -0.22875220778E+02  0.10438034030E+02  0.25978646344E+02  0.00000000000E+00 0.  1.
         13    1    3    3    0    0  0.13466301640E+02  0.39519189522E+02  0.19564142362E+03  0.20004668020E+03  0.00000000000E+00 0. -1.
          1    1    1    2  501    0 -0.12304372224E+02 -0.37994364373E+02  0.11196905702E+02  0.41476981535E+02  0.00000000000E+00 0. -1.
<scales pt_clust_5="13000.00000" pt_clust_6="13000.00000" pt_clust_7="13000.00000" pt_clust_8="13000.00000" pt_clust_9="39.93707"></scales>
<clustering>
<clus scale="   39.937">  2  9  1 -1</clus>
<clus scale="   91.069">  7  8 -1 -1</clus>
<clus scale="   91.633">  5  6 -1 -1</clus>
<clus scale="   92.057">  1  7  2 -1</clus>
<clus scale="   39.937">  2  5  1 -1</clus>
</clustering>
</event>
<event>
 9    1  0.1464797E-005  0.1153782E+03  0.7546771E-02  0.1254678E+00
         21   -1    0    0  501  502  0.00000000000E+00  0.00000000000E+00  0.13330695146E+03  0.13330695146E+03  0.00000000000E+00 0.  1.
          2   -1    0    0  502    0 -0.00000000000E+00 -0.00000000000E+00 -0.19447641225E+03  0.19447641225E+03  0.00000000000E+00 0. -1.
         23    2    1    2    0    0  0.74429661159E+01  0.55201015805E+02 -0.58094700119E+02  0.11641133462E+03  0.84107400119E+02 0.  0.
         23    2    1    2    0    0 -0.18921751507E+02 -0.77368465556E+02 -0.68553286997E+02  0.14129638603E+03  0.94452122281E+02 0.  0.
        -11    1    3    3    0    0 -0.34495612058E+02  0.11689553434E+02 -0.66014656871E+01  0.37015837961E+02  0.00000000000E+00 0.  1.
         11    1    3    3    0    0  0.41938578174E+02  0.43511462371E+02 -0.51493234432E+02  0.79395496655E+02  0.00000000000E+00 0. -1.
        -13    1    4    4    0    0  0.25048416426E+02 -0.18727831626E+02 -0.59795007133E+02  0.67480350628E+02  0.00000000000E+00 0. -1.
         13    1    4    4    0    0 -0.43970167933E+02 -0.58640633930E+02 -0.87582798643E+01  0.73816035399E+02  0.00000000000E+00 0.  1.
          2    1    1    2  501    0  0.11478785391E+02  0.22167449751E+02  0.65478526327E+02  0.70075643076E+02  0.00000000000E+00 0. -1.
<scales pt_clust_5="13000.00000" pt_clust_6="13000.00000" pt_clust_7="13000.00000" pt_clust_8="13000.00000" pt_clust_9="24.96314"></scales>
<clustering>
<clus scale="   24.963">  1  9  2 -1</clus>
<clus scale="   84.107">  5  6 -1 -1</clus>
<clus scale="   94.452">  7  8 -1 -1</clus>
<clus scale="  107.075">  2  5  1 -1</clus>
<clus scale="   24.963">  1  5  2 -1</clus>
</clustering>
</event>
<event>
 9    1  0.1464797E-005  0.1508008E+03  0.7546771E-02  0.1199520E+00
         21   -1    0    0  501  502  0.00000000000E+00  0.00000000000E+00  0.38266407807E+03  0.38266407807E+03  0.00000000000E+00 0.  1.
         -3   -1    0    0    0  501 -0.00000000000E+00 -0.00000000000E+00 -0.16130205803E+03  0.16130205803E+03  0.00000000000E+00 0.  1.
         23    2    1    2    0    0  0.84294122922E+02  0.46665193408E+02  0.82013943156E-01  0.13294871960E+03  0.91609038211E+02 0.  0.
         23    2    1    2    0    0 -0.14394505431E+03 -0.45905430303E+02 -0.51664459492E+01  0.17684481669E+03  0.91760066664E+02 0.  0.
        -11    1    3    3    0    0  0.43506726861E+02  0.60618240714E+02 -0.29959918692E+02  0.80405243097E+02  0.00000000000E+00 0.  1.
         11    1    3    3    0    0  0.40787396061E+02 -0.13953047306E+02  0.30041932635E+02  0.52543476503E+02  0.00000000000E+00 0. -1.
        -13    1    4    4    0    0 -0.72631289391E+02 -0.41689308592E+02 -0.44980782328E+02  0.95060893265E+02  0.00000000000E+00 0.  1.
         13    1    4    4    0    0 -0.71313764918E+02 -0.42161217113E+01  0.39814336379E+02  0.81783923422E+02  0.00000000000E+00 0. -1.
         -3    1    1    2    0  502  0.59650931386E+02 -0.75976310505E+00  0.22644645205E+03  0.23417259981E+03  0.00000000000E+00 0.  1.
<scales pt_clust_5="13000.00000" pt_clust_6="13000.00000" pt_clust_7="13000.00000" pt_clust_8="13000.00000" pt_clust_9="59.65577"></scales>
<clustering>
<clus scale="   59.656">  1  9  2 -1</clus>
<clus scale="   91.609">  5  6 -1 -1</clus>
<clus scale="   91.760">  7  8 -1 -1</clus>
<clus scale="  150.709">  2  5  1 -1</clus>
<clus scale="   59.656">  1  5  2 -1</clus>
</clustering>
</event>
<event>
 9    1  0.1464797E-005  0.9600053E+02  0.7546771E-02  0.1297083E+00
         21   -1    0    0  501  502  0.00000000000E+00  0.00000000000E+00  0.35199565358E+02  0.35199565358E+02  0.00000000000E+00 0. -1.
          1   -1    0    0  502    0 -0.00000000000E+00 -0.00000000000E+00 -0.42710474270E+03  0.42710474270E+03  0.00000000000E+00 0. -1.
         23    2    1    2    0    0 -0.51367865795E+02  0.53118155540E+01 -0.22732172998E+03  0.24392468227E+03  0.71813708173E+02 0.  0.
         23    2    1    2    0    0  0.22287992855E+02 -0.15941167325E+02 -0.16370467714E+03  0.18740553393E+03  0.87009984416E+02 0.  0.
        -11    1    4    4    0    0  0.44630256674E+02  0.53815277400E+01 -0.40894589686E+02  0.60771606176E+02  0.00000000000E+00 0.  1.
         11    1    4    4    0    0 -0.22342263819E+02 -0.21322695065E+02 -0.12281008746E+03  0.12663392775E+03  0.00000000000E+00 0. -1.
        -13    1    3    3    0    0 -0.37424806800E+02  0.26536649031E+02 -0.20513584697E+03  0.21020353379E+03  0.00000000000E+00 0.  1.
         13    1    3    3    0    0 -0.13943058995E+02 -0.21224833477E+02 -0.22185883009E+02  0.33721148485E+02  0.00000000000E+00 0. -1.
          1    1    1    2  501    0  0.29079872940E+02  0.10629351771E+02 -0.87877022636E+00  0.30974091858E+02  0.00000000000E+00 0. -1.
<scales pt_clust_5="13000.00000" pt_clust_6="13000.00000" pt_clust_7="13000.00000" pt_clust_8="13000.00000" pt_clust_9="30.96162"></scales>
<clustering>
<clus scale="   30.962">  1  9  2 -1</clus>
<clus scale="   71.814">  7  8 -1 -1</clus>
<clus scale="   82.478">  2  7  1 -1</clus>
<clus scale="   87.010">  5  6 -1 -1</clus>
<clus scale="   30.962">  1  5  2 -1</clus>
</clustering>
</event>
<event>
 9    1  0.2054869E-005  0.1324685E+03  0.7546771E-02  0.1237881E+00
         21   -1    0    0  501  502  0.00000000000E+00  0.00000000000E+00  0.77635406789E+02  0.77635406789E+02  0.00000000000E+00 0. -1.
         -3   -1    0    0    0  501 -0.00000000000E+00 -0.00000000000E+00 -0.87116843986E+03  0.87116843986E+03  0.00000000000E+00 0.  1.
         23    2    1    2    0    0  0.36708865023E+02 -0.12568894008E+02 -0.96898473476E+02  0.13864708889E+03  0.91258880267E+02 0.  0.
         23    2    1    2    0    0 -0.11784477829E+03  0.73530849788E+02 -0.68985361864E+03  0.70844452824E+03  0.81862426061E+02 0.  0.
        -13    1    3    3    0    0 -0.18412883274E+02 -0.29932991810E+02 -0.61623845073E+02  0.70940232244E+02  0.00000000000E+00 0.  1.
         13    1    3    3    0    0  0.55121748297E+02  0.17364097802E+02 -0.35274628402E+02  0.67706856645E+02  0.00000000000E+00 0. -1.
        -13    1    4    4    0    0 -0.10216750375E+03  0.24949236286E+02 -0.53966968565E+03  0.54982181916E+03  0.00000000000E+00 0. -1.
         13    1    4    4    0    0 -0.15677274533E+02  0.48581613501E+02 -0.15018393299E+03  0.15862270908E+03  0.00000000000E+00 0.  1.
         -3    1    1    2    0  502  0.81135913263E+02 -0.60961955780E+02 -0.67809409521E+01  0.10171222952E+03  0.00000000000E+00 0.  1.
<scales pt_clust_5="13000.00000" pt_clust_6="13000.00000" pt_clust_7="13000.00000" pt_clust_8="13000.00000" pt_clust_9="104.14629"></scales>
<clustering>
<clus scale="   81.862">  7  8 -1 -1</clus>
<clus scale="   91.259">  5  6 -1 -1</clus>
<clus scale="   99.165">  2  5  1 -1</clus>
<clus scale="  104.146">  1  9  2 -1</clus>
<clus scale="  104.146">  1  5  2 -1</clus>
</clustering>
</event>
<event>
 9    1  0.1464797E-005  0.1105399E+03  0.7546771E-02  0.1264657E+00
          1   -1    0    0  502    0 -0.00000000000E+00  0.00000000000E+00  0.45026296298E+03  0.45026296298E+03  0.00000000000E+00 0. -1.
         21   -1    0    0  501  502  0.00000000000E+00 -0.00000000000E+00 -0.11687733613E+03  0.11687733613E+03  0.00000000000E+00 0. -1.
         23    2    1    2    0    0  0.41497043591E+02 -0.36314847078E+00  0.39112673706E+03  0.40355298954E+03  0.90292604457E+02 0.  0.
         23    2    1    2    0    0 -0.66320024844E+02  0.17631365759E+02 -0.48218348731E+02  0.13188471168E+03  0.10178092781E+03 0.  0.
        -11    1    4    4    0    0 -0.44306198430E+02 -0.10248795692E+02 -0.74784686677E+02  0.87526146916E+02  0.00000000000E+00 0.  1.
         11    1    4    4    0    0 -0.22013826414E+02  0.27880161451E+02  0.26566337947E+02  0.44358564763E+02  0.00000000000E+00 0. -1.
        -13    1    3    3    0    0  0.35635713222E+02  0.42699917661E+02  0.23485910354E+03  0.24135448109E+03  0.00000000000E+00 0. -1.
         13    1    3    3    0    0  0.58613303690E+01 -0.43063066132E+02  0.15626763351E+03  0.16219850845E+03  0.00000000000E+00 0.  1.
          1    1    1    2  501    0  0.24822981253E+02 -0.17268217288E+02 -0.95227614795E+01  0.31702597887E+02  0.00000000000E+00 0. -1.
<scales pt_clust_5="13000.00000" pt_clust_6="13000.00000" pt_clust_7="13000.00000" pt_clust_8="13000.00000" pt_clust_9="30.23858"></scales>
<clustering>
<clus scale="   30.239">  2  9  1 -1</clus>
<clus scale="   90.293">  7  8 -1 -1</clus>
<clus scale="  100.062">  1  7  2 -1</clus>
<clus scale="  101.781">  5  6 -1 -1</clus>
<clus scale="   30.239">  2  5  1 -1</clus>
</clustering>
</event>
<event>
 9    1  0.1464797E-005  0.1694131E+03  0.7546771E-02  0.1178635E+00
         21   -1    0    0  501  502  0.00000000000E+00  0.00000000000E+00  0.16107101564E+03  0.16107101564E+03  0.00000000000E+00 0.  1.
         -1   -1    0    0    0  501 -0.00000000000E+00 -0.00000000000E+00 -0.43078365770E+03  0.43078365770E+03  0.00000000000E+00 0.  1.
         23    2    1    2    0    0  0.14680339265E+03 -0.57577050131E+02 -0.31526243176E+03  0.36438781888E+03  0.92313210714E+02 0.  0.
         23    2    1    2    0    0 -0.10553991295E+03 -0.12705675001E+01 -0.51396377587E+01  0.13951723868E+03  0.91095315179E+02 0.  0.
        -11    1    3    3    0    0  0.64742255461E+02 -0.73972550374E+02 -0.15388696659E+03  0.18260530205E+03  0.00000000000E+00 0.  1.
         11    1    3    3    0    0  0.82061137192E+02  0.16395500243E+02 -0.16137546518E+03  0.18178251683E+03  0.00000000000E+00 0. -1.
        -13    1    4    4    0    0 -0.31976426234E+02 -0.36624018474E+02  0.22192600055E+02  0.53444569987E+02  0.00000000000E+00 0. -1.
         13    1    4    4    0    0 -0.73563486711E+02  0.35353450974E+02 -0.27332237813E+02  0.86072668698E+02  0.00000000000E+00 0.  1.
         -1    1    1    2    0  502 -0.41263479707E+02  0.58847617632E+02  0.50689427461E+02  0.87949615774E+02  0.00000000000E+00 0.  1.
<scales pt_clust_5="13000.00000" pt_clust_6="13000.00000" pt_clust_7="13000.00000" pt_clust_8="13000.00000" pt_clust_9="71.87292"></scales>
<clustering>
<clus scale="   71.873">  1  9  2 -1</clus>
<clus scale="   91.095">  7  8 -1 -1</clus>
<clus scale="   92.313">  5  6 -1 -1</clus>
<clus scale="  168.753">  1  7  2 -1</clus>
<clus scale="   71.873">  1  5  2 -1</clus>
</clustering>
</event>
<event>
 9    1  0.1464797E-005  0.2371041E+03  0.7546771E-02  0.1157018E+00
         21   -1    0    0  501  502  0.00000000000E+00  0.00000000000E+00  0.13195696405E+04  0.13195696405E+04  0.00000000000E+00 0.  1.
         -1   -1    0    0    0  501 -0.00000000000E+00 -0.00000000000E+00 -0.23164153000E+03  0.23164153000E+03  0.00000000000E+00 0.  1.
         23    2    1    2    0    0  0.36636386430E+02 -0.27153814331E+02 -0.14194081430E+03  0.17427837701E+03  0.90256321038E+02 0.  0.
         23    2    1    2    0    0  0.17020967503E+03  0.10589390702E+03  0.13364440555E+03  0.25858870873E+03  0.93927845340E+02 0.  0.
        -13    1    3    3    0    0  0.62101896682E+02 -0.15167761530E+02 -0.60135239882E+02  0.87766472169E+02  0.00000000000E+00 0.  1.
         13    1    3    3    0    0 -0.25465510252E+02 -0.11986052801E+02 -0.81805574416E+02  0.86511904843E+02  0.00000000000E+00 0. -1.
        -13    1    4    4    0    0  0.11018376876E+03  0.13537108249E+02  0.61394939276E+02  0.12685840440E+03  0.00000000000E+00 0.  1.
         13    1    4    4    0    0  0.60025906269E+02  0.92356798767E+02  0.72249466279E+02  0.13173030433E+03  0.00000000000E+00 0. -1.
         -1    1    1    2    0  502 -0.20684606146E+03 -0.78740092685E+02  0.10962245193E+04  0.11183440848E+04  0.00000000000E+00 0.  1.
<scales pt_clust_5="13000.00000" pt_clust_6="13000.00000" pt_clust_7="13000.00000" pt_clust_8="13000.00000" pt_clust_9="217.70600"></scales>
<clustering>
<clus scale="   90.256">  5  6 -1 -1</clus>
<clus scale="   93.928">  7  8 -1 -1</clus>
<clus scale="  101.122">  2  5  1 -1</clus>
<clus scale="  217.706">  1  9  2 -1</clus>
<clus scale="  217.706">  1  5  2 -1</clus>
</clustering>
</event>
<event>
 9    1  0.1680398E-005  0.1064103E+03  0.7546771E-02  0.1268167E+00
         21   -1    0    0  501  502  0.00000000000E+00  0.00000000000E+00  0.87408425408E+02  0.87408425408E+02  0.00000000000E+00 0. -1.
          1   -1    0    0  502    0 -0.00000000000E+00 -0.00000000000E+00 -0.57118727935E+03  0.57118727935E+03  0.00000000000E+00 0. -1.
         23    2    1    2    0    0  0.21868871628E+02  0.54645523143E+02 -0.45628222010E+03  0.46882994153E+03  0.90242279176E+02 0.  0.
         23    2    1    2    0    0 -0.40102830873E+02 -0.14282111167E+02 -0.73948884290E+02  0.12558247982E+03  0.92142856521E+02 0.  0.
        -11    1    3    3    0    0 -0.10747612518E+01  0.70615328204E+02 -0.39767384161E+03  0.40389622923E+03  0.00000000000E+00 0. -1.
         11    1    3    3    0    0  0.22943632880E+02 -0.15969805061E+02 -0.58608378492E+02  0.64933712298E+02  0.00000000000E+00 0.  1.
        -13    1    4    4    0    0  0.26740699671E+02 -0.18340841761E+02 -0.12681096231E+02  0.34817548693E+02  0.00000000000E+00 0.  1.
         13    1    4    4    0    0 -0.66843530544E+02  0.40587305939E+01 -0.61267788058E+02  0.90764931131E+02  0.00000000000E+00 0. -1.
          1    1    1    2  501    0  0.18233959245E+02 -0.40363411976E+02  0.46452250451E+02  0.64183283400E+02  0.00000000000E+00 0. -1.
<scales pt_clust_5="13000.00000" pt_clust_6="13000.00000" pt_clust_7="13000.00000" pt_clust_8="13000.00000" pt_clust_9="44.29088"></scales>
<clustering>
<clus scale="   44.291">  1  9  2 -1</clus>
<clus scale="   90.242">  5  6 -1 -1</clus>
<clus scale="   92.143">  7  8 -1 -1</clus>
<clus scale="  104.769">  2  5  1 -1</clus>
<clus scale="   44.291">  1  5  2 -1</clus>
</clustering>
</event>
<event>
 9    1  0.1464797E-005  0.9597440E+02  0.7546771E-02  0.1291768E+00
         21   -1    0    0  501  502  0.00000000000E+00  0.00000000000E+00  0.57173017980E+02  0.57173017980E+02  0.00000000000E+00 0.  1.
          1   -1    0    0  502    0 -0.00000000000E+00 -0.00000000000E+00 -0.32025472531E+03  0.32025472531E+03  0.00000000000E+00 0. -1.
         23    2    1    2    0    0 -0.11674086875E+02 -0.78624646520E+01 -0.22251139478E+03  0.24252232549E+03  0.95434034284E+02 0.  0.
         23    2    1    2    0    0  0.53856521592E+01 -0.11343351279E+02 -0.57959911641E+02  0.10824447384E+03  0.90552956283E+02 0.  0.
        -11    1    4    4    0    0 -0.24765507806E+02  0.10428357523E+02 -0.65052621293E+02  0.70384121467E+02  0.00000000000E+00 0.  1.
         11    1    4    4    0    0  0.30151159965E+02 -0.21771708802E+02  0.70927096524E+01  0.37860352371E+02  0.00000000000E+00 0. -1.
        -13    1    3    3    0    0 -0.18477943336E+02  0.33169418273E+02 -0.39285817180E+02  0.54635337740E+02  0.00000000000E+00 0.  1.
         13    1    3    3    0    0  0.68038564611E+01 -0.41031882925E+02 -0.18322557760E+03  0.18788698775E+03  0.00000000000E+00 0. -1.
          1    1    1    2  501    0  0.62884347156E+01  0.19205815931E+02  0.17389599086E+02  0.26660943965E+02  0.00000000000E+00 0. -1.
<scales pt_clust_5="13000.00000" pt_clust_6="13000.00000" pt_clust_7="13000.00000" pt_clust_8="13000.00000" pt_clust_9="20.20910"></scales>
<clustering>
<clus scale="   20.209">  1  9  2 -1</clus>
<clus scale="   90.553">  5  6 -1 -1</clus>
<clus scale="   91.122">  1  5  2 -1</clus>
<clus scale="   95.434">  7  8 -1 -1</clus>
<clus scale="   20.209">  1  5  2 -1</clus>
</clustering>
</event>
<event>
 9    1  0.1464797E-005  0.9407438E+02  0.7546771E-02  0.1295239E+00
          1   -1    0    0  502    0 -0.00000000000E+00  0.00000000000E+00  0.36478461541E+03  0.36478461541E+03  0.00000000000E+00 0. -1.
         21   -1    0    0  501  502  0.00000000000E+00 -0.00000000000E+00 -0.53054656808E+02  0.53054656808E+02  0.00000000000E+00 0. -1.
         23    2    1    2    0    0  0.41858184033E+02  0.75683610191E+01  0.17446627616E+03  0.20182364453E+03  0.92113594635E+02 0.  0.
         23    2    1    2    0    0  0.92293581752E+01 -0.13051478470E+02  0.13779353990E+03  0.16463195037E+03  0.88662829305E+02 0.  0.
        -11    1    3    3    0    0 -0.16900020169E+02  0.20065045621E+02  0.11250243541E+03  0.11552062461E+03  0.00000000000E+00 0.  1.
         11    1    3    3    0    0  0.58758204202E+02 -0.12496684601E+02  0.61963840745E+02  0.86303019917E+02  0.00000000000E+00 0. -1.
        -13    1    4    4    0    0  0.31941922034E+02  0.27969101933E+02  0.76101371269E+02  0.87143420608E+02  0.00000000000E+00 0.  1.
         13    1    4    4    0    0 -0.22712563859E+02 -0.41020580404E+02  0.61692168633E+02  0.77488529760E+02  0.00000000000E+00 0. -1.
          1    1    1    2  501    0 -0.51087542208E+02  0.54831174514E+01 -0.52985745790E+00  0.51383677319E+02  0.00000000000E+00 0. -1.
<scales pt_clust_5="13000.00000" pt_clust_6="13000.00000" pt_clust_7="13000.00000" pt_clust_8="13000.00000" pt_clust_9="51.38095"></scales>
<clustering>
<clus scale="   51.381">  2  9  1 -1</clus>
<clus scale="   88.663">  7  8 -1 -1</clus>
<clus scale="   90.698">  2  7  1 -1</clus>
<clus scale="   92.114">  5  6 -1 -1</clus>
<clus scale="   51.381">  2  5  1 -1</clus>
</clustering>
</event>
<event>
 9    1  0.1464797E-005  0.1231777E+03  0.7546771E-02  0.1240228E+00
         21   -1    0    0  501  502  0.00000000000E+00  0.00000000000E+00  0.48331951885E+02  0.48331951885E+02  0.00000000000E+00 0. -1.
          3   -1    0    0  502    0 -0.00000000000E+00 -0.00000000000E+00 -0.85535960691E+03  0.85535960691E+03  0.00000000000E+00 0. -1.
         23    2    1    2    0    0 -0.64554909584E+02  0.30452386583E+02 -0.69297291172E+03  0.70348472810E+03  0.97901083177E+02 0.  0.
         23    2    1    2    0    0  0.89460594949E+02 -0.42830598566E+02 -0.80821436214E+02  0.15687132567E+03  0.90768111387E+02 0.  0.
        -11    1    4    4    0    0  0.88078973031E+02 -0.84932158886E+01 -0.84445612811E+02  0.12231558253E+03  0.00000000000E+00 0.  1.
         11    1    4    4    0    0  0.13816219181E+01 -0.34337382678E+02  0.36241765976E+01  0.34555743145E+02  0.00000000000E+00 0. -1.
        -11    1    3    3    0    0 -0.77731656198E+02 -0.10209585017E+02 -0.45377088131E+03  0.46049371193E+03  0.00000000000E+00 0. -1.
         11    1    3    3    0    0  0.13176746614E+02  0.40661971600E+02 -0.23920203041E+03  0.24299101617E+03  0.00000000000E+00 0.  1.
          3    1    1    2  501    0 -0.24905685366E+02  0.12378211983E+02 -0.33233307087E+02  0.43335505020E+02  0.00000000000E+00 0. -1.
<scales pt_clust_5="13000.00000" pt_clust_6="13000.00000" pt_clust_7="13000.00000" pt_clust_8="13000.00000" pt_clust_9="27.81211"></scales>
<clustering>
<clus scale="   27.812">  1  9  2 -1</clus>
<clus scale="   90.768">  5  6 -1 -1</clus>
<clus scale="   97.901">  7  8 -1 -1</clus>
<clus scale="  117.588">  1  5  2 -1</clus>
<clus scale="   27.812">  1  5  2 -1</clus>
</clustering>
</event>
<event>
 9    1  0.1464797E-005  0.1507898E+03  0.7546771E-02  0.1208173E+00
          1   -1    0    0  502    0 -0.00000000000E+00  0.00000000000E+00  0.73137001734E+03  0.73137001734E+03  0.00000000000E+00 0. -1.
         21   -1    0    0  501  502  0.00000000000E+00 -0.00000000000E+00 -0.62604770076E+02  0.62604770076E+02  0.00000000000E+00 0. -1.
         23    2    1    2    0    0  0.11570726189E+02  0.72052013541E+02  0.42377988325E+03  0.44758781273E+03  0.12417764007E+03 0.  0.
         23    2    1    2    0    0  0.45530452001E+02 -0.12742782839E+03  0.14254233363E+03  0.21668886408E+03  0.91240744363E+02 0.  0.
        -11    1    4    4    0    0  0.58229107199E+02 -0.10736967170E+03  0.70930342950E+02  0.14124442954E+03  0.00000000000E+00 0. -1.
         11    1    4    4    0    0 -0.12698655198E+02 -0.20058156695E+02  0.71611990680E+02  0.75444434539E+02  0.00000000000E+00 0.  1.
        -13    1    3    3    0    0  0.53297533397E+02  0.27888250564E+02  0.33275240711E+03  0.33814574672E+03  0.00000000000E+00 0. -1.
         13    1    3    3    0    0 -0.41726807208E+02  0.44163762977E+02  0.91027476143E+02  0.10944206601E+03  0.00000000000E+00 0.  1.
          1    1    1    2  501    0 -0.57101178191E+02  0.55375814850E+02  0.10244303038E+03  0.12969811060E+03  0.00000000000E+00 0. -1.
<scales pt_clust_5="13000.00000" pt_clust_6="13000.00000" pt_clust_7="13000.00000" pt_clust_8="13000.00000" pt_clust_9="79.54260"></scales>
<clustering>
<clus scale="   79.543">  2  9  1 -1</clus>
<clus scale="   91.241">  5  6 -1 -1</clus>
<clus scale="  124.178">  7  8 -1 -1</clus>
<clus scale="  125.069">  2  5  1 -1</clus>
<clus scale="   79.543">  2  5  1 -1</clus>
</clustering>
</event>
<event>
 9    1  0.1464797E-005  0.1369610E+03  0.7546771E-02  0.1217894E+00
          1   -1    0    0  502    0 -0.00000000000E+00  0.00000000000E+00  0.98154859766E+03  0.98154859766E+03  0.00000000000E+00 0. -1.
         21   -1    0    0  501  502  0.00000000000E+00 -0.00000000000E+00 -0.26498750711E+02  0.26498750711E+02  0.00000000000E+00 0.  1.
         23    2    1    2    0    0  0.23351892551E+02  0.10114170373E+03  0.52886845190E+03  0.54674237882E+03  0.91926243574E+02 0.  0.
         23    2    1    2    0    0 -0.52302322922E+02 -0.86931572085E+02  0.38949091931E+03  0.41245574981E+03  0.90132891421E+02 0.  0.
        -13    1    4    4    0    0 -0.34527112528E+02 -0.31918452969E+02  0.52236965428E+02  0.70282356936E+02  0.00000000000E+00 0.  1.
         13    1    4    4    0    0 -0.17775210395E+02 -0.55013119116E+02  0.33725395389E+03  0.34217339287E+03  0.00000000000E+00 0. -1.
        -13    1    3    3    0    0 -0.22492666578E+02 -0.35318709230E+01  0.12320737640E+03  0.12529346256E+03  0.00000000000E+00 0.  1.
         13    1    3    3    0    0  0.45844559130E+02  0.10467357466E+03  0.40566107550E+03  0.42144891625E+03  0.00000000000E+00 0. -1.
          1    1    1    2  501    0  0.28950430371E+02 -0.14210131650E+02  0.36690475740E+02  0.48849219750E+02  0.00000000000E+00 0. -1.
<scales pt_clust_5="13000.00000" pt_clust_6="13000.00000" pt_clust_7="13000.00000" pt_clust_8="13000.00000" pt_clust_9="32.24989"></scales>
<clustering>
<clus scale="   32.250">  2  9  1 -1</clus>
<clus scale="   90.133">  5  6 -1 -1</clus>
<clus scale="   91.926">  7  8 -1 -1</clus>
<clus scale="  135.764">  2  5  1 -1</clus>
<clus scale="   32.250">  2  5  1 -1</clus>
</clustering>
</event>
<event>
 9    1  0.1464797E-005  0.1017970E+03  0.7546771E-02  0.1276786E+00
          1   -1    0    0  502    0 -0.00000000000E+00  0.00000000000E+00  0.61241046861E+03  0.61241046861E+03  0.00000000000E+00 0. -1.
         21   -1    0    0  501  502  0.00000000000E+00 -0.00000000000E+00 -0.30374519287E+02  0.30374519287E+02  0.00000000000E+00 0. -1.
         23    2    1    2    0    0  0.15593117167E+02  0.44357246492E+02  0.42160428868E+03  0.43393406613E+03  0.91312030383E+02 0.  0.
         23    2    1    2    0    0 -0.36951910684E+02 -0.26926946836E+02  0.14546338194E+03  0.17748114692E+03  0.90826526184E+02 0.  0.
        -11    1    3    3    0    0  0.27159534156E+02 -0.21778175733E+02  0.16985451199E+03  0.17338536408E+03  0.00000000000E+00 0.  1.
         11    1    3    3    0    0 -0.11566416989E+02  0.66135422225E+02  0.25174977669E+03  0.26054870205E+03  0.00000000000E+00 0. -1.
        -13    1    4    4    0    0 -0.63477193956E+02 -0.37992946429E+01  0.72250031062E+02  0.96248926127E+02  0.00000000000E+00 0. -1.
         13    1    4    4    0    0  0.26525283271E+02 -0.23127652193E+02  0.73213350878E+02  0.81232220795E+02  0.00000000000E+00 0.  1.
          1    1    1    2  501    0  0.21358793517E+02 -0.17430299656E+02  0.14968278701E+02  0.31369774845E+02  0.00000000000E+00 0. -1.
<scales pt_clust_5="13000.00000" pt_clust_6="13000.00000" pt_clust_7="13000.00000" pt_clust_8="13000.00000" pt_clust_9="27.56834"></scales>
<clustering>
<clus scale="   27.568">  2  9  1 -1</clus>
<clus scale="   90.827">  7  8 -1 -1</clus>
<clus scale="   91.312">  5  6 -1 -1</clus>
<clus scale="  101.362">  2  7  1 -1</clus>
<clus scale="   27.568">  2  5  1 -1</clus>
</clustering>
</event>
<event>
 9    1  0.1464797E-005  0.9558466E+02  0.7546771E-02  0.1290899E+00
          1   -1    0    0  502    0 -0.00000000000E+00  0.00000000000E+00  0.27727384590E+03  0.27727384590E+03  0.00000000000E+00 0. -1.
         21   -1    0    0  501  502  0.00000000000E+00 -0.00000000000E+00 -0.73200713134E+02  0.73200713134E+02  0.00000000000E+00 0.  1.
         23    2    1    2    0    0 -0.24428301767E+02 -0.16506669670E+02  0.19678556279E+03  0.21814576599E+03  0.89408083661E+02 0.  0.
         23    2    1    2    0    0  0.34910299940E+02  0.36906756018E+02  0.24012353495E+02  0.10394298335E+03  0.87445485789E+02 0.  0.
        -11    1    4    4    0    0  0.49852775034E+01 -0.19373366064E+02 -0.18563002899E+02  0.27290389903E+02  0.00000000000E+00 0. -1.
         11    1    4    4    0    0  0.29925022436E+02  0.56280122083E+02  0.42575356394E+02  0.76652593443E+02  0.00000000000E+00 0.  1.
        -13    1    3    3    0    0 -0.52974167569E+02 -0.78633872470E+01  0.71348542951E+02  0.89211601655E+02  0.00000000000E+00 0.  1.
         13    1    3    3    0    0  0.28545865802E+02 -0.86432824234E+01  0.12543701984E+03  0.12893416433E+03  0.00000000000E+00 0. -1.
          1    1    1    2  501    0 -0.10481998173E+02 -0.20400086348E+02 -0.16724783519E+02  0.28385809702E+02  0.00000000000E+00 0. -1.
<scales pt_clust_5="13000.00000" pt_clust_6="13000.00000" pt_clust_7="13000.00000" pt_clust_8="13000.00000" pt_clust_9="22.93547"></scales>
<clustering>
<clus scale="   22.935">  2  9  1 -1</clus>
<clus scale="   87.445">  5  6 -1 -1</clus>
<clus scale="   89.408">  7  8 -1 -1</clus>
<clus scale="   93.751">  2  5  1 -1</clus>
<clus scale="   22.935">  2  5  1 -1</clus>
</clustering>
</event>
<event>
 9    1  0.1464797E-005  0.1381747E+03  0.7546771E-02  0.1216392E+00
         21   -1    0    0  501  502  0.00000000000E+00  0.00000000000E+00  0.35481655102E+02  0.35481655102E+02  0.00000000000E+00 0. -1.
          2   -1    0    0  502    0 -0.00000000000E+00 -0.00000000000E+00 -0.12923410252E+04  0.12923410252E+04  0.00000000000E+00 0. -1.
         23    2    1    2    0    0 -0.46611451838E+02  0.59555631081E+02 -0.51974460390E+03  0.53315865983E+03  0.91674438300E+02 0.  0.
         23    2    1    2    0    0  0.71653609145E+02 -0.13356276552E+03 -0.66667882897E+03  0.68947187796E+03  0.89092970896E+02 0.  0.
        -11    1    4    4    0    0  0.26912629002E+02 -0.23108046714E+02 -0.49528828505E+02  0.60921065944E+02  0.00000000000E+00 0.  1.
         11    1    4    4    0    0  0.44740980143E+02 -0.11045471881E+03 -0.61715000047E+03  0.62855081202E+03  0.00000000000E+00 0. -1.
        -13    1    3    3    0    0 -0.70720684382E+02  0.56326164090E+02 -0.45713705780E+03  0.46599178273E+03  0.00000000000E+00 0.  1.
         13    1    3    3    0    0  0.24109232544E+02  0.32294669908E+01 -0.62607546095E+02  0.67166877096E+02  0.00000000000E+00 0. -1.
          2    1    1    2  501    0 -0.25042157307E+02  0.74007134440E+02 -0.70435937207E+02  0.10519214249E+03  0.00000000000E+00 0. -1.
<scales pt_clust_5="13000.00000" pt_clust_6="13000.00000" pt_clust_7="13000.00000" pt_clust_8="13000.00000" pt_clust_9="78.12916"></scales>
<clustering>
<clus scale="   78.129">  1  9  2 -1</clus>
<clus scale="   89.093">  5  6 -1 -1</clus>
<clus scale="   91.674">  7  8 -1 -1</clus>
<clus scale="  136.476">  1  5  2 -1</clus>
<clus scale="   78.129">  1  5  2 -1</clus>
</clustering>
</event>
<event>
 9    1  0.1766835E-005  0.1396685E+03  0.7546771E-02  0.1214162E+00
         21   -1    0    0  501  502  0.00000000000E+00  0.00000000000E+00  0.21625246054E+03  0.21625246054E+03  0.00000000000E+00 0. -1.
          2   -1    0    0  502    0 -0.00000000000E+00 -0.00000000000E+00 -0.54300697796E+03  0.54300697796E+03  0.00000000000E+00 0. -1.
         23    2    1    2    0    0  0.79340866968E+01 -0.10331729385E+03 -0.45921256801E+03  0.47894564580E+03  0.88177866106E+02 0.  0.
         23    2    1    2    0    0 -0.37957559355E+02  0.15693308830E+03  0.10876086614E+03  0.21445319086E+03  0.89958182228E+02 0.  0.
        -11    1    3    3    0    0  0.37716181141E+02 -0.97193704744E+02 -0.38173791063E+03  0.39571828233E+03  0.00000000000E+00 0. -1.
         11    1    3    3    0    0 -0.29782094444E+02 -0.61235891043E+01 -0.77474657382E+02  0.83227363466E+02  0.00000000000E+00 0.  1.
        -13    1    4    4    0    0 -0.34375236283E+01  0.13222883440E+03  0.10992544623E+03  0.17198803721E+03  0.00000000000E+00 0.  1.
         13    1    4    4    0    0 -0.34520035727E+02  0.24704253897E+02 -0.11645800870E+01  0.42465153644E+02  0.00000000000E+00 0. -1.
          2    1    1    2  501    0  0.30023472659E+02 -0.53615794449E+02  0.23697184442E+02  0.65860601844E+02  0.00000000000E+00 0. -1.
<scales pt_clust_5="13000.00000" pt_clust_6="13000.00000" pt_clust_7="13000.00000" pt_clust_8="13000.00000" pt_clust_9="61.44967"></scales>
<clustering>
<clus scale="   61.450">  1  9  2 -1</clus>
<clus scale="   88.178">  5  6 -1 -1</clus>
<clus scale="   89.958">  7  8 -1 -1</clus>
<clus scale="  138.528">  2  5  1 -1</clus>
<clus scale="   61.450">  1  5  2 -1</clus>
</clustering>
</event>
<event>
 9    1  0.1464797E-005  0.1112376E+03  0.7546771E-02  0.1258804E+00
         -3   -1    0    0    0  501 -0.00000000000E+00  0.00000000000E+00  0.10069354622E+03  0.10069354622E+03  0.00000000000E+00 0.  1.
         21   -1    0    0  501  502  0.00000000000E+00 -0.00000000000E+00 -0.22670089942E+03  0.22670089942E+03  0.00000000000E+00 0. -1.
         23    2    1    2    0    0  0.53992113136E+01 -0.52234382954E+02 -0.10417213413E+02  0.10752235480E+03  0.93246749015E+02 0.  0.
         23    2    1    2    0    0 -0.18915920181E+02  0.67539514302E+02 -0.14252198034E+02  0.11649739905E+03  0.91919099260E+02 0.  0.
        -13    1    4    4    0    0  0.21424428843E+02  0.12313648123E+02 -0.36939000873E+02  0.44442343175E+02  0.00000000000E+00 0. -1.
         13    1    4    4    0    0 -0.40340349024E+02  0.55225866179E+02  0.22686802839E+02  0.72055055878E+02  0.00000000000E+00 0.  1.
        -13    1    3    3    0    0 -0.16376531576E+02 -0.72862254008E+02  0.28273476101E+01  0.74733478041E+02  0.00000000000E+00 0. -1.
         13    1    3    3    0    0  0.21775742889E+02  0.20627871054E+02 -0.13244561023E+02  0.32788876762E+02  0.00000000000E+00 0.  1.
         -3    1    1    2    0  502  0.13516708868E+02 -0.15305131348E+02 -0.10133794175E+03  0.10337469179E+03  0.00000000000E+00 0.  1.
<scales pt_clust_5="13000.00000" pt_clust_6="13000.00000" pt_clust_7="13000.00000" pt_clust_8="13000.00000" pt_clust_9="20.41932"></scales>
<clustering>
<clus scale="   20.419">  2  9  1 -1</clus>
<clus scale="   91.919">  5  6 -1 -1</clus>
<clus scale="   93.247">  7  8 -1 -1</clus>
<clus scale="  110.127">  2  5  1 -1</clus>
<clus scale="   20.419">  2  5  1 -1</clus>
</clustering>
</event>
<event>
 9    1  0.1464797E-005  0.1670388E+03  0.7546771E-02  0.1185989E+00
         21   -1    0    0  501  502  0.00000000000E+00  0.00000000000E+00  0.47155527452E+03  0.47155527452E+03  0.00000000000E+00 0. -1.
         -3   -1    0    0    0  501 -0.00000000000E+00 -0.00000000000E+00 -0.71266027368E+02  0.71266027368E+02  0.00000000000E+00 0.  1.
         23    2    1    2    0    0 -0.11283888115E+03  0.38015993295E+02  0.10974023343E+03  0.20069417331E+03  0.11856392167E+03 0.  0.
         23    2    1    2    0    0  0.11590286906E+03 -0.13433317467E+02  0.27589427891E+03  0.31334419570E+03  0.91940213034E+02 0.  0.
        -11    1    4    4    0    0  0.10246766318E+03 -0.46005161616E+02  0.19358584280E+03  0.22381147295E+03  0.00000000000E+00 0.  1.
         11    1    4    4    0    0  0.13435205873E+02  0.32571844149E+02  0.82308436110E+02  0.89532722749E+02  0.00000000000E+00 0. -1.
        -13    1    3    3    0    0 -0.13501052501E+03  0.33746925279E+02  0.11110235142E+03  0.17807422418E+03  0.00000000000E+00 0. -1.
         13    1    3    3    0    0  0.22171643856E+02  0.42690680162E+01 -0.13621179853E+01  0.22619949125E+02  0.00000000000E+00 0.  1.
         -3    1    1    2    0  502 -0.30639879045E+01 -0.24582675827E+02  0.14654734819E+02  0.28782932882E+02  0.00000000000E+00 0.  1.
<scales pt_clust_5="13000.00000" pt_clust_6="13000.00000" pt_clust_7="13000.00000" pt_clust_8="13000.00000" pt_clust_9="24.77290"></scales>
<clustering>
<clus scale="   24.773">  1  9  2 -1</clus>
<clus scale="   91.940">  5  6 -1 -1</clus>
<clus scale="  118.564">  7  8 -1 -1</clus>
<clus scale="  149.324">  1  5  2 -1</clus>
<clus scale="   24.773">  1  5  2 -1</clus>
</clustering>
</event>
<event>
 9    1  0.1464797E-005  0.1066219E+03  0.7546771E-02  0.1271918E+00
         -2   -1    0    0    0  501 -0.00000000000E+00  0.00000000000E+00  0.16221156738E+03  0.16221156738E+03  0.00000000000E+00 0.  1.
         21   -1    0    0  501  502  0.00000000000E+00 -0.00000000000E+00 -0.22201908471E+03  0.22201908471E+03  0.00000000000E+00 0.  1.
         23    2    1    2    0    0  0.35808690947E+02 -0.84468339905E+01  0.71392649172E+02  0.12107366185E+03  0.90599723436E+02 0.  0.
         23    2    1    2    0    0  0.15292361402E+02  0.82317035213E+02 -0.10921442286E+03  0.17068268514E+03  0.10096949164E+03 0.  0.
        -11    1    3    3    0    0  0.56702830699E+02 -0.19323181539E+02  0.76305870657E+02  0.97011248064E+02  0.00000000000E+00 0.  1.
         11    1    3    3    0    0 -0.20894139752E+02  0.10876347548E+02 -0.49132214856E+01  0.24062413789E+02  0.00000000000E+00 0. -1.
        -13    1    4    4    0    0  0.16406496572E+02  0.31639321010E+02 -0.11431005626E+03  0.11973724870E+03  0.00000000000E+00 0.  1.
         13    1    4    4    0    0 -0.11141351697E+01  0.50677714203E+02  0.50956334066E+01  0.50945436438E+02  0.00000000000E+00 0. -1.
         -2    1    1    2    0  502 -0.51101052350E+02 -0.73870201223E+02 -0.21985743652E+02  0.92474305101E+02  0.00000000000E+00 0.  1.
<scales pt_clust_5="13000.00000" pt_clust_6="13000.00000" pt_clust_7="13000.00000" pt_clust_8="13000.00000" pt_clust_9="89.82274"></scales>
<clustering>
<clus scale="   89.823">  2  9  1 -1</clus>
<clus scale="   90.600">  5  6 -1 -1</clus>
<clus scale="   96.859">  1  5  2 -1</clus>
<clus scale="  100.969">  7  8 -1 -1</clus>
<clus scale="   89.823">  2  5  1 -1</clus>
</clustering>
</event>
<event>
 9    1  0.1464797E-005  0.1222427E+03  0.7546771E-02  0.1240132E+00
         21   -1    0    0  501  502  0.00000000000E+00  0.00000000000E+00  0.62822616688E+02  0.62822616688E+02  0.00000000000E+00 0.  1.
          2   -1    0    0  502    0 -0.00000000000E+00 -0.00000000000E+00 -0.51483466110E+03  0.51483466110E+03  0.00000000000E+00 0. -1.
         23    2    1    2    0    0  0.11895930310E+02  0.84188249961E+02 -0.34260567307E+03  0.36376136564E+03  0.87832279470E+02 0.  0.
         23    2    1    2    0    0  0.34914184345E+02 -0.78251740939E+02 -0.11097057157E+03  0.16668494208E+03  0.90150246437E+02 0.  0.
        -11    1    4    4    0    0  0.18877668844E+02  0.80824007350E+01  0.50823938575E+01  0.21154723112E+02  0.00000000000E+00 0.  1.
         11    1    4    4    0    0  0.16036515501E+02 -0.86334141674E+02 -0.11605296542E+03  0.14553021896E+03  0.00000000000E+00 0. -1.
        -13    1    3    3    0    0 -0.36857790455E+02  0.52061580157E+02 -0.18498603595E+03  0.19567508360E+03  0.00000000000E+00 0. -1.
         13    1    3    3    0    0  0.48753720765E+02  0.32126669804E+02 -0.15761963713E+03  0.16808628204E+03  0.00000000000E+00 0.  1.
          2    1    1    2  501    0 -0.46810114655E+02 -0.59365090219E+01  0.15642002276E+01  0.47210970078E+02  0.00000000000E+00 0. -1.
<scales pt_clust_5="13000.00000" pt_clust_6="13000.00000" pt_clust_7="13000.00000" pt_clust_8="13000.00000" pt_clust_9="47.18505"></scales>
<clustering>
<clus scale="   47.185">  1  9  2 -1</clus>
<clus scale="   87.832">  7  8 -1 -1</clus>
<clus scale="   90.150">  5  6 -1 -1</clus>
<clus scale="  120.543">  2  7  1 -1</clus>
<clus scale="   47.185">  1  5  2 -1</clus>
</clustering>
</event>
<event>
 9    1  0.1464797E-005  0.3739713E+03  0.7546771E-02  0.1106150E+00
         21   -1    0    0  501  502  0.00000000000E+00  0.00000000000E+00  0.29924029826E+03  0.29924029826E+03  0.00000000000E+00 0.  1.
          1   -1    0    0  502    0 -0.00000000000E+00 -0.00000000000E+00 -0.76023351159E+03  0.76023351159E+03  0.00000000000E+00 0. -1.
         23    2    1    2    0    0  0.18663194783E+02 -0.59222423523E+01  0.67487659489E+02  0.11219433312E+03  0.87461971208E+02 0.  0.
         23    2    1    2    0    0  0.16628488161E+03  0.32147964162E+03 -0.10425635088E+03  0.38714671728E+03  0.89517440626E+02 0.  0.
        -11    1    4    4    0    0  0.88581903709E+02  0.24314539568E+03 -0.97729514588E+02  0.27661795879E+03  0.00000000000E+00 0.  1.
         11    1    4    4    0    0  0.77702977902E+02  0.78334245943E+02 -0.65268362958E+01  0.11052875849E+03  0.00000000000E+00 0. -1.
        -13    1    3    3    0    0 -0.32710077545E+02 -0.12359891720E+02  0.41486294971E+02  0.54257061907E+02  0.00000000000E+00 0. -1.
         13    1    3    3    0    0  0.51373272329E+02  0.64376493680E+01  0.26001364519E+02  0.57937271216E+02  0.00000000000E+00 0.  1.
          1    1    1    2  501    0 -0.18494807639E+03 -0.31555739927E+03 -0.42422452194E+03  0.56013275945E+03  0.00000000000E+00 0. -1.
<scales pt_clust_5="13000.00000" pt_clust_6="13000.00000" pt_clust_7="13000.00000" pt_clust_8="13000.00000" pt_clust_9="363.09958"></scales>
<clustering>
<clus scale="   87.462">  7  8 -1 -1</clus>
<clus scale="   89.517">  5  6 -1 -1</clus>
<clus scale="   89.627">  2  7  1 -1</clus>
<clus scale="  363.100">  1  9  2 -1</clus>
<clus scale="  363.100">  1  5  2 -1</clus>
</clustering>
</event>
<event>
 9    1  0.1464797E-005  0.1063606E+03  0.7546771E-02  0.1271812E+00
         21   -1    0    0  501  502  0.00000000000E+00  0.00000000000E+00  0.91278312401E+02  0.91278312401E+02  0.00000000000E+00 0.  1.
          2   -1    0    0  502    0 -0.00000000000E+00 -0.00000000000E+00 -0.25022626070E+03  0.25022626070E+03  0.00000000000E+00 0. -1.
         23    2    1    2    0    0  0.34185361307E+02  0.10768608316E+02 -0.14844010599E+03  0.17610736034E+03  0.87719641162E+02 0.  0.
         23    2    1    2    0    0 -0.73162122620E+02  0.18992555405E+01 -0.20064772817E+02  0.12331399024E+03  0.97197951227E+02 0.  0.
        -11    1    4    4    0    0 -0.80597411624E+02 -0.31349152794E+02 -0.21851498341E+02  0.89197534277E+02  0.00000000000E+00 0.  1.
         11    1    4    4    0    0  0.74352890033E+01  0.33248408335E+02  0.17867255246E+01  0.34116455963E+02  0.00000000000E+00 0. -1.
        -11    1    3    3    0    0  0.42826439639E+02 -0.27249606394E+02 -0.54917832230E+02  0.74783776834E+02  0.00000000000E+00 0.  1.
         11    1    3    3    0    0 -0.86410783319E+01  0.38018214710E+02 -0.93522273760E+02  0.10132358350E+03  0.00000000000E+00 0. -1.
          2    1    1    2  501    0  0.38976761313E+02 -0.12667863856E+02  0.95569305088E+01  0.42083222523E+02  0.00000000000E+00 0. -1.
<scales pt_clust_5="13000.00000" pt_clust_6="13000.00000" pt_clust_7="13000.00000" pt_clust_8="13000.00000" pt_clust_9="40.98369"></scales>
<clustering>
<clus scale="   40.984">  1  9  2 -1</clus>
<clus scale="   87.720">  7  8 -1 -1</clus>
<clus scale="   97.198">  5  6 -1 -1</clus>
<clus scale="   97.775">  2  7  1 -1</clus>
<clus scale="   40.984">  1  5  2 -1</clus>
</clustering>
</event>
<event>
 9    1  0.1464797E-005  0.1414028E+03  0.7546771E-02  0.1211804E+00
          2   -1    0    0  502    0 -0.00000000000E+00  0.00000000000E+00  0.12471049176E+03  0.12471049176E+03  0.00000000000E+00 0. -1.
         21   -1    0    0  501  502  0.00000000000E+00 -0.00000000000E+00 -0.25574422086E+03  0.25574422086E+03  0.00000000000E+00 0.  1.
         23    2    1    2    0    0  0.24842381475E+01 -0.12683565550E+03  0.39976994866E+01  0.15697806374E+03  0.92372484803E+02 0.  0.
         23    2    1    2    0    0 -0.26564814675E+02  0.74998799806E+02 -0.86410223063E+02  0.14843695671E+03  0.90754030858E+02 0.  0.
        -13    1    4    4    0    0 -0.17989162455E+02  0.48235312313E+02 -0.10346366873E+03  0.11556377489E+03  0.00000000000E+00 0.  1.
         13    1    4    4    0    0 -0.85756522198E+01  0.26763487492E+02  0.17053445669E+02  0.32873181819E+02  0.00000000000E+00 0. -1.
        -13    1    3    3    0    0  0.42084398947E+02 -0.10077212348E+03  0.73373616087E+01  0.10945297795E+03  0.00000000000E+00 0.  1.
         13    1    3    3    0    0 -0.39600160799E+02 -0.26063532019E+02 -0.33396621220E+01  0.47525085794E+02  0.00000000000E+00 0. -1.
          2    1    1    2  501    0  0.24080576528E+02  0.51836855698E+02 -0.48621205524E+02  0.75039692171E+02  0.00000000000E+00 0. -1.
<scales pt_clust_5="13000.00000" pt_clust_6="13000.00000" pt_clust_7="13000.00000" pt_clust_8="13000.00000" pt_clust_9="57.15710"></scales>
<clustering>
<clus scale="   57.157">  2  9  1 -1</clus>
<clus scale="   90.754">  5  6 -1 -1</clus>
<clus scale="   92.372">  7  8 -1 -1</clus>
<clus scale="  140.351">  2  5  1 -1</clus>
<clus scale="   57.157">  2  5  1 -1</clus>
</clustering>
</event>
<event>
 9    1  0.1464797E-005  0.1154081E+03  0.7546771E-02  0.1251124E+00
         21   -1    0    0  501  502  0.00000000000E+00  0.00000000000E+00  0.20312283200E+03  0.20312283200E+03  0.00000000000E+00 0. -1.
          3   -1    0    0  502    0 -0.00000000000E+00 -0.00000000000E+00 -0.68119412474E+03  0.68119412474E+03  0.00000000000E+00 0. -1.
         23    2    1    2    0    0  0.30409542689E+02  0.65940321628E+02 -0.56293115997E+03  0.57513953537E+03  0.92850029508E+02 0.  0.
         23    2    1    2    0    0 -0.32662010276E+02 -0.41559067158E+02 -0.85943521400E+02  0.13662795963E+03  0.92124630270E+02 0.  0.
        -11    1    3    3    0    0  0.50692542401E+02  0.74261490086E+02 -0.50970946536E+03  0.51757921311E+03  0.00000000000E+00 0. -1.
         11    1    3    3    0    0 -0.20282999712E+02 -0.83211684578E+01 -0.53221694607E+02  0.57560322260E+02  0.00000000000E+00 0.  1.
        -11    1    4    4    0    0 -0.26556189321E+02 -0.16384283063E+02  0.13402366586E+02  0.33960261378E+02  0.00000000000E+00 0.  1.
         11    1    4    4    0    0 -0.61058209550E+01 -0.25174784095E+02 -0.99345887986E+02  0.10266769825E+03  0.00000000000E+00 0. -1.
          3    1    1    2  501    0  0.22524675865E+01 -0.24381254470E+02  0.17080338863E+03  0.17254946174E+03  0.00000000000E+00 0. -1.
<scales pt_clust_5="13000.00000" pt_clust_6="13000.00000" pt_clust_7="13000.00000" pt_clust_8="13000.00000" pt_clust_9="24.48508"></scales>
<clustering>
<clus scale="   24.485">  1  9  2 -1</clus>
<clus scale="   92.125">  7  8 -1 -1</clus>
<clus scale="   92.850">  5  6 -1 -1</clus>
<clus scale="  114.825">  1  7  2 -1</clus>
<clus scale="   24.485">  1  5  2 -1</clus>
</clustering>
</event>
<event>
 9    1  0.1464797E-005  0.1667708E+03  0.7546771E-02  0.1184239E+00
         21   -1    0    0  501  502  0.00000000000E+00  0.00000000000E+00  0.27457681285E+03  0.27457681285E+03  0.00000000000E+00 0. -1.
          1   -1    0    0  502    0 -0.00000000000E+00 -0.00000000000E+00 -0.59620479110E+03  0.59620479110E+03  0.00000000000E+00 0. -1.
         23    2    1    2    0    0  0.62876722939E+02 -0.11092222683E+03 -0.51304278381E+03  0.53649878724E+03  0.91437563383E+02 0.  0.
         23    2    1    2    0    0 -0.88433984210E+02  0.84180228759E+02  0.26978702911E+02  0.16573745213E+03  0.10878498127E+03 0.  0.
        -11    1    4    4    0    0 -0.96232575947E+02  0.27483981520E+02  0.38730536510E+02  0.10731324416E+03  0.00000000000E+00 0. -1.
         11    1    4    4    0    0  0.77985917374E+01  0.56696247239E+02 -0.11751833599E+02  0.58424207971E+02  0.00000000000E+00 0.  1.
        -13    1    3    3    0    0  0.17925070213E+02 -0.19201919863E+02 -0.20077301923E+02  0.33062364119E+02  0.00000000000E+00 0.  1.
         13    1    3    3    0    0  0.44951652725E+02 -0.91720306963E+02 -0.49296548189E+03  0.50343642312E+03  0.00000000000E+00 0. -1.
          1    1    1    2  501    0  0.25557261271E+02  0.26741998067E+02  0.16443610265E+03  0.16854536457E+03  0.00000000000E+00 0. -1.
<scales pt_clust_5="13000.00000" pt_clust_6="13000.00000" pt_clust_7="13000.00000" pt_clust_8="13000.00000" pt_clust_9="36.99065"></scales>
<clustering>
<clus scale="   36.991">  1  9  2 -1</clus>
<clus scale="   91.438">  7  8 -1 -1</clus>
<clus scale="  108.785">  5  6 -1 -1</clus>
<clus scale="  156.010">  2  7  1 -1</clus>
<clus scale="   36.991">  1  5  2 -1</clus>
</clustering>
</event>
<event>
 9    1  0.1464797E-005  0.1121941E+03  0.7546771E-02  0.1259187E+00
         -4   -1    0    0    0  501 -0.00000000000E+00  0.00000000000E+00  0.12650114674E+03  0.12650114674E+03  0.00000000000E+00 0.  1.
         21   -1    0    0  501  502  0.00000000000E+00 -0.00000000000E+00 -0.29081791739E+03  0.29081791739E+03  0.00000000000E+00 0.  1.
         23    2    1    2    0    0 -0.37141473844E+02  0.47149885602E+02  0.49850908003E+02  0.12404561272E+03  0.96434434798E+02 0.  0.
         23    2    1    2    0    0  0.73028254358E+02  0.49477275508E+01 -0.68775703231E+02  0.13471479089E+03  0.89779572211E+02 0.  0.
        -11    1    3    3    0    0 -0.67079544883E+02  0.30688432724E+02  0.15066949563E+02  0.75289163987E+02  0.00000000000E+00 0. -1.
         11    1    3    3    0    0  0.29938071039E+02  0.16461452878E+02  0.34783958439E+02  0.48756448733E+02  0.00000000000E+00 0.  1.
        -13    1    4    4    0    0  0.23917147379E+02 -0.35325247787E+02 -0.55207400486E+02  0.69769335230E+02  0.00000000000E+00 0. -1.
         13    1    4    4    0    0  0.49111106979E+02  0.40272975337E+02 -0.13568302745E+02  0.64945455658E+02  0.00000000000E+00 0.  1.
         -4    1    1    2    0  502 -0.35886780514E+02 -0.52097613153E+02 -0.14539197542E+03  0.15855866052E+03  0.00000000000E+00 0.  1.
<scales pt_clust_5="13000.00000" pt_clust_6="13000.00000" pt_clust_7="13000.00000" pt_clust_8="13000.00000" pt_clust_9="63.26154"></scales>
<clustering>
<clus scale="   63.262">  2  9  1 -1</clus>
<clus scale="   89.780">  7  8 -1 -1</clus>
<clus scale="   96.434">  5  6 -1 -1</clus>
<clus scale="  106.528">  2  7  1 -1</clus>
<clus scale="   63.262">  2  5  1 -1</clus>
</clustering>
</event>
<event>
 9    1  0.1464797E-005  0.1302912E+03  0.7546771E-02  0.1233997E+00
          1   -1    0    0  502    0 -0.00000000000E+00  0.00000000000E+00  0.13218392718E+03  0.13218392718E+03  0.00000000000E+00 0. -1.
         21   -1    0    0  501  502  0.00000000000E+00 -0.00000000000E+00 -0.27461786036E+03  0.27461786036E+03  0.00000000000E+00 0.  1.
         23    2    1    2    0    0 -0.81744826930E+02  0.29142798986E+01  0.27435680662E+02  0.12588585398E+03  0.91672361709E+02 0.  0.
         23    2    1    2    0    0  0.12976984809E+03 -0.44029525322E+02 -0.15343534606E+03  0.21559402895E+03  0.64494707728E+02 0.  0.
        -11    1    4    4    0    0  0.10014354797E+03 -0.10972328099E+02 -0.75466285128E+02  0.12587407348E+03  0.00000000000E+00 0.  1.
         11    1    4    4    0    0  0.29626300129E+02 -0.33057197223E+02 -0.77969060933E+02  0.89719955475E+02  0.00000000000E+00 0. -1.
        -13    1    3    3    0    0 -0.65964321759E+02 -0.31612489603E+02 -0.84654769813E+01  0.73636305886E+02  0.00000000000E+00 0.  1.
         13    1    3    3    0    0 -0.15780505171E+02  0.34526769502E+02  0.35901157644E+02  0.52249548092E+02  0.00000000000E+00 0. -1.
          1    1    1    2  501    0 -0.48025021164E+02  0.41115245424E+02 -0.16434267789E+02  0.65321904610E+02  0.00000000000E+00 0. -1.
<scales pt_clust_5="13000.00000" pt_clust_6="13000.00000" pt_clust_7="13000.00000" pt_clust_8="13000.00000" pt_clust_9="63.22080"></scales>
<clustering>
<clus scale="   63.221">  2  9  1 -1</clus>
<clus scale="   64.495">  5  6 -1 -1</clus>
<clus scale="   91.672">  7  8 -1 -1</clus>
<clus scale="  112.834">  2  5  1 -1</clus>
<clus scale="   63.221">  2  5  1 -1</clus>
</clustering>
</event>
<event>
 9    1  0.1464797E-005  0.1481755E+03  0.7546771E-02  0.1203039E+00
         21   -1    0    0  501  502  0.00000000000E+00  0.00000000000E+00  0.57710849603E+03  0.57710849603E+03  0.00000000000E+00 0.  1.
          3   -1    0    0  502    0 -0.00000000000E+00 -0.00000000000E+00 -0.56793334422E+02  0.56793334422E+02  0.00000000000E+00 0. -1.
         23    2    1    2    0    0 -0.82957521605E+02  0.62849451797E+02  0.11987357740E+03  0.18444303541E+03  0.93901835821E+02 0.  0.
         23    2    1    2    0    0  0.11912315779E+03 -0.69502989162E+02  0.30614374085E+03  0.34824463564E+03  0.92354447480E+02 0.  0.
        -11    1    4    4    0    0  0.66542662676E+02 -0.48499147458E+02  0.26700592028E+03  0.27941412764E+03  0.00000000000E+00 0.  1.
         11    1    4    4    0    0  0.52580495117E+02 -0.21003841704E+02  0.39137820564E+02  0.68830508001E+02  0.00000000000E+00 0. -1.
        -11    1    3    3    0    0 -0.44658422327E+02 -0.12135158098E+02  0.12392338527E+02  0.47908316616E+02  0.00000000000E+00 0.  1.
         11    1    3    3    0    0 -0.38299099278E+02  0.74984609895E+02  0.10748123887E+03  0.13653471879E+03  0.00000000000E+00 0. -1.
          3    1    1    2  501    0 -0.36165636188E+02  0.66535373656E+01  0.94297843361E+02  0.10121415940E+03  0.00000000000E+00 0. -1.
<scales pt_clust_5="13000.00000" pt_clust_6="13000.00000" pt_clust_7="13000.00000" pt_clust_8="13000.00000" pt_clust_9="36.77258"></scales>
<clustering>
<clus scale="   36.773">  1  9  2 -1</clus>
<clus scale="   92.354">  5  6 -1 -1</clus>
<clus scale="   93.902">  7  8 -1 -1</clus>
<clus scale="  147.200">  1  5  2 -1</clus>
<clus scale="   36.773">  1  5  2 -1</clus>
</clustering>
</event>
<event>
 9    1  0.1464797E-005  0.9636681E+02  0.7546771E-02  0.1288988E+00
         -2   -1    0    0    0  501 -0.00000000000E+00  0.00000000000E+00  0.60664092458E+03  0.60664092458E+03  0.00000000000E+00 0.  1.
         21   -1    0    0  501  502  0.00000000000E+00 -0.00000000000E+00 -0.25403229455E+02  0.25403229455E+02  0.00000000000E+00 0. -1.
         23    2    1    2    0    0 -0.18158837854E+02  0.26973340245E+02  0.41999344313E+03  0.43069725421E+03  0.89712474246E+02 0.  0.
         23    2    1    2    0    0 -0.43162076524E+01 -0.30857186286E+02  0.11787101914E+03  0.15234231577E+03  0.91344449343E+02 0.  0.
        -11    1    3    3    0    0 -0.36596801127E+02 -0.19778173048E+02  0.24975624584E+03  0.25319692794E+03  0.00000000000E+00 0.  1.
         11    1    3    3    0    0  0.18437963273E+02  0.46751513293E+02  0.17023719728E+03  0.17750032626E+03  0.00000000000E+00 0. -1.
        -13    1    4    4    0    0 -0.19231386787E+02  0.25811296578E+02  0.18905404702E+02  0.37329393188E+02  0.00000000000E+00 0. -1.
         13    1    4    4    0    0  0.14915179135E+02 -0.56668482864E+02  0.98965614438E+02  0.11501292258E+03  0.00000000000E+00 0.  1.
         -2    1    1    2    0  502  0.22475045506E+02  0.38838460410E+01  0.43373232864E+02  0.49004584067E+02  0.00000000000E+00 0.  1.
<scales pt_clust_5="13000.00000" pt_clust_6="13000.00000" pt_clust_7="13000.00000" pt_clust_8="13000.00000" pt_clust_9="22.80815"></scales>
<clustering>
<clus scale="   22.808">  2  9  1 -1</clus>
<clus scale="   89.712">  5  6 -1 -1</clus>
<clus scale="   91.344">  7  8 -1 -1</clus>
<clus scale="   94.821">  1  5  2 -1</clus>
<clus scale="   22.808">  2  5  1 -1</clus>
</clustering>
</event>
<event>
 9    1  0.1464797E-005  0.2239681E+03  0.7546771E-02  0.1154506E+00
         -1   -1    0    0    0  501 -0.00000000000E+00  0.00000000000E+00  0.11280428376E+04  0.11280428376E+04  0.00000000000E+00 0.  1.
         21   -1    0    0  501  502  0.00000000000E+00 -0.00000000000E+00 -0.10431476920E+03  0.10431476920E+03  0.00000000000E+00 0.  1.
         23    2    1    2    0    0  0.89376229886E+02 -0.14629649854E+02  0.19056309934E+03  0.22914981373E+03  0.89404726815E+02 0.  0.
         23    2    1    2    0    0 -0.26971078733E+03 -0.44444762705E+02  0.73463749540E+03  0.78939010927E+03  0.93409042559E+02 0.  0.
        -11    1    4    4    0    0 -0.19827604606E+03 -0.30332032894E+02  0.40679747848E+03  0.45356103355E+03  0.00000000000E+00 0.  1.
         11    1    4    4    0    0 -0.71434741277E+02 -0.14112729810E+02  0.32784001693E+03  0.33582907572E+03  0.00000000000E+00 0. -1.
        -13    1    3    3    0    0  0.98385585084E+02  0.10065918651E+02  0.16567935880E+03  0.19295257449E+03  0.00000000000E+00 0. -1.
         13    1    3    3    0    0 -0.90093551979E+01 -0.24695568505E+02  0.24883740537E+02  0.36197239231E+02  0.00000000000E+00 0.  1.
         -1    1    1    2    0  502  0.18033455745E+03  0.59074412558E+02  0.98527473616E+02  0.21381768375E+03  0.00000000000E+00 0.  1.
<scales pt_clust_5="13000.00000" pt_clust_6="13000.00000" pt_clust_7="13000.00000" pt_clust_8="13000.00000" pt_clust_9="203.55949"></scales>
<clustering>
<clus scale="   89.405">  7  8 -1 -1</clus>
<clus scale="   93.409">  5  6 -1 -1</clus>
<clus scale="  127.261">  1  7  2 -1</clus>
<clus scale="  203.559">  2  9  1 -1</clus>
<clus scale="  203.559">  2  5  1 -1</clus>
</clustering>
</event>
<event>
 9    1  0.1464797E-005  0.1739860E+03  0.7546771E-02  0.1174140E+00
         -2   -1    0    0    0  501 -0.00000000000E+00  0.00000000000E+00  0.73944174000E+02  0.73944174000E+02  0.00000000000E+00 0.  1.
         21   -1    0    0  501  502  0.00000000000E+00 -0.00000000000E+00 -0.57950690280E+03  0.57950690280E+03  0.00000000000E+00 0.  1.
         23    2    1    2    0    0  0.12817018523E+02  0.12998787074E+03 -0.19715750213E+03  0.25257260996E+03  0.88660702409E+02 0.  0.
         23    2    1    2    0    0 -0.60467996953E+02 -0.16243235088E+03 -0.25989524348E+03  0.32553605843E+03  0.91583516427E+02 0.  0.
        -11    1    4    4    0    0  0.22354655362E+02 -0.60625682433E+02 -0.79367496563E+02  0.10234453331E+03  0.00000000000E+00 0. -1.
         11    1    4    4    0    0 -0.82822652315E+02 -0.10180666845E+03 -0.18052774692E+03  0.22319152512E+03  0.00000000000E+00 0.  1.
        -11    1    3    3    0    0  0.38844160358E+02  0.11970748079E+03 -0.18037969819E+03  0.21994450498E+03  0.00000000000E+00 0.  1.
         11    1    3    3    0    0 -0.26027141835E+02  0.10280389954E+02 -0.16777803943E+02  0.32628104984E+02  0.00000000000E+00 0. -1.
         -2    1    1    2    0  502  0.47650978430E+02  0.32444480143E+02 -0.48509983183E+02  0.75342408413E+02  0.00000000000E+00 0.  1.
<scales pt_clust_5="13000.00000" pt_clust_6="13000.00000" pt_clust_7="13000.00000" pt_clust_8="13000.00000" pt_clust_9="57.64775"></scales>
<clustering>
<clus scale="   57.648">  2  9  1 -1</clus>
<clus scale="   88.661">  7  8 -1 -1</clus>
<clus scale="   91.584">  5  6 -1 -1</clus>
<clus scale="  172.465">  1  7  2 -1</clus>
<clus scale="   57.648">  2  5  1 -1</clus>
</clustering>
</event>
<event>
 9    1  0.1464797E-005  0.1018884E+03  0.7546771E-02  0.1276884E+00
         -3   -1    0    0    0  501 -0.00000000000E+00  0.00000000000E+00  0.24329075993E+03  0.24329075993E+03  0.00000000000E+00 0.  1.
         21   -1    0    0  501  502  0.00000000000E+00 -0.00000000000E+00 -0.25093544279E+03  0.25093544279E+03  0.00000000000E+00 0.  1.
         23    2    1    2    0    0  0.51661903103E+02  0.25322246669E+02  0.11878887034E+03  0.16084245104E+03  0.91920236790E+02 0.  0.
         23    2    1    2    0    0 -0.32539730485E+02  0.41269735404E+01  0.79129210403E+02  0.12484367440E+03  0.90822051988E+02 0.  0.
        -13    1    4    4    0    0  0.17679190957E+02 -0.27081313778E+02  0.99438246121E+01  0.33835351288E+02  0.00000000000E+00 0. -1.
         13    1    4    4    0    0 -0.50218921442E+02  0.31208287319E+02  0.69185385791E+02  0.91008323109E+02  0.00000000000E+00 0.  1.
        -13    1    3    3    0    0  0.59433109698E+02 -0.14620037794E+02  0.96971438069E+02  0.11467126857E+03  0.00000000000E+00 0.  1.
         13    1    3    3    0    0 -0.77712065950E+01  0.39942284464E+02  0.21817432269E+02  0.46171182473E+02  0.00000000000E+00 0. -1.
         -3    1    1    2    0  502 -0.19122172618E+02 -0.29449220210E+02 -0.20556276360E+03  0.20854007729E+03  0.00000000000E+00 0.  1.
<scales pt_clust_5="13000.00000" pt_clust_6="13000.00000" pt_clust_7="13000.00000" pt_clust_8="13000.00000" pt_clust_9="35.11288"></scales>
<clustering>
<clus scale="   35.113">  2  9  1 -1</clus>
<clus scale="   90.822">  5  6 -1 -1</clus>
<clus scale="   91.920">  7  8 -1 -1</clus>
<clus scale="  100.899">  2  5  1 -1</clus>
<clus scale="   35.113">  2  5  1 -1</clus>
</clustering>
</event>
<event>
 9    1  0.1464797E-005  0.9784897E+02  0.7546771E-02  0.1286083E+00
          2   -1    0    0  502    0 -0.00000000000E+00  0.00000000000E+00  0.52860952277E+03  0.52860952277E+03  0.00000000000E+00 0. -1.
         21   -1    0    0  501  502  0.00000000000E+00 -0.00000000000E+00 -0.53837081790E+02  0.53837081790E+02  0.00000000000E+00 0.  1.
         23    2    1    2    0    0  0.24224228021E+02 -0.24166484991E+02  0.39908996484E+03  0.41059228024E+03  0.90235183454E+02 0.  0.
         23    2    1    2    0    0  0.16069032870E+02  0.39443434666E+02  0.78581882109E+02  0.12866475822E+03  0.92550037586E+02 0.  0.
        -11    1    4    4    0    0  0.13191802965E+02  0.67541980522E+02  0.72127707973E+02  0.99691268704E+02  0.00000000000E+00 0. -1.
         11    1    4    4    0    0  0.28772299051E+01 -0.28098545856E+02  0.64541741358E+01  0.28973489519E+02  0.00000000000E+00 0.  1.
        -13    1    3    3    0    0  0.14417495553E+02  0.34304549689E+02  0.15163388771E+03  0.15613296324E+03  0.00000000000E+00 0. -1.
         13    1    3    3    0    0  0.98067324674E+01 -0.58471034680E+02  0.24745607713E+03  0.25445931700E+03  0.00000000000E+00 0.  1.
          2    1    1    2  501    0 -0.40293260891E+02 -0.15276949675E+02 -0.28994059734E+01  0.43189566096E+02  0.00000000000E+00 0. -1.
<scales pt_clust_5="13000.00000" pt_clust_6="13000.00000" pt_clust_7="13000.00000" pt_clust_8="13000.00000" pt_clust_9="43.09213"></scales>
<clustering>
<clus scale="   43.092">  2  9  1 -1</clus>
<clus scale="   90.235">  7  8 -1 -1</clus>
<clus scale="   92.550">  5  6 -1 -1</clus>
<clus scale="   95.662">  1  7  2 -1</clus>
<clus scale="   43.092">  2  5  1 -1</clus>
</clustering>
</event>
<event>
 9    1  0.1464797E-005  0.9992955E+02  0.7546771E-02  0.1280995E+00
          2   -1    0    0  502    0 -0.00000000000E+00  0.00000000000E+00  0.14291143321E+03  0.14291143321E+03  0.00000000000E+00 0. -1.
         21   -1    0    0  501  502  0.00000000000E+00 -0.00000000000E+00 -0.13660367685E+03  0.13660367685E+03  0.00000000000E+00 0. -1.
         23    2    1    2    0    0  0.42426582115E+02  0.60208039577E+01  0.83214084866E+02  0.13095909824E+03  0.91593867375E+02 0.  0.
         23    2    1    2    0    0 -0.17220643768E+02 -0.16547992195E+02 -0.42842568382E+02  0.10489251708E+03  0.92717678224E+02 0.  0.
        -13    1    4    4    0    0 -0.14822842199E+02 -0.52120686675E+02 -0.75242720803E+01  0.54707378851E+02  0.00000000000E+00 0. -1.
         13    1    4    4    0    0 -0.23978015686E+01  0.35572694480E+02 -0.35318296302E+02  0.50185138225E+02  0.00000000000E+00 0.  1.
        -13    1    3    3    0    0 -0.22500533556E+02 -0.57179808994E+01 -0.18689816172E+01  0.23290822401E+02  0.00000000000E+00 0.  1.
         13    1    3    3    0    0  0.64927115671E+02  0.11738784857E+02  0.85083066483E+02  0.10766827584E+03  0.00000000000E+00 0. -1.
          2    1    1    2  501    0 -0.25205938348E+02  0.10527188237E+02 -0.34063760117E+02  0.43663494747E+02  0.00000000000E+00 0. -1.
<scales pt_clust_5="13000.00000" pt_clust_6="13000.00000" pt_clust_7="13000.00000" pt_clust_8="13000.00000" pt_clust_9="27.31595"></scales>
<clustering>
<clus scale="   27.316">  2  9  1 -1</clus>
<clus scale="   91.594">  7  8 -1 -1</clus>
<clus scale="   92.718">  5  6 -1 -1</clus>
<clus scale="   98.888">  1  7  2 -1</clus>
<clus scale="   27.316">  2  5  1 -1</clus>
</clustering>
</event>
<event>
 9    1  0.1464797E-005  0.1304897E+03  0.7546771E-02  0.1227851E+00
         21   -1    0    0  501  502  0.00000000000E+00  0.00000000000E+00  0.63905097137E+03  0.63905097137E+03  0.00000000000E+00 0. -1.
          4   -1    0    0  502    0 -0.00000000000E+00 -0.00000000000E+00 -0.10545052985E+03  0.10545052985E+03  0.00000000000E+00 0. -1.
         23    2    1    2    0    0 -0.96069173965E+02  0.80642841585E+02  0.28537791393E+02  0.15920597421E+03  0.93806090432E+02 0.  0.
         23    2    1    2    0    0 -0.97302910011E+01 -0.75991097333E+02  0.69069416650E+02  0.13662497399E+03  0.89590589716E+02 0.  0.
        -11    1    4    4    0    0  0.11379529380E+02 -0.26262373956E+02  0.76884156045E+02  0.82038889714E+02  0.00000000000E+00 0.  1.
         11    1    4    4    0    0 -0.21109820381E+02 -0.49728723377E+02 -0.78147393951E+01  0.54586084280E+02  0.00000000000E+00 0. -1.
        -13    1    3    3    0    0 -0.37514673437E+02  0.83413302252E+02 -0.51311781709E+01  0.91604905464E+02  0.00000000000E+00 0. -1.
         13    1    3    3    0    0 -0.58554500528E+02 -0.27704606669E+01  0.33668969564E+02  0.67601068749E+02  0.00000000000E+00 0.  1.
          4    1    1    2  501    0  0.10579946497E+03 -0.46517442522E+01  0.43599323347E+03  0.44867055301E+03  0.00000000000E+00 0. -1.
<scales pt_clust_5="13000.00000" pt_clust_6="13000.00000" pt_clust_7="13000.00000" pt_clust_8="13000.00000" pt_clust_9="105.90168"></scales>
<clustering>
<clus scale="   89.591">  5  6 -1 -1</clus>
<clus scale="   93.806">  7  8 -1 -1</clus>
<clus scale="  105.902">  1  9  2 -1</clus>
<clus scale="  127.493">  1  5  2 -1</clus>
<clus scale="  105.902">  1  5  2 -1</clus>
</clustering>
</event>
<event>
 9    1  0.1464797E-005  0.1123585E+03  0.7546771E-02  0.1256446E+00
         21   -1    0    0  501  502  0.00000000000E+00  0.00000000000E+00  0.15551871981E+03  0.15551871981E+03  0.00000000000E+00 0.  1.
          4   -1    0    0  502    0 -0.00000000000E+00 -0.00000000000E+00 -0.11693459235E+03  0.11693459235E+03  0.00000000000E+00 0. -1.
         23    2    1    2    0    0 -0.66018260578E+02 -0.33157695447E+02 -0.13911048003E+02  0.11846438708E+03  0.91555722113E+02 0.  0.
         23    2    1    2    0    0  0.47366440221E+02  0.25612801684E+02  0.10172120073E+02  0.10712682053E+03  0.92049380126E+02 0.  0.
        -13    1    3    3    0    0 -0.25071694443E+02 -0.62026561091E+02 -0.18248304998E+01  0.66926931421E+02  0.00000000000E+00 0.  1.
         13    1    3    3    0    0 -0.40946566135E+02  0.28868865645E+02 -0.12086217503E+02  0.51537455655E+02  0.00000000000E+00 0. -1.
        -13    1    4    4    0    0  0.17530676450E+02  0.59186145784E+02  0.59693583078E+01  0.62015785960E+02  0.00000000000E+00 0. -1.
         13    1    4    4    0    0  0.29835763771E+02 -0.33573344100E+02  0.42027617647E+01  0.45111034574E+02  0.00000000000E+00 0.  1.
          4    1    1    2  501    0  0.18651820358E+02  0.75448937630E+01  0.42323055391E+02  0.46862104543E+02  0.00000000000E+00 0. -1.
<scales pt_clust_5="13000.00000" pt_clust_6="13000.00000" pt_clust_7="13000.00000" pt_clust_8="13000.00000" pt_clust_9="20.12004"></scales>
<clustering>
<clus scale="   20.120">  1  9  2 -1</clus>
<clus scale="   91.556">  5  6 -1 -1</clus>
<clus scale="   92.049">  7  8 -1 -1</clus>
<clus scale="  111.954">  2  5  1 -1</clus>
<clus scale="   20.120">  1  5  2 -1</clus>
</clustering>
</event>
<event>
 9    1  0.1464797E-005  0.1132942E+03  0.7546771E-02  0.1258273E+00
         21   -1    0    0  501  502  0.00000000000E+00  0.00000000000E+00  0.13553213390E+03  0.13553213390E+03  0.00000000000E+00 0. -1.
         -3   -1    0    0    0  501 -0.00000000000E+00 -0.00000000000E+00 -0.11404344685E+03  0.11404344685E+03  0.00000000000E+00 0.  1.
         23    2    1    2    0    0 -0.24651020543E+02 -0.58774107750E+02  0.58339717901E+01  0.10206361582E+03  0.79503948912E+02 0.  0.
         23    2    1    2    0    0  0.50945829458E+02  0.57865945499E+02  0.31580718135E+01  0.11838452371E+03  0.89782942968E+02 0.  0.
        -11    1    4    4    0    0 -0.22878221881E+02  0.19264462040E+01 -0.96009776329E+01  0.24885799222E+02  0.00000000000E+00 0.  1.
         11    1    4    4    0    0  0.73824051339E+02  0.55939499295E+02  0.12759049446E+02  0.93498724485E+02  0.00000000000E+00 0. -1.
        -11    1    3    3    0    0  0.28550473119E+02 -0.27790235663E+02 -0.25756856349E+01  0.39925691853E+02  0.00000000000E+00 0. -1.
         11    1    3    3    0    0 -0.53201493662E+02 -0.30983872087E+02  0.84096574251E+01  0.62137923970E+02  0.00000000000E+00 0.  1.
         -3    1    1    2    0  502 -0.26294808915E+02  0.90816225127E+00  0.12496643450E+02  0.29127441220E+02  0.00000000000E+00 0.  1.
<scales pt_clust_5="13000.00000" pt_clust_6="13000.00000" pt_clust_7="13000.00000" pt_clust_8="13000.00000" pt_clust_9="26.31049"></scales>
<clustering>
<clus scale="   26.310">  1  9  2 -1</clus>
<clus scale="   79.504">  7  8 -1 -1</clus>
<clus scale="   89.783">  5  6 -1 -1</clus>
<clus scale="  105.335">  2  7  1 -1</clus>
<clus scale="   26.310">  1  5  2 -1</clus>
</clustering>
</event>
<event>
 9    1  0.1464797E-005  0.1181375E+03  0.7546771E-02  0.1247455E+00
         21   -1    0    0  501  502  0.00000000000E+00  0.00000000000E+00  0.61660587923E+03  0.61660587923E+03  0.00000000000E+00 0. -1.
          1   -1    0    0  502    0 -0.00000000000E+00 -0.00000000000E+00 -0.18731501424E+03  0.18731501424E+03  0.00000000000E+00 0. -1.
         23    2    1    2    0    0 -0.58456568814E+02  0.43556886169E+02 -0.15250684658E+03  0.19354789016E+03  0.94276586491E+02 0.  0.
         23    2    1    2    0    0  0.66475033587E+02  0.78226709440E+01  0.24575413460E+03  0.27032971151E+03  0.90570050144E+02 0.  0.
        -11    1    3    3    0    0  0.15945764112E+02 -0.16943332195E+02 -0.30853755839E+02  0.38643216072E+02  0.00000000000E+00 0.  1.
         11    1    3    3    0    0 -0.74402332926E+02  0.60500218364E+02 -0.12165309074E+03  0.15490467409E+03  0.00000000000E+00 0. -1.
        -13    1    4    4    0    0  0.86602298017E+02  0.16587103987E+02  0.21639712784E+03  0.23367243521E+03  0.00000000000E+00 0. -1.
         13    1    4    4    0    0 -0.20127264430E+02 -0.87644330425E+01  0.29357006760E+02  0.36657276302E+02  0.00000000000E+00 0.  1.
          1    1    1    2  501    0 -0.80184647728E+01 -0.51379557113E+02  0.33604357697E+03  0.34004329179E+03  0.00000000000E+00 0. -1.
<scales pt_clust_5="13000.00000" pt_clust_6="13000.00000" pt_clust_7="13000.00000" pt_clust_8="13000.00000" pt_clust_9="52.00149"></scales>
<clustering>
<clus scale="   52.001">  1  9  2 -1</clus>
<clus scale="   90.570">  7  8 -1 -1</clus>
<clus scale="   94.277">  5  6 -1 -1</clus>
<clus scale="  115.201">  1  7  2 -1</clus>
<clus scale="   52.001">  1  5  2 -1</clus>
</clustering>
</event>
<event>
 9    1  0.1464797E-005  0.1233719E+03  0.7546771E-02  0.1241108E+00
          2   -1    0    0  502    0 -0.00000000000E+00  0.00000000000E+00  0.77646895333E+03  0.77646895333E+03  0.00000000000E+00 0. -1.
         21   -1    0    0  501  502  0.00000000000E+00 -0.00000000000E+00 -0.32968760889E+02  0.32968760889E+02  0.00000000000E+00 0.  1.
         23    2    1    2    0    0  0.50083468722E+02 -0.71766630713E+02  0.56986304746E+03  0.58378386118E+03  0.91656426867E+02 0.  0.
         23    2    1    2    0    0 -0.19978981019E+02  0.66081178100E+02  0.98239024796E+02  0.14426908126E+03  0.79979872669E+02 0.  0.
        -11    1    4    4    0    0 -0.21017416906E+02 -0.12348498801E+02  0.38936232031E+02  0.45937429193E+02  0.00000000000E+00 0. -1.
         11    1    4    4    0    0  0.10384358869E+01  0.78429676901E+02  0.59302792765E+02  0.98331652064E+02  0.00000000000E+00 0.  1.
        -13    1    3    3    0    0  0.13368611240E+02  0.21609910850E+02  0.88543039695E+02  0.92117196504E+02  0.00000000000E+00 0.  1.
         13    1    3    3    0    0  0.36714857482E+02 -0.93376541563E+02  0.48132000777E+03  0.49166666467E+03  0.00000000000E+00 0. -1.
          2    1    1    2  501    0 -0.30104487703E+02  0.56854526129E+01  0.75398120184E+02  0.81384771785E+02  0.00000000000E+00 0. -1.
<scales pt_clust_5="13000.00000" pt_clust_6="13000.00000" pt_clust_7="13000.00000" pt_clust_8="13000.00000" pt_clust_9="30.63667"></scales>
<clustering>
<clus scale="   30.637">  2  9  1 -1</clus>
<clus scale="   79.980">  5  6 -1 -1</clus>
<clus scale="   91.656">  7  8 -1 -1</clus>
<clus scale="  114.963">  2  5  1 -1</clus>
<clus scale="   30.637">  2  5  1 -1</clus>
</clustering>
</event>
<event>
 9    1  0.1464797E-005  0.1292184E+03  0.7546771E-02  0.1229079E+00
         21   -1    0    0  501  502  0.00000000000E+00  0.00000000000E+00  0.35654966840E+03  0.35654966840E+03  0.00000000000E+00 0.  1.
         -3   -1    0    0    0  501 -0.00000000000E+00 -0.00000000000E+00 -0.77126277834E+02  0.77126277834E+02  0.00000000000E+00 0.  1.
         23    2    1    2    0    0  0.87632493294E+02 -0.48559832124E+02  0.59567764337E+02  0.14905197317E+03  0.92901350799E+02 0.  0.
         23    2    1    2    0    0 -0.72355901258E+02  0.30664155798E+02  0.84115368445E+02  0.14685951074E+03  0.91195689535E+02 0.  0.
        -11    1    4    4    0    0 -0.93477887088E+02  0.24886788999E+02  0.58044434610E+02  0.11281233988E+03  0.00000000000E+00 0.  1.
         11    1    4    4    0    0  0.21121985830E+02  0.57773667985E+01  0.26070933835E+02  0.34047170860E+02  0.00000000000E+00 0. -1.
        -11    1    3    3    0    0  0.83916583736E+02 -0.73075553883E+02  0.43333488605E+02  0.11941449173E+03  0.00000000000E+00 0.  1.
         11    1    3    3    0    0  0.37159095577E+01  0.24515721760E+02  0.16234275732E+02  0.29637481434E+02  0.00000000000E+00 0. -1.
         -3    1    1    2    0  502 -0.15276592036E+02  0.17895676326E+02  0.13574025778E+03  0.13776446232E+03  0.00000000000E+00 0.  1.
<scales pt_clust_5="13000.00000" pt_clust_6="13000.00000" pt_clust_7="13000.00000" pt_clust_8="13000.00000" pt_clust_9="23.52933"></scales>
<clustering>
<clus scale="   23.529">  1  9  2 -1</clus>
<clus scale="   91.196">  5  6 -1 -1</clus>
<clus scale="   92.901">  7  8 -1 -1</clus>
<clus scale="  127.998">  1  5  2 -1</clus>
<clus scale="   23.529">  1  5  2 -1</clus>
</clustering>
</event>
<event>
 9    1  0.1464797E-005  0.1173187E+03  0.7546771E-02  0.1247828E+00
          1   -1    0    0  502    0 -0.00000000000E+00  0.00000000000E+00  0.16511540975E+03  0.16511540975E+03  0.00000000000E+00 0. -1.
         21   -1    0    0  501  502  0.00000000000E+00 -0.00000000000E+00 -0.17509994556E+03  0.17509994556E+03  0.00000000000E+00 0. -1.
         23    2    1    2    0    0  0.62265220227E+02  0.20907624416E+02  0.44477407900E+02  0.11990449829E+03  0.89915307313E+02 0.  0.
         23    2    1    2    0    0 -0.91788176591E+02  0.15623014715E+02  0.20793100841E+02  0.13160113783E+03  0.90649646909E+02 0.  0.
        -11    1    4    4    0    0  0.13460613120E+01  0.20513958159E+02 -0.21013169034E+02  0.29397068447E+02  0.00000000000E+00 0.  1.
         11    1    4    4    0    0 -0.93134237903E+02 -0.48909434438E+01  0.41806269875E+02  0.10220406938E+03  0.00000000000E+00 0. -1.
        -11    1    3    3    0    0 -0.10973443385E+02  0.28365946400E+02 -0.55238306426E+01  0.30912070132E+02  0.00000000000E+00 0. -1.
         11    1    3    3    0    0  0.73238663612E+02 -0.74583219837E+01  0.50001238542E+02  0.88992428162E+02  0.00000000000E+00 0.  1.
          1    1    1    2  501    0  0.29522956364E+02 -0.36530639132E+02 -0.75255044546E+02  0.88709719183E+02  0.00000000000E+00 0. -1.
<scales pt_clust_5="13000.00000" pt_clust_6="13000.00000" pt_clust_7="13000.00000" pt_clust_8="13000.00000" pt_clust_9="46.96906"></scales>
<clustering>
<clus scale="   46.969">  2  9  1 -1</clus>
<clus scale="   89.915">  7  8 -1 -1</clus>
<clus scale="   90.650">  5  6 -1 -1</clus>
<clus scale="  116.752">  1  7  2 -1</clus>
<clus scale="   46.969">  2  5  1 -1</clus>
</clustering>
</event>
<event>
 9    1  0.1464797E-005  0.1043229E+03  0.7546771E-02  0.1272750E+00
          3   -1    0    0  502    0 -0.00000000000E+00  0.00000000000E+00  0.50597443263E+02  0.50597443263E+02  0.00000000000E+00 0. -1.
         21   -1    0    0  501  502  0.00000000000E+00 -0.00000000000E+00 -0.31553239705E+03  0.31553239705E+03  0.00000000000E+00 0.  1.
         23    2    1    2    0    0 -0.24504912207E+01  0.46186991526E+02 -0.68924686340E+02  0.12225804770E+03  0.89761766624E+02 0.  0.
         23    2    1    2    0    0  0.38069154579E+02 -0.43860222391E+02 -0.14498708758E+03  0.18160247499E+03  0.92656482324E+02 0.  0.
        -11    1    3    3    0    0  0.19727721135E+02 -0.15625744163E+02  0.24293683830E+01  0.25283367904E+02  0.00000000000E+00 0. -1.
         11    1    3    3    0    0 -0.22178212356E+02  0.61812735688E+02 -0.71354054723E+02  0.96974679798E+02  0.00000000000E+00 0.  1.
        -13    1    4    4    0    0  0.34862418958E+02 -0.23122323456E+02 -0.15339449473E+03  0.15899654434E+03  0.00000000000E+00 0.  1.
         13    1    4    4    0    0  0.32067356205E+01 -0.20737898935E+02  0.84074071468E+01  0.22605930649E+02  0.00000000000E+00 0. -1.
          3    1    1    2  501    0 -0.35618663358E+02 -0.23267691341E+01 -0.51023179861E+02  0.62269317623E+02  0.00000000000E+00 0. -1.
<scales pt_clust_5="13000.00000" pt_clust_6="13000.00000" pt_clust_7="13000.00000" pt_clust_8="13000.00000" pt_clust_9="35.69458"></scales>
<clustering>
<clus scale="   35.695">  2  9  1 -1</clus>
<clus scale="   89.762">  5  6 -1 -1</clus>
<clus scale="   92.656">  7  8 -1 -1</clus>
<clus scale="  101.761">  1  5  2 -1</clus>
<clus scale="   35.695">  2  5  1 -1</clus>
</clustering>
</event>
<event>
 9    1  0.1464797E-005  0.1158109E+03  0.7546771E-02  0.1251119E+00
         21   -1    0    0  501  502  0.00000000000E+00  0.00000000000E+00  0.52742970058E+02  0.52742970058E+02  0.00000000000E+00 0.  1.
          2   -1    0    0  502    0 -0.00000000000E+00 -0.00000000000E+00 -0.38654029388E+03  0.38654029388E+03  0.00000000000E+00 0. -1.
         23    2    1    2    0    0 -0.25465914516E+02  0.59441040838E+02 -0.21934714277E+03  0.24624806724E+03  0.91341072037E+02 0.  0.
         23    2    1    2    0    0  0.53191636397E+02 -0.70829938634E+02 -0.88338551480E+02  0.15328296600E+03  0.88576168338E+02 0.  0.
        -13    1    3    3    0    0 -0.45672004523E+02  0.46310048564E+02 -0.21091689552E+03  0.22071812208E+03  0.00000000000E+00 0. -1.
         13    1    3    3    0    0  0.20206090007E+02  0.13130992274E+02 -0.84302472436E+01  0.25529945164E+02  0.00000000000E+00 0.  1.
        -13    1    4    4    0    0  0.77527475994E+02 -0.62159716021E+02 -0.72062720735E+02  0.12274923849E+03  0.00000000000E+00 0.  1.
         13    1    4    4    0    0 -0.24335839597E+02 -0.86702226130E+01 -0.16275830745E+02  0.30533727507E+02  0.00000000000E+00 0. -1.
          2    1    1    2  501    0 -0.27725721881E+02  0.11388897796E+02 -0.26111629576E+02  0.39752230704E+02  0.00000000000E+00 0. -1.
<scales pt_clust_5="13000.00000" pt_clust_6="13000.00000" pt_clust_7="13000.00000" pt_clust_8="13000.00000" pt_clust_9="29.97370"></scales>
<clustering>
<clus scale="   29.974">  1  9  2 -1</clus>
<clus scale="   88.576">  7  8 -1 -1</clus>
<clus scale="   91.341">  5  6 -1 -1</clus>
<clus scale="  113.643">  1  7  2 -1</clus>
<clus scale="   29.974">  1  5  2 -1</clus>
</clustering>
</event>
<event>
 9    1  0.1464797E-005  0.1254955E+03  0.7546771E-02  0.1234730E+00
         21   -1    0    0  501  502  0.00000000000E+00  0.00000000000E+00  0.54269820231E+02  0.54269820231E+02  0.00000000000E+00 0.  1.
          3   -1    0    0  502    0 -0.00000000000E+00 -0.00000000000E+00 -0.68549952421E+03  0.68549952421E+03  0.00000000000E+00 0. -1.
         23    2    1    2    0    0  0.39003717864E+02  0.86641741294E+02 -0.46299472130E+03  0.48156944353E+03  0.92287245278E+02 0.  0.
         23    2    1    2    0    0 -0.20604802190E+02 -0.65379859903E+02 -0.19080890290E+03  0.22214203668E+03  0.90774242378E+02 0.  0.
        -11    1    4    4    0    0  0.99366375396E+01  0.20214336043E+02 -0.31333110843E+02  0.38589117408E+02  0.00000000000E+00 0. -1.
         11    1    4    4    0    0 -0.30541439730E+02 -0.85594195945E+02 -0.15947579206E+03  0.18355291927E+03  0.00000000000E+00 0.  1.
        -11    1    3    3    0    0  0.34548179400E+02 -0.48243083228E+01 -0.20165858416E+03  0.20465345151E+03  0.00000000000E+00 0.  1.
         11    1    3    3    0    0  0.44555384637E+01  0.91466049616E+02 -0.26133613715E+03  0.27691599202E+03  0.00000000000E+00 0. -1.
          3    1    1    2  501    0 -0.18398915674E+02 -0.21261881391E+02  0.22573920231E+02  0.36057864230E+02  0.00000000000E+00 0. -1.
<scales pt_clust_5="13000.00000" pt_clust_6="13000.00000" pt_clust_7="13000.00000" pt_clust_8="13000.00000" pt_clust_9="28.11739"></scales>
<clustering>
<clus scale="   28.117">  1  9  2 -1</clus>
<clus scale="   90.774">  5  6 -1 -1</clus>
<clus scale="   92.287">  7  8 -1 -1</clus>
<clus scale="  124.387">  1  5  2 -1</clus>
<clus scale="   28.117">  1  5  2 -1</clus>
</clustering>
</event>
<event>
 9    1  0.1464797E-005  0.1585106E+03  0.7546771E-02  0.1206241E+00
         -4   -1    0    0    0  501 -0.00000000000E+00  0.00000000000E+00  0.10277668972E+03  0.10277668972E+03  0.00000000000E+00 0.  1.
         21   -1    0    0  501  502  0.00000000000E+00 -0.00000000000E+00 -0.89535691009E+03  0.89535691009E+03  0.00000000000E+00 0.  1.
         23    2    1    2    0    0  0.61848261851E+02  0.22305817219E+02  0.73964321380E+01  0.11247011285E+03  0.90950877406E+02 0.  0.
         23    2    1    2    0    0 -0.55473519754E+02  0.11348335793E+03 -0.12751601486E+03  0.19960033635E+03  0.87316529390E+02 0.  0.
        -13    1    3    3    0    0  0.64487963855E+02 -0.21173220681E+02 -0.20194962452E+01  0.67904941803E+02  0.00000000000E+00 0.  1.
         13    1    3    3    0    0 -0.26397020043E+01  0.43479037900E+02  0.94159283832E+01  0.44565171050E+02  0.00000000000E+00 0. -1.
        -13    1    4    4    0    0 -0.63936718101E+02  0.69119740801E+02 -0.42439186594E+02  0.10327887997E+03  0.00000000000E+00 0.  1.
         13    1    4    4    0    0  0.84631983464E+01  0.44363617127E+02 -0.85076828262E+02  0.96321456373E+02  0.00000000000E+00 0. -1.
         -4    1    1    2    0  502 -0.63747420962E+01 -0.13578917515E+03 -0.67246063766E+03  0.68606315061E+03  0.00000000000E+00 0.  1.
<scales pt_clust_5="13000.00000" pt_clust_6="13000.00000" pt_clust_7="13000.00000" pt_clust_8="13000.00000" pt_clust_9="132.29302"></scales>
<clustering>
<clus scale="   87.317">  7  8 -1 -1</clus>
<clus scale="   90.951">  5  6 -1 -1</clus>
<clus scale="  112.227">  1  5  2 -1</clus>
<clus scale="  132.293">  2  9  1 -1</clus>
<clus scale="  132.293">  2  5  1 -1</clus>
</clustering>
</event>
<event>
 9    1  0.1464797E-005  0.9444341E+02  0.7546771E-02  0.1297835E+00
         21   -1    0    0  501  502  0.00000000000E+00  0.00000000000E+00  0.27046293769E+03  0.27046293769E+03  0.00000000000E+00 0.  1.
          4   -1    0    0  502    0 -0.00000000000E+00 -0.00000000000E+00 -0.50104773684E+02  0.50104773684E+02  0.00000000000E+00 0. -1.
         23    2    1    2    0    0 -0.76119487094E+01  0.24113454153E+02  0.46733229275E+02  0.98222370440E+02  0.82608951706E+02 0.  0.
         23    2    1    2    0    0 -0.18384459185E+02 -0.15853630210E+02  0.17007958147E+03  0.19483884271E+03  0.91900950278E+02 0.  0.
        -13    1    3    3    0    0  0.27449281975E+02 -0.16743739098E+02  0.22101804237E+02  0.39016735262E+02  0.00000000000E+00 0.  1.
         13    1    3    3    0    0 -0.35061230684E+02  0.40857193251E+02  0.24631425038E+02  0.59205635178E+02  0.00000000000E+00 0. -1.
        -13    1    4    4    0    0 -0.40264359633E+02  0.17036237026E+02  0.41322031359E+02  0.60157811665E+02  0.00000000000E+00 0. -1.
         13    1    4    4    0    0  0.21879900448E+02 -0.32889867236E+02  0.12875755012E+03  0.13468103104E+03  0.00000000000E+00 0.  1.
          4    1    1    2  501    0  0.25996407894E+02 -0.82598239432E+01  0.35453532543E+01  0.27506498227E+02  0.00000000000E+00 0. -1.
<scales pt_clust_5="13000.00000" pt_clust_6="13000.00000" pt_clust_7="13000.00000" pt_clust_8="13000.00000" pt_clust_9="27.27707"></scales>
<clustering>
<clus scale="   27.277">  1  9  2 -1</clus>
<clus scale="   82.609">  5  6 -1 -1</clus>
<clus scale="   85.428">  2  5  1 -1</clus>
<clus scale="   91.901">  7  8 -1 -1</clus>
<clus scale="   27.277">  1  5  2 -1</clus>
</clustering>
</event>
<event>
 9    1  0.1464797E-005  0.1305204E+03  0.7546771E-02  0.1227324E+00
         21   -1    0    0  501  502  0.00000000000E+00  0.00000000000E+00  0.60750604184E+02  0.60750604184E+02  0.00000000000E+00 0.  1.
          2   -1    0    0  502    0 -0.00000000000E+00 -0.00000000000E+00 -0.71669723189E+03  0.71669723189E+03  0.00000000000E+00 0.  1.
         23    2    1    2    0    0 -0.11343252994E+03  0.51309966253E+01 -0.53871174252E+03  0.55814004970E+03  0.91742615885E+02 0.  0.
         23    2    1    2    0    0  0.36529572418E+02 -0.33104121988E+02 -0.78874429590E+02  0.12893032695E+03  0.89283598782E+02 0.  0.
        -11    1    3    3    0    0 -0.11285130811E+03  0.32733574593E+02 -0.41029833775E+03  0.42679225697E+03  0.00000000000E+00 0.  1.
         11    1    3    3    0    0 -0.58122182792E+00 -0.27602577968E+02 -0.12841340477E+03  0.13134779273E+03  0.00000000000E+00 0. -1.
        -11    1    4    4    0    0  0.96820649883E+01 -0.56830285554E+02 -0.72354852077E+02  0.92512963187E+02  0.00000000000E+00 0. -1.
         11    1    4    4    0    0  0.26847507429E+02  0.23726163566E+02 -0.65195775131E+01  0.36417363766E+02  0.00000000000E+00 0.  1.
          2    1    1    2  501    0  0.76902957522E+02  0.27973125363E+02 -0.38360455591E+02  0.90377459421E+02  0.00000000000E+00 0.  1.
<scales pt_clust_5="13000.00000" pt_clust_6="13000.00000" pt_clust_7="13000.00000" pt_clust_8="13000.00000" pt_clust_9="81.83252"></scales>
<clustering>
<clus scale="   81.833">  1  9  2 -1</clus>
<clus scale="   89.284">  7  8 -1 -1</clus>
<clus scale="   91.743">  5  6 -1 -1</clus>
<clus scale="  128.804">  1  7  2 -1</clus>
<clus scale="   81.833">  1  5  2 -1</clus>
</clustering>
</event>
<event>
 9    1  0.1464797E-005  0.1071886E+03  0.7546771E-02  0.1268470E+00
         21   -1    0    0  501  502  0.00000000000E+00  0.00000000000E+00  0.38174817779E+02  0.38174817779E+02  0.00000000000E+00 0.  1.
          2   -1    0    0  502    0 -0.00000000000E+00 -0.00000000000E+00 -0.52877010390E+03  0.52877010390E+03  0.00000000000E+00 0. -1.
         23    2    1    2    0    0 -0.36121501165E+00  0.54505273424E+02 -0.35575259389E+03  0.37103536014E+03  0.90201857542E+02 0.  0.
         23    2    1    2    0    0  0.28633412087E+02 -0.65733904531E+02 -0.11619427514E+03  0.16022815541E+03  0.83851855779E+02 0.  0.
        -11    1    3    3    0    0  0.19623478967E+02 -0.16876862161E+02 -0.15264260562E+03  0.15482142763E+03  0.00000000000E+00 0.  1.
         11    1    3    3    0    0 -0.19984693979E+02  0.71382135585E+02 -0.20310998828E+03  0.21621393251E+03  0.00000000000E+00 0. -1.
        -13    1    4    4    0    0  0.37907615900E+02 -0.36574315303E+02 -0.15382951699E+02  0.54875341330E+02  0.00000000000E+00 0.  1.
         13    1    4    4    0    0 -0.92742038137E+01 -0.29159589228E+02 -0.10081132344E+03  0.10535281408E+03  0.00000000000E+00 0. -1.
          2    1    1    2  501    0 -0.28272197075E+02  0.11228631107E+02 -0.18648417097E+02  0.35681406141E+02  0.00000000000E+00 0. -1.
<scales pt_clust_5="13000.00000" pt_clust_6="13000.00000" pt_clust_7="13000.00000" pt_clust_8="13000.00000" pt_clust_9="30.42038"></scales>
<clustering>
<clus scale="   30.420">  1  9  2 -1</clus>
<clus scale="   83.852">  7  8 -1 -1</clus>
<clus scale="   90.202">  5  6 -1 -1</clus>
<clus scale="  101.903">  1  7  2 -1</clus>
<clus scale="   30.420">  1  5  2 -1</clus>
</clustering>
</event>
<event>
 9    1  0.1464797E-005  0.9875551E+02  0.7546771E-02  0.1283543E+00
         21   -1    0    0  501  502  0.00000000000E+00  0.00000000000E+00  0.10990599098E+03  0.10990599098E+03  0.00000000000E+00 0.  1.
         -3   -1    0    0    0  501 -0.00000000000E+00 -0.00000000000E+00 -0.39694953560E+03  0.39694953560E+03  0.00000000000E+00 0.  1.
         23    2    1    2    0    0  0.91184753599E+01 -0.13604784953E+02 -0.15678384874E+03  0.18184619655E+03  0.90656644580E+02 0.  0.
         23    2    1    2    0    0 -0.34455482269E+02  0.54040027731E+02 -0.20712832218E+03  0.23453414843E+03  0.89423822749E+02 0.  0.
        -13    1    4    4    0    0 -0.31454461476E+02  0.77267725470E+02 -0.13498217520E+03  0.15868166929E+03  0.00000000000E+00 0.  1.
         13    1    4    4    0    0 -0.30010207939E+01 -0.23227697739E+02 -0.72146146976E+02  0.75852479139E+02  0.00000000000E+00 0. -1.
        -13    1    3    3    0    0 -0.44852252324E+01  0.21818413090E+02 -0.18703154330E+01  0.22353041738E+02  0.00000000000E+00 0.  1.
         13    1    3    3    0    0  0.13603700592E+02 -0.35423198043E+02 -0.15491353330E+03  0.15949315481E+03  0.00000000000E+00 0. -1.
         -3    1    1    2    0  502  0.25337006909E+02 -0.40435242778E+02  0.76868626300E+02  0.90475181607E+02  0.00000000000E+00 0.  1.
<scales pt_clust_5="13000.00000" pt_clust_6="13000.00000" pt_clust_7="13000.00000" pt_clust_8="13000.00000" pt_clust_9="47.71764"></scales>
<clustering>
<clus scale="   47.718">  1  9  2 -1</clus>
<clus scale="   89.424">  5  6 -1 -1</clus>
<clus scale="   90.657">  7  8 -1 -1</clus>
<clus scale="   97.625">  1  5  2 -1</clus>
<clus scale="   47.718">  1  5  2 -1</clus>
</clustering>
</event>
<event>
 9    1  0.1464797E-005  0.1171524E+03  0.7546771E-02  0.1249258E+00
          2   -1    0    0  502    0 -0.00000000000E+00  0.00000000000E+00  0.13709975313E+03  0.13709975313E+03  0.00000000000E+00 0. -1.
         21   -1    0    0  501  502  0.00000000000E+00 -0.00000000000E+00 -0.33190935494E+03  0.33190935494E+03  0.00000000000E+00 0. -1.
         23    2    1    2    0    0 -0.75806702043E+02  0.34238385855E+01  0.85301434669E+02  0.14750147065E+03  0.93391489668E+02 0.  0.
         23    2    1    2    0    0  0.41445617624E+02 -0.34099657086E+02 -0.14356709841E+03  0.17740372705E+03  0.89331096432E+02 0.  0.
        -11    1    3    3    0    0  0.10952482748E+02  0.27284406538E+02  0.29354185817E+02  0.41545925714E+02  0.00000000000E+00 0.  1.
         11    1    3    3    0    0 -0.86759184792E+02 -0.23860567953E+02  0.55947248852E+02  0.10595554494E+03  0.00000000000E+00 0. -1.
        -11    1    4    4    0    0 -0.27587362115E+02 -0.27339670035E+01 -0.47751199406E+02  0.55215162489E+02  0.00000000000E+00 0. -1.
         11    1    4    4    0    0  0.69032979739E+02 -0.31365690082E+02 -0.95815899007E+02  0.12218856456E+03  0.00000000000E+00 0.  1.
          2    1    1    2  501    0  0.34361084420E+02  0.30675818500E+02 -0.13654393806E+03  0.14410391037E+03  0.00000000000E+00 0. -1.
<scales pt_clust_5="13000.00000" pt_clust_6="13000.00000" pt_clust_7="13000.00000" pt_clust_8="13000.00000" pt_clust_9="46.06181"></scales>
<clustering>
<clus scale="   46.062">  2  9  1 -1</clus>
<clus scale="   89.331">  7  8 -1 -1</clus>
<clus scale="   93.391">  5  6 -1 -1</clus>
<clus scale="  113.942">  2  7  1 -1</clus>
<clus scale="   46.062">  2  5  1 -1</clus>
</clustering>
</event>
<event>
 9    1  0.1562817E-005  0.1080230E+03  0.7546771E-02  0.1265449E+00
          2   -1    0    0  502    0 -0.00000000000E+00  0.00000000000E+00  0.21292315727E+03  0.21292315727E+03  0.00000000000E+00 0. -1.
         21   -1    0    0  501  502  0.00000000000E+00 -0.00000000000E+00 -0.21140288173E+03  0.21140288173E+03  0.00000000000E+00 0. -1.
         23    2    1    2    0    0  0.28528021480E+02  0.60149428497E+02  0.13547629570E+03  0.17620033734E+03  0.90889660703E+02 0.  0.
         23    2    1    2    0    0 -0.44777754641E+02  0.58476734348E+01 -0.71771877669E+01  0.10427667095E+03  0.93716964766E+02 0.  0.
        -11    1    4    4    0    0  0.10709560704E+02 -0.16974007001E+02 -0.33266954673E+02  0.38852308521E+02  0.00000000000E+00 0.  1.
         11    1    4    4    0    0 -0.55487315346E+02  0.22821680436E+02  0.26089766906E+02  0.65424362430E+02  0.00000000000E+00 0. -1.
        -11    1    3    3    0    0 -0.98952026665E+01 -0.19053519762E+02  0.45561269326E+02  0.50366466163E+02  0.00000000000E+00 0.  1.
         11    1    3    3    0    0  0.38423224147E+02  0.79202948259E+02  0.89915026377E+02  0.12583387118E+03  0.00000000000E+00 0. -1.
          2    1    1    2  501    0  0.16249733161E+02 -0.65997101932E+02 -0.12677883240E+03  0.14384903071E+03  0.00000000000E+00 0. -1.
<scales pt_clust_5="13000.00000" pt_clust_6="13000.00000" pt_clust_7="13000.00000" pt_clust_8="13000.00000" pt_clust_9="67.96816"></scales>
<clustering>
<clus scale="   67.968">  2  9  1 -1</clus>
<clus scale="   90.890">  7  8 -1 -1</clus>
<clus scale="   93.717">  5  6 -1 -1</clus>
<clus scale="  105.580">  1  7  2 -1</clus>
<clus scale="   67.968">  2  5  1 -1</clus>
</clustering>
</event>
<event>
 9    1  0.1464797E-005  0.9953132E+02  0.7546771E-02  0.1281360E+00
          2   -1    0    0  502    0 -0.00000000000E+00  0.00000000000E+00  0.92993800448E+02  0.92993800448E+02  0.00000000000E+00 0. -1.
         21   -1    0    0  501  502  0.00000000000E+00 -0.00000000000E+00 -0.24978421104E+03  0.24978421104E+03  0.00000000000E+00 0.  1.
         23    2    1    2    0    0 -0.53412518335E+02 -0.36206892439E+02  0.42499786751E+00  0.11083905823E+03  0.90118144849E+02 0.  0.
         23    2    1    2    0    0  0.14827349871E+02 -0.27185157847E+02 -0.76695883020E+02  0.12243661884E+03  0.90275046665E+02 0.  0.
        -11    1    4    4    0    0  0.35547061280E+02 -0.46230095023E+02 -0.73924713013E+02  0.94157731735E+02  0.00000000000E+00 0.  1.
         11    1    4    4    0    0 -0.20719711409E+02  0.19044937176E+02 -0.27711700070E+01  0.28278887109E+02  0.00000000000E+00 0. -1.
        -13    1    3    3    0    0 -0.54119934727E+02  0.85287952174E+01  0.24517437543E+02  0.60023432311E+02  0.00000000000E+00 0.  1.
         13    1    3    3    0    0  0.70741639150E+00 -0.44735687657E+02 -0.24092439675E+02  0.50815625919E+02  0.00000000000E+00 0. -1.
          2    1    1    2  501    0  0.38585168464E+02  0.63392050286E+02 -0.80519525438E+02  0.10950233441E+03  0.00000000000E+00 0. -1.
<scales pt_clust_5="13000.00000" pt_clust_6="13000.00000" pt_clust_7="13000.00000" pt_clust_8="13000.00000" pt_clust_9="74.21164"></scales>
<clustering>
<clus scale="   74.212">  2  9  1 -1</clus>
<clus scale="   90.118">  7  8 -1 -1</clus>
<clus scale="   90.275">  5  6 -1 -1</clus>
<clus scale="   99.389">  1  7  2 -1</clus>
<clus scale="   74.212">  2  5  1 -1</clus>
</clustering>
</event>
<event>
 9    1  0.1464797E-005  0.1603588E+03  0.7546771E-02  0.1188633E+00
         21   -1    0    0  501  502  0.00000000000E+00  0.00000000000E+00  0.12216880588E+03  0.12216880588E+03  0.00000000000E+00 0. -1.
          2   -1    0    0  502    0 -0.00000000000E+00 -0.00000000000E+00 -0.43455068214E+03  0.43455068214E+03  0.00000000000E+00 0. -1.
         23    2    1    2    0    0  0.18357629050E+03  0.17994588076E+02 -0.24327824700E+03  0.31885466670E+03  0.91977896146E+02 0.  0.
         23    2    1    2    0    0 -0.74236079772E+02 -0.10897722909E+01 -0.42517623057E+02  0.12407611273E+03  0.89860727438E+02 0.  0.
        -11    1    3    3    0    0  0.12567474886E+03 -0.12780299208E+02 -0.99409406856E+02  0.16074734436E+03  0.00000000000E+00 0. -1.
         11    1    3    3    0    0  0.57901541640E+02  0.30774887284E+02 -0.14386884015E+03  0.15810732234E+03  0.00000000000E+00 0.  1.
        -13    1    4    4    0    0  0.69478307912E+01  0.28365990509E+02 -0.38672877869E+01  0.29459424385E+02  0.00000000000E+00 0.  1.
         13    1    4    4    0    0 -0.81183910563E+02 -0.29455762800E+02 -0.38650335270E+02  0.94616688342E+02  0.00000000000E+00 0. -1.
          2    1    1    2  501    0 -0.10934021073E+03 -0.16904815785E+02 -0.26586006202E+02  0.11378870860E+03  0.00000000000E+00 0. -1.
<scales pt_clust_5="13000.00000" pt_clust_6="13000.00000" pt_clust_7="13000.00000" pt_clust_8="13000.00000" pt_clust_9="110.63930"></scales>
<clustering>
<clus scale="   89.861">  7  8 -1 -1</clus>
<clus scale="   91.978">  5  6 -1 -1</clus>
<clus scale="  110.639">  1  9  2 -1</clus>
<clus scale="  159.154">  1  7  2 -1</clus>
<clus scale="  110.639">  1  5  2 -1</clus>
</clustering>
</event>
<event>
 9    1  0.1464797E-005  0.1554917E+03  0.7546771E-02  0.1196331E+00
         21   -1    0    0  501  502  0.00000000000E+00  0.00000000000E+00  0.77741187540E+02  0.77741187540E+02  0.00000000000E+00 0.  1.
          1   -1    0    0  502    0 -0.00000000000E+00 -0.00000000000E+00 -0.70339752320E+03  0.70339752320E+03  0.00000000000E+00 0. -1.
         23    2    1    2    0    0  0.95836086575E+02 -0.82704298650E+02 -0.55607841404E+03  0.57885855445E+03  0.99143668460E+02 0.  0.
         23    2    1    2    0    0 -0.74076675434E+02  0.67090619782E+02 -0.97259448633E+02  0.16376358999E+03  0.85852244889E+02 0.  0.
        -11    1    3    3    0    0  0.68068664859E+02 -0.10426296607E+03 -0.45986305003E+03  0.47642222241E+03  0.00000000000E+00 0. -1.
         11    1    3    3    0    0  0.27767421716E+02  0.21558667416E+02 -0.96215364017E+02  0.10243633204E+03  0.00000000000E+00 0.  1.
        -11    1    4    4    0    0 -0.75595734391E+02  0.43803339674E+02 -0.29688031710E+02  0.92275819430E+02  0.00000000000E+00 0.  1.
         11    1    4    4    0    0  0.15190589568E+01  0.23287280108E+02 -0.67571416922E+02  0.71487770561E+02  0.00000000000E+00 0. -1.
          1    1    1    2  501    0 -0.21759411141E+02  0.15613678868E+02  0.27681527016E+02  0.38516566293E+02  0.00000000000E+00 0. -1.
<scales pt_clust_5="13000.00000" pt_clust_6="13000.00000" pt_clust_7="13000.00000" pt_clust_8="13000.00000" pt_clust_9="26.78169"></scales>
<clustering>
<clus scale="   26.782">  1  9  2 -1</clus>
<clus scale="   85.852">  7  8 -1 -1</clus>
<clus scale="   99.144">  5  6 -1 -1</clus>
<clus scale="  147.373">  1  7  2 -1</clus>
<clus scale="   26.782">  1  5  2 -1</clus>
</clustering>
</event>
<event>
 9    1  0.1464797E-005  0.2030015E+03  0.7546771E-02  0.1147635E+00
         -2   -1    0    0    0  501 -0.00000000000E+00  0.00000000000E+00  0.14443737200E+03  0.14443737200E+03  0.00000000000E+00 0.  1.
         21   -1    0    0  501  502  0.00000000000E+00 -0.00000000000E+00 -0.47901699611E+03  0.47901699611E+03  0.00000000000E+00 0.  1.
         23    2    1    2    0    0  0.12630745694E+03  0.57905841850E+02 -0.11736055436E+03  0.20376914907E+03  0.91878758138E+02 0.  0.
         23    2    1    2    0    0 -0.21401150566E+03 -0.68184427984E+02 -0.75306972289E+02  0.25254248690E+03  0.87501581926E+02 0.  0.
        -11    1    3    3    0    0  0.76921198863E+01  0.36955099140E+02 -0.58709470941E+02  0.69797206527E+02  0.00000000000E+00 0. -1.
         11    1    3    3    0    0  0.11861533705E+03  0.20950742710E+02 -0.58651083415E+02  0.13397194255E+03  0.00000000000E+00 0.  1.
        -11    1    4    4    0    0 -0.66158589605E+02 -0.56256044469E+02 -0.14873395024E+01  0.86855706183E+02  0.00000000000E+00 0. -1.
         11    1    4    4    0    0 -0.14785291606E+03 -0.11928383515E+02 -0.73819632787E+02  0.16568678072E+03  0.00000000000E+00 0.  1.
         -2    1    1    2    0  502  0.87704048727E+02  0.10278586134E+02 -0.14191209747E+03  0.16714273213E+03  0.00000000000E+00 0.  1.
<scales pt_clust_5="13000.00000" pt_clust_6="13000.00000" pt_clust_7="13000.00000" pt_clust_8="13000.00000" pt_clust_9="88.30430"></scales>
<clustering>
<clus scale="   87.502">  7  8 -1 -1</clus>
<clus scale="   88.304">  2  9  1 -1</clus>
<clus scale="   91.879">  5  6 -1 -1</clus>
<clus scale="  201.058">  2  7  1 -1</clus>
<clus scale="   88.304">  2  5  1 -1</clus>
</clustering>
</event>
<event>
 9    1  0.1464797E-005  0.3780668E+03  0.7546771E-02  0.1051701E+00
         21   -1    0    0  501  502  0.00000000000E+00  0.00000000000E+00  0.49154962436E+03  0.49154962436E+03  0.00000000000E+00 0. -1.
         -3   -1    0    0    0  501 -0.00000000000E+00 -0.00000000000E+00 -0.51316622295E+03  0.51316622295E+03  0.00000000000E+00 0.  1.
         23    2    1    2    0    0 -0.13075193108E+03  0.33777776261E+03 -0.23603942455E+03  0.44157165180E+03  0.89894545656E+02 0.  0.
         23    2    1    2    0    0  0.78460722893E+02 -0.37167107513E+03  0.58504387143E+02  0.39523443805E+03  0.92152181632E+02 0.  0.
        -11    1    3    3    0    0 -0.12574061102E+03  0.31520556470E+03 -0.18727770709E+03  0.38760571313E+03  0.00000000000E+00 0.  1.
         11    1    3    3    0    0 -0.50113200639E+01  0.22572197908E+02 -0.48761717460E+02  0.53965938673E+02  0.00000000000E+00 0. -1.
        -11    1    4    4    0    0  0.91509405210E+02 -0.31079225229E+03  0.26070530049E+02  0.32503148750E+03  0.00000000000E+00 0. -1.
         11    1    4    4    0    0 -0.13048682318E+02 -0.60878822837E+02  0.32433857093E+02  0.70202950552E+02  0.00000000000E+00 0.  1.
         -3    1    1    2    0  502  0.52291208188E+02  0.33893312520E+02  0.15591843881E+03  0.16790975746E+03  0.00000000000E+00 0.  1.
<scales pt_clust_5="13000.00000" pt_clust_6="13000.00000" pt_clust_7="13000.00000" pt_clust_8="13000.00000" pt_clust_9="62.31474"></scales>
<clustering>
<clus scale="   62.315">  1  9  2 -1</clus>
<clus scale="   89.895">  5  6 -1 -1</clus>
<clus scale="   92.152">  7  8 -1 -1</clus>
<clus scale="  377.523">  2  5  1 -1</clus>
<clus scale="   62.315">  1  5  2 -1</clus>
</clustering>
</event>
<event>
 9    1  0.1552410E-005  0.1063414E+03  0.7546771E-02  0.1267672E+00
          1   -1    0    0  502    0 -0.00000000000E+00  0.00000000000E+00  0.58447361503E+03  0.58447361503E+03  0.00000000000E+00 0. -1.
         21   -1    0    0  501  502  0.00000000000E+00 -0.00000000000E+00 -0.20240076381E+03  0.20240076381E+03  0.00000000000E+00 0. -1.
         23    2    1    2    0    0 -0.29791621573E+01  0.45785531818E+02  0.27420735701E+03  0.29240885609E+03  0.90598422472E+02 0.  0.
         23    2    1    2    0    0 -0.69829813743E+02 -0.51982766220E+02  0.28024113661E+03  0.30724128612E+03  0.91014847013E+02 0.  0.
        -11    1    3    3    0    0  0.39960585909E+02  0.72664690671E+01  0.78609134437E+02  0.88481896543E+02  0.00000000000E+00 0.  1.
         11    1    3    3    0    0 -0.42939748066E+02  0.38519062750E+02  0.19559822257E+03  0.20392695955E+03  0.00000000000E+00 0. -1.
        -13    1    4    4    0    0 -0.35304385330E+02 -0.18151722837E+02  0.23802250043E+02  0.46286410237E+02  0.00000000000E+00 0.  1.
         13    1    4    4    0    0 -0.34525428413E+02 -0.33831043383E+02  0.25643888657E+03  0.26095487589E+03  0.00000000000E+00 0. -1.
          1    1    1    2  501    0  0.72808975901E+02  0.61972344024E+01 -0.17237564240E+03  0.18722423662E+03  0.00000000000E+00 0. -1.
<scales pt_clust_5="13000.00000" pt_clust_6="13000.00000" pt_clust_7="13000.00000" pt_clust_8="13000.00000" pt_clust_9="73.07224"></scales>
<clustering>
<clus scale="   73.072">  2  9  1 -1</clus>
<clus scale="   90.598">  5  6 -1 -1</clus>
<clus scale="   91.015">  7  8 -1 -1</clus>
<clus scale="  105.985">  1  5  2 -1</clus>
<clus scale="   73.072">  2  5  1 -1</clus>
</clustering>
</event>
<event>
 9    1  0.1464797E-005  0.1120518E+03  0.7546771E-02  0.1257955E+00
          1   -1    0    0  502    0 -0.00000000000E+00  0.00000000000E+00  0.82300446037E+02  0.82300446037E+02  0.00000000000E+00 0. -1.
         21   -1    0    0  501  502  0.00000000000E+00 -0.00000000000E+00 -0.32788559124E+03  0.32788559124E+03  0.00000000000E+00 0.  1.
         23    2    1    2    0    0 -0.95591432195E+02 -0.17683584702E+02 -0.59531459433E+02  0.14356024562E+03  0.87264645661E+02 0.  0.
         23    2    1    2    0    0  0.11139641151E+02  0.33086439150E+02 -0.13687528856E+03  0.16769213870E+03  0.90371481687E+02 0.  0.
        -13    1    3    3    0    0 -0.34676383073E+02  0.91331617285E+01 -0.67594318781E+02  0.76517044622E+02  0.00000000000E+00 0.  1.
         13    1    3    3    0    0 -0.60915049122E+02 -0.26816746431E+02  0.80628593488E+01  0.67043200995E+02  0.00000000000E+00 0. -1.
        -13    1    4    4    0    0 -0.36378720857E+02  0.31827591238E+02 -0.81066736851E+02  0.94383381583E+02  0.00000000000E+00 0. -1.
         13    1    4    4    0    0  0.47518362009E+02  0.12588479120E+01 -0.55808551709E+02  0.73308757116E+02  0.00000000000E+00 0.  1.
          1    1    1    2  501    0  0.84451791044E+02 -0.15402854448E+02 -0.49178397207E+02  0.98933652957E+02  0.00000000000E+00 0. -1.
<scales pt_clust_5="13000.00000" pt_clust_6="13000.00000" pt_clust_7="13000.00000" pt_clust_8="13000.00000" pt_clust_9="85.84498"></scales>
<clustering>
<clus scale="   85.845">  2  9  1 -1</clus>
<clus scale="   87.265">  5  6 -1 -1</clus>
<clus scale="   90.371">  7  8 -1 -1</clus>
<clus scale="  109.561">  1  5  2 -1</clus>
<clus scale="   85.845">  2  5  1 -1</clus>
</clustering>
</event>
<event>
 9    1  0.1464797E-005  0.1179498E+03  0.7546771E-02  0.1249150E+00
         21   -1    0    0  501  502  0.00000000000E+00  0.00000000000E+00  0.37587144729E+03  0.37587144729E+03  0.00000000000E+00 0. -1.
         -1   -1    0    0    0  501 -0.00000000000E+00 -0.00000000000E+00 -0.54746772660E+02  0.54746772660E+02  0.00000000000E+00 0.  1.
         23    2    1    2    0    0 -0.71297971466E+02  0.22714303562E+02  0.63364455346E+02  0.13788855140E+03  0.96947707989E+02 0.  0.
         23    2    1    2    0    0  0.52384927035E+02 -0.15304629316E+02  0.14947582510E+03  0.18255654775E+03  0.89473228280E+02 0.  0.
        -13    1    3    3    0    0 -0.92924457831E+01 -0.35709616058E+02  0.14277804458E+02  0.39564907782E+02  0.00000000000E+00 0.  1.
         13    1    3    3    0    0 -0.62005525683E+02  0.58423919620E+02  0.49086650887E+02  0.98323643618E+02  0.00000000000E+00 0. -1.
        -13    1    4    4    0    0  0.44449659104E+02 -0.44535161562E+02  0.13509055977E+03  0.14902554193E+03  0.00000000000E+00 0.  1.
         13    1    4    4    0    0  0.79352679310E+01  0.29230532246E+02  0.14385265329E+02  0.33531005818E+02  0.00000000000E+00 0. -1.
         -1    1    1    2    0  502  0.18913044431E+02 -0.74096742467E+01  0.10828439419E+03  0.11017312080E+03  0.00000000000E+00 0.  1.
<scales pt_clust_5="13000.00000" pt_clust_6="13000.00000" pt_clust_7="13000.00000" pt_clust_8="13000.00000" pt_clust_9="20.31272"></scales>
<clustering>
<clus scale="   20.313">  1  9  2 -1</clus>
<clus scale="   89.473">  7  8 -1 -1</clus>
<clus scale="   96.948">  5  6 -1 -1</clus>
<clus scale="  111.887">  1  7  2 -1</clus>
<clus scale="   20.313">  1  5  2 -1</clus>
</clustering>
</event>
<event>
 9    1  0.1464797E-005  0.1042966E+03  0.7546771E-02  0.1271889E+00
         21   -1    0    0  501  502  0.00000000000E+00  0.00000000000E+00  0.86694196000E+02  0.86694196000E+02  0.00000000000E+00 0. -1.
          2   -1    0    0  502    0 -0.00000000000E+00 -0.00000000000E+00 -0.58117262380E+03  0.58117262380E+03  0.00000000000E+00 0. -1.
         23    2    1    2    0    0  0.59309373947E+02 -0.29916910262E+02 -0.38743031487E+03  0.40391655039E+03  0.92917745590E+02 0.  0.
         23    2    1    2    0    0 -0.23157199941E+02 -0.33668375851E+02 -0.14883027703E+03  0.17971359371E+03  0.92069044536E+02 0.  0.
        -11    1    4    4    0    0  0.15641286379E+02  0.23342949786E+02 -0.23359496951E+02  0.36540515077E+02  0.00000000000E+00 0.  1.
         11    1    4    4    0    0 -0.38798486320E+02 -0.57011325637E+02 -0.12547078008E+03  0.14317307863E+03  0.00000000000E+00 0. -1.
        -11    1    3    3    0    0  0.67484595259E+02 -0.92823618273E+01 -0.36850510507E+03  0.37474837598E+03  0.00000000000E+00 0. -1.
         11    1    3    3    0    0 -0.81752213118E+01 -0.20634548435E+02 -0.18925209798E+02  0.29168174412E+02  0.00000000000E+00 0.  1.
          2    1    1    2  501    0 -0.36152174006E+02  0.63585286114E+02  0.41782164098E+02  0.84236675695E+02  0.00000000000E+00 0. -1.
<scales pt_clust_5="13000.00000" pt_clust_6="13000.00000" pt_clust_7="13000.00000" pt_clust_8="13000.00000" pt_clust_9="73.14416"></scales>
<clustering>
<clus scale="   73.144">  1  9  2 -1</clus>
<clus scale="   92.069">  5  6 -1 -1</clus>
<clus scale="   92.918">  7  8 -1 -1</clus>
<clus scale="  103.541">  1  5  2 -1</clus>
<clus scale="   73.144">  1  5  2 -1</clus>
</clustering>
</event>
<event>
 9    1  0.1464797E-005  0.1079070E+03  0.7546771E-02  0.1264680E+00
         -1   -1    0    0    0  501 -0.00000000000E+00  0.00000000000E+00  0.32874958081E+03  0.32874958081E+03  0.00000000000E+00 0.  1.
         21   -1    0    0  501  502  0.00000000000E+00 -0.00000000000E+00 -0.80611309638E+02  0.80611309638E+02  0.00000000000E+00 0. -1.
         23    2    1    2    0    0 -0.10341167168E+02  0.53625856175E+02  0.21005609506E+03  0.23457513023E+03  0.88990204311E+02 0.  0.
         23    2    1    2    0    0  0.24802893122E+02 -0.75875948093E+02  0.66015132704E+02  0.13625709333E+03  0.88519233683E+02 0.  0.
        -11    1    3    3    0    0 -0.43611986864E+02  0.47631363810E+02  0.96678724254E+02  0.11626490416E+03  0.00000000000E+00 0.  1.
         11    1    3    3    0    0  0.33270819697E+02  0.59944923644E+01  0.11337737080E+03  0.11831022607E+03  0.00000000000E+00 0. -1.
        -11    1    4    4    0    0  0.53105764155E+02 -0.73586345743E+02  0.52015683854E+02  0.10459829747E+03  0.00000000000E+00 0. -1.
         11    1    4    4    0    0 -0.28302871033E+02 -0.22896023495E+01  0.13999448850E+02  0.31658795867E+02  0.00000000000E+00 0.  1.
         -1    1    1    2    0  502 -0.14461725954E+02  0.22250091918E+02 -0.27932956590E+02  0.38528666883E+02  0.00000000000E+00 0.  1.
<scales pt_clust_5="13000.00000" pt_clust_6="13000.00000" pt_clust_7="13000.00000" pt_clust_8="13000.00000" pt_clust_9="26.53692"></scales>
<clustering>
<clus scale="   26.537">  2  9  1 -1</clus>
<clus scale="   88.519">  7  8 -1 -1</clus>
<clus scale="   88.990">  5  6 -1 -1</clus>
<clus scale="  107.519">  2  7  1 -1</clus>
<clus scale="   26.537">  2  5  1 -1</clus>
</clustering>
</event>
<event>
 9    1  0.1464797E-005  0.2195979E+03  0.7546771E-02  0.1135382E+00
         21   -1    0    0  501  502  0.00000000000E+00  0.00000000000E+00  0.13103302904E+04  0.13103302904E+04  0.00000000000E+00 0. -1.
          4   -1    0    0  502    0 -0.00000000000E+00 -0.00000000000E+00 -0.85218961997E+02  0.85218961997E+02  0.00000000000E+00 0. -1.
         23    2    1    2    0    0  0.57637919372E+02 -0.16225648936E+03  0.22075933382E+03  0.29419873485E+03  0.90382044827E+02 0.  0.
         23    2    1    2    0    0 -0.50023798898E+02  0.29165171068E+03  0.82885592549E+03  0.88317634769E+03  0.73723911276E+02 0.  0.
        -11    1    4    4    0    0 -0.56507537173E+02  0.12262072350E+03  0.33665900998E+03  0.36272335545E+03  0.00000000000E+00 0.  1.
         11    1    4    4    0    0  0.64837382746E+01  0.16903098719E+03  0.49219691551E+03  0.52045299224E+03  0.00000000000E+00 0. -1.
        -13    1    3    3    0    0  0.79540747330E+02 -0.14876803368E+03  0.18926956127E+03  0.25353821241E+03  0.00000000000E+00 0. -1.
         13    1    3    3    0    0 -0.21902827957E+02 -0.13488455681E+02  0.31489772554E+02  0.40660522435E+02  0.00000000000E+00 0.  1.
          4    1    1    2  501    0 -0.76141204740E+01 -0.12939522132E+03  0.17549606913E+03  0.21817416990E+03  0.00000000000E+00 0. -1.
<scales pt_clust_5="13000.00000" pt_clust_6="13000.00000" pt_clust_7="13000.00000" pt_clust_8="13000.00000" pt_clust_9="129.61911"></scales>
<clustering>
<clus scale="   73.724">  5  6 -1 -1</clus>
<clus scale="   90.382">  7  8 -1 -1</clus>
<clus scale="  129.619">  1  9  2 -1</clus>
<clus scale="  213.283">  1  5  2 -1</clus>
<clus scale="  129.619">  1  5  2 -1</clus>
</clustering>
</event>
<event>
 9    1  0.1464797E-005  0.1215881E+03  0.7546771E-02  0.1243072E+00
         21   -1    0    0  501  502  0.00000000000E+00  0.00000000000E+00  0.58966089286E+02  0.58966089286E+02  0.00000000000E+00 0.  1.
          1   -1    0    0  502    0 -0.00000000000E+00 -0.00000000000E+00 -0.42080515561E+03  0.42080515561E+03  0.00000000000E+00 0. -1.
         23    2    1    2    0    0  0.21186321803E+02  0.76811773796E+02 -0.29998722497E+03  0.32449488931E+03  0.94634503320E+02 0.  0.
         23    2    1    2    0    0 -0.41274836779E+02 -0.57328676852E+02 -0.60960467224E+02  0.12727753332E+03  0.86563286574E+02 0.  0.
        -13    1    4    4    0    0  0.22222809194E+02  0.10825158577E+01 -0.11168624791E+01  0.22277173762E+02  0.00000000000E+00 0. -1.
         13    1    4    4    0    0 -0.63497645973E+02 -0.58411192710E+02 -0.59843604745E+02  0.10500035956E+03  0.00000000000E+00 0.  1.
        -13    1    3    3    0    0 -0.24224959297E+02  0.30376528148E+02 -0.37164941421E+02  0.53766299725E+02  0.00000000000E+00 0.  1.
         13    1    3    3    0    0  0.45411281100E+02  0.46435245648E+02 -0.26282228355E+03  0.27072858958E+03  0.00000000000E+00 0. -1.
          1    1    1    2  501    0  0.20088514976E+02 -0.19483096944E+02 -0.89137413073E+00  0.27998822267E+02  0.00000000000E+00 0. -1.
<scales pt_clust_5="13000.00000" pt_clust_6="13000.00000" pt_clust_7="13000.00000" pt_clust_8="13000.00000" pt_clust_9="27.98463"></scales>
<clustering>
<clus scale="   27.985">  1  9  2 -1</clus>
<clus scale="   86.563">  5  6 -1 -1</clus>
<clus scale="   94.635">  7  8 -1 -1</clus>
<clus scale="  115.417">  1  5  2 -1</clus>
<clus scale="   27.985">  1  5  2 -1</clus>
</clustering>
</event>
<event>
 9    1  0.1464797E-005  0.1281121E+03  0.7546771E-02  0.1230478E+00
         21   -1    0    0  501  502  0.00000000000E+00  0.00000000000E+00  0.21716951331E+03  0.21716951331E+03  0.00000000000E+00 0. -1.
          3   -1    0    0  502    0 -0.00000000000E+00 -0.00000000000E+00 -0.11641102690E+03  0.11641102690E+03  0.00000000000E+00 0. -1.
         23    2    1    2    0    0 -0.57412945377E+02  0.67558983568E+02 -0.30242543544E+02  0.13069701885E+03  0.91140752343E+02 0.  0.
         23    2    1    2    0    0  0.41662719512E+02 -0.83412365783E+02  0.12155068560E+03  0.17862020851E+03  0.91854258222E+02 0.  0.
        -11    1    3    3    0    0 -0.25992745978E+02 -0.13578811257E+02  0.14658625615E+02  0.32785397109E+02  0.00000000000E+00 0.  1.
         11    1    3    3    0    0 -0.31420199399E+02  0.81137794826E+02 -0.44901169159E+02  0.97911621738E+02  0.00000000000E+00 0. -1.
        -11    1    4    4    0    0  0.52029850586E+02 -0.43082759885E+02  0.11908013815E+03  0.13690620458E+03  0.00000000000E+00 0.  1.
         11    1    4    4    0    0 -0.10367131074E+02 -0.40329605898E+02  0.24705474533E+01  0.41714003923E+02  0.00000000000E+00 0. -1.
          3    1    1    2  501    0  0.15750225864E+02  0.15853382214E+02  0.94503443464E+01  0.24263312855E+02  0.00000000000E+00 0. -1.
<scales pt_clust_5="13000.00000" pt_clust_6="13000.00000" pt_clust_7="13000.00000" pt_clust_8="13000.00000" pt_clust_9="22.34724"></scales>
<clustering>
<clus scale="   22.347">  1  9  2 -1</clus>
<clus scale="   91.141">  5  6 -1 -1</clus>
<clus scale="   91.854">  7  8 -1 -1</clus>
<clus scale="  127.601">  2  5  1 -1</clus>
<clus scale="   22.347">  1  5  2 -1</clus>
</clustering>
</event>
<event>
 9    1  0.1464797E-005  0.1814762E+03  0.7546771E-02  0.1170654E+00
          1   -1    0    0  502    0 -0.00000000000E+00  0.00000000000E+00  0.88869568017E+03  0.88869568017E+03  0.00000000000E+00 0. -1.
         21   -1    0    0  501  502  0.00000000000E+00 -0.00000000000E+00 -0.58989115529E+02  0.58989115529E+02  0.00000000000E+00 0. -1.
         23    2    1    2    0    0 -0.11253574012E+03 -0.90551738478E+02  0.68632854517E+03  0.71146776264E+03  0.11948052235E+03 0.  0.
         23    2    1    2    0    0  0.86440299760E+02  0.79088445320E+02  0.14486769346E+03  0.20767586584E+03  0.91737173712E+02 0.  0.
        -11    1    4    4    0    0 -0.16203974206E+02  0.25040416872E+02  0.14484565646E+02  0.33157109331E+02  0.00000000000E+00 0. -1.
         11    1    4    4    0    0  0.10264427397E+03  0.54048028448E+02  0.13038312781E+03  0.17451875651E+03  0.00000000000E+00 0.  1.
        -13    1    3    3    0    0 -0.16567058069E+02  0.29455073673E+02  0.12400659627E+03  0.12852900333E+03  0.00000000000E+00 0.  1.
         13    1    3    3    0    0 -0.95968682050E+02 -0.12000681215E+03  0.56232194890E+03  0.58293875931E+03  0.00000000000E+00 0. -1.
          1    1    1    2  501    0  0.26095440359E+02  0.11463293158E+02 -0.14896739814E+01  0.28541167217E+02  0.00000000000E+00 0. -1.
<scales pt_clust_5="13000.00000" pt_clust_6="13000.00000" pt_clust_7="13000.00000" pt_clust_8="13000.00000" pt_clust_9="28.50226"></scales>
<clustering>
<clus scale="   28.502">  2  9  1 -1</clus>
<clus scale="   91.737">  5  6 -1 -1</clus>
<clus scale="  119.481">  7  8 -1 -1</clus>
<clus scale="  164.541">  2  5  1 -1</clus>
<clus scale="   28.502">  2  5  1 -1</clus>
</clustering>
</event>
<event>
 9    1  0.1464797E-005  0.9281434E+02  0.7546771E-02  0.1296559E+00
         21   -1    0    0  501  502  0.00000000000E+00  0.00000000000E+00  0.56535566093E+02  0.56535566093E+02  0.00000000000E+00 0. -1.
         -3   -1    0    0    0  501 -0.00000000000E+00 -0.00000000000E+00 -0.36365494424E+03  0.36365494424E+03  0.00000000000E+00 0.  1.
         23    2    1    2    0    0  0.20995006683E+02 -0.68033045838E+01 -0.20694007720E+03  0.22732866907E+03  0.91471596520E+02 0.  0.
         23    2    1    2    0    0  0.15847227039E+02  0.96473139937E+01 -0.73782458342E+01  0.92974532736E+02  0.90805396061E+02 0.  0.
        -11    1    3    3    0    0  0.43955404559E+02  0.27869794535E+02 -0.10370992314E+03  0.11603685275E+03  0.00000000000E+00 0.  1.
         11    1    3    3    0    0 -0.22960397876E+02 -0.34673099119E+02 -0.10323015406E+03  0.11129181632E+03  0.00000000000E+00 0. -1.
        -11    1    4    4    0    0 -0.32554331093E+02 -0.12861559630E+02  0.10724548128E+02  0.36609016943E+02  0.00000000000E+00 0. -1.
         11    1    4    4    0    0  0.48401558131E+02  0.22508873624E+02 -0.18102793962E+02  0.56365515793E+02  0.00000000000E+00 0.  1.
         -3    1    1    2    0  502 -0.36842233721E+02 -0.28440094099E+01 -0.92801055114E+02  0.99887308530E+02  0.00000000000E+00 0.  1.
<scales pt_clust_5="13000.00000" pt_clust_6="13000.00000" pt_clust_7="13000.00000" pt_clust_8="13000.00000" pt_clust_9="36.95186"></scales>
<clustering>
<clus scale="   36.952">  1  9  2 -1</clus>
<clus scale="   90.805">  7  8 -1 -1</clus>
<clus scale="   91.472">  5  6 -1 -1</clus>
<clus scale="   92.158">  1  7  2 -1</clus>
<clus scale="   36.952">  1  5  2 -1</clus>
</clustering>
</event>
<event>
 9    1  0.1464797E-005  0.2270752E+03  0.7546771E-02  0.1129425E+00
         21   -1    0    0  501  502  0.00000000000E+00  0.00000000000E+00  0.26959134874E+03  0.26959134874E+03  0.00000000000E+00 0.  1.
          2   -1    0    0  502    0 -0.00000000000E+00 -0.00000000000E+00 -0.26694634984E+03  0.26694634984E+03  0.00000000000E+00 0. -1.
         23    2    1    2    0    0 -0.18315994648E+03  0.25387126266E+02 -0.27250050971E+02  0.20844239999E+03  0.92269153364E+02 0.  0.
         23    2    1    2    0    0  0.22966005475E+03 -0.58150896074E+02 -0.21202695382E+02  0.25163155389E+03  0.82119529722E+02 0.  0.
        -13    1    4    4    0    0  0.17905042044E+03 -0.11561887493E+02  0.75022481338E+00  0.17942489554E+03  0.00000000000E+00 0.  1.
         13    1    4    4    0    0  0.50609634309E+02 -0.46589008581E+02 -0.21952920195E+02  0.72206658353E+02  0.00000000000E+00 0. -1.
        -13    1    3    3    0    0 -0.43766994149E+02  0.28474051203E+02 -0.43647217603E+02  0.68054397163E+02  0.00000000000E+00 0.  1.
         13    1    3    3    0    0 -0.13939295233E+03 -0.30869249368E+01  0.16397166632E+02  0.14038800283E+03  0.00000000000E+00 0. -1.
          2    1    1    2  501    0 -0.46500108269E+02  0.32763769808E+02  0.51097745253E+02  0.76463744683E+02  0.00000000000E+00 0. -1.
<scales pt_clust_5="13000.00000" pt_clust_6="13000.00000" pt_clust_7="13000.00000" pt_clust_8="13000.00000" pt_clust_9="56.88343"></scales>
<clustering>
<clus scale="   56.883">  1  9  2 -1</clus>
<clus scale="   82.120">  5  6 -1 -1</clus>
<clus scale="   92.269">  7  8 -1 -1</clus>
<clus scale="  223.144">  1  5  2 -1</clus>
<clus scale="   56.883">  1  5  2 -1</clus>
</clustering>
</event>
<event>
 9    1  0.1464797E-005  0.9411602E+02  0.7546771E-02  0.1293433E+00
         21   -1    0    0  501  502  0.00000000000E+00  0.00000000000E+00  0.59125693740E+02  0.59125693740E+02  0.00000000000E+00 0.  1.
          3   -1    0    0  502    0 -0.00000000000E+00 -0.00000000000E+00 -0.50765937670E+03  0.50765937670E+03  0.00000000000E+00 0. -1.
         23    2    1    2    0    0 -0.17348218864E+02 -0.30324989727E+01 -0.32643290568E+03  0.33933322540E+03  0.90985928613E+02 0.  0.
         23    2    1    2    0    0  0.37730939489E+02  0.54202834503E+01 -0.15803310976E+03  0.18607202711E+03  0.90528074238E+02 0.  0.
        -11    1    4    4    0    0 -0.26640020852E+02  0.31140735066E+01 -0.19080046264E+02  0.32915594029E+02  0.00000000000E+00 0.  1.
         11    1    4    4    0    0  0.64370960342E+02  0.23062099436E+01 -0.13895306349E+03  0.15315643308E+03  0.00000000000E+00 0. -1.
        -11    1    3    3    0    0 -0.52348787893E+02 -0.13740999288E+02 -0.15942179657E+03  0.16835830801E+03  0.00000000000E+00 0.  1.
         11    1    3    3    0    0  0.35000569029E+02  0.10708500315E+02 -0.16701110911E+03  0.17097491739E+03  0.00000000000E+00 0. -1.
          3    1    1    2  501    0 -0.20382720625E+02 -0.23877844776E+01  0.35932332474E+02  0.41379817929E+02  0.00000000000E+00 0. -1.
<scales pt_clust_5="13000.00000" pt_clust_6="13000.00000" pt_clust_7="13000.00000" pt_clust_8="13000.00000" pt_clust_9="20.52211"></scales>
<clustering>
<clus scale="   20.522">  1  9  2 -1</clus>
<clus scale="   90.528">  5  6 -1 -1</clus>
<clus scale="   90.986">  7  8 -1 -1</clus>
<clus scale="   93.673">  1  5  2 -1</clus>
<clus scale="   20.522">  1  5  2 -1</clus>
</clustering>
</event>
<event>
 9    1  0.1464797E-005  0.1028213E+03  0.7546771E-02  0.1274906E+00
         21   -1    0    0  501  502  0.00000000000E+00  0.00000000000E+00  0.56706172431E+02  0.56706172431E+02  0.00000000000E+00 0.  1.
         -1   -1    0    0    0  501 -0.00000000000E+00 -0.00000000000E+00 -0.44138269261E+03  0.44138269261E+03  0.00000000000E+00 0.  1.
         23    2    1    2    0    0  0.25016886359E+02 -0.39427022245E+02 -0.35010826697E+03  0.36475184548E+03  0.91037220368E+02 0.  0.
         23    2    1    2    0    0 -0.41673943448E+02  0.21715279019E+02 -0.20716948370E+02  0.10535448850E+03  0.91989702642E+02 0.  0.
        -11    1    4    4    0    0 -0.63104663623E+02  0.39817411848E+02 -0.20177059971E+02  0.77296433335E+02  0.00000000000E+00 0.  1.
         11    1    4    4    0    0  0.21430720175E+02 -0.18102132829E+02 -0.53988839909E+00  0.28058055166E+02  0.00000000000E+00 0. -1.
        -13    1    3    3    0    0 -0.27486699998E+02  0.62071464819E+01 -0.15670851897E+03  0.15922188060E+03  0.00000000000E+00 0. -1.
         13    1    3    3    0    0  0.52503586358E+02 -0.45634168727E+02 -0.19339974800E+03  0.20552996488E+03  0.00000000000E+00 0.  1.
         -1    1    1    2    0  502  0.16657057089E+02  0.17711743226E+02 -0.13851304843E+02  0.27982531065E+02  0.00000000000E+00 0.  1.
<scales pt_clust_5="13000.00000" pt_clust_6="13000.00000" pt_clust_7="13000.00000" pt_clust_8="13000.00000" pt_clust_9="24.31385"></scales>
<clustering>
<clus scale="   24.314">  1  9  2 -1</clus>
<clus scale="   91.037">  7  8 -1 -1</clus>
<clus scale="   91.990">  5  6 -1 -1</clus>
<clus scale="  101.970">  2  7  1 -1</clus>
<clus scale="   24.314">  1  5  2 -1</clus>
</clustering>
</event>
<event>
 9    1  0.1464797E-005  0.9783064E+02  0.7546771E-02  0.1286900E+00
          1   -1    0    0  502    0 -0.00000000000E+00  0.00000000000E+00  0.15581203388E+03  0.15581203388E+03  0.00000000000E+00 0. -1.
         21   -1    0    0  501  502  0.00000000000E+00 -0.00000000000E+00 -0.16452931835E+03  0.16452931835E+03  0.00000000000E+00 0. -1.
         23    2    1    2    0    0 -0.25350646169E+02  0.22140981631E+02  0.10868730412E+03  0.14739334233E+03  0.93696259047E+02 0.  0.
         23    2    1    2    0    0 -0.63445260186E+01 -0.94014877888E+01 -0.70138828343E+02  0.11463051050E+03  0.89955865362E+02 0.  0.
        -11    1    4    4    0    0  0.31952551773E+02 -0.10947702669E+02 -0.68374103526E+02  0.76261627254E+02  0.00000000000E+00 0.  1.
         11    1    4    4    0    0 -0.38297077791E+02  0.15462148806E+01 -0.17647248175E+01  0.38368883245E+02  0.00000000000E+00 0. -1.
        -13    1    3    3    0    0  0.34340257867E+02  0.10664491137E+02  0.58030191231E+02  0.68267765277E+02  0.00000000000E+00 0.  1.
         13    1    3    3    0    0 -0.59690904036E+02  0.11476490494E+02  0.50657112886E+02  0.79125577057E+02  0.00000000000E+00 0. -1.
          1    1    1    2  501    0  0.31695172188E+02 -0.12739493842E+02 -0.47265760248E+02  0.58317499391E+02  0.00000000000E+00 0. -1.
<scales pt_clust_5="13000.00000" pt_clust_6="13000.00000" pt_clust_7="13000.00000" pt_clust_8="13000.00000" pt_clust_9="34.15961"></scales>
<clustering>
<clus scale="   34.160">  2  9  1 -1</clus>
<clus scale="   89.956">  5  6 -1 -1</clus>
<clus scale="   93.696">  7  8 -1 -1</clus>
<clus scale="   94.254">  2  5  1 -1</clus>
<clus scale="   34.160">  2  5  1 -1</clus>
</clustering>
</event>
<event>
 9    1  0.1464797E-005  0.9388976E+02  0.7546771E-02  0.1298211E+00
          1   -1    0    0  502    0 -0.00000000000E+00  0.00000000000E+00  0.17686734479E+03  0.17686734479E+03  0.00000000000E+00 0. -1.
         21   -1    0    0  501  502  0.00000000000E+00 -0.00000000000E+00 -0.75687251811E+02  0.75687251811E+02  0.00000000000E+00 0.  1.
         23    2    1    2    0    0 -0.24631797366E+02 -0.81389836100E+01  0.66810651839E+02  0.11082401828E+03  0.84530061716E+02 0.  0.
         23    2    1    2    0    0  0.49388594600E+01 -0.25727063769E+02  0.36284476818E+02  0.10250828452E+03  0.92223158671E+02 0.  0.
        -11    1    3    3    0    0  0.26853571362E+02 -0.93333809471E+01  0.26514728564E+01  0.28552698701E+02  0.00000000000E+00 0.  1.
         11    1    3    3    0    0 -0.51485368728E+02  0.11943973371E+01  0.64159178983E+02  0.82271319582E+02  0.00000000000E+00 0. -1.
        -13    1    4    4    0    0 -0.21652209336E+02 -0.52082531600E+02  0.31935496480E+02  0.64817314064E+02  0.00000000000E+00 0. -1.
         13    1    4    4    0    0  0.26591068796E+02  0.26355467831E+02  0.43489803378E+01  0.37690970461E+02  0.00000000000E+00 0.  1.
          1    1    1    2  501    0  0.19692937906E+02  0.33866047379E+02 -0.19150356814E+01  0.39222293789E+02  0.00000000000E+00 0. -1.
<scales pt_clust_5="13000.00000" pt_clust_6="13000.00000" pt_clust_7="13000.00000" pt_clust_8="13000.00000" pt_clust_9="39.17551"></scales>
<clustering>
<clus scale="   39.176">  2  9  1 -1</clus>
<clus scale="   84.530">  5  6 -1 -1</clus>
<clus scale="   86.345">  1  5  2 -1</clus>
<clus scale="   92.223">  7  8 -1 -1</clus>
<clus scale="   39.176">  2  5  1 -1</clus>
</clustering>
</event>
<event>
 9    1  0.1464797E-005  0.1236796E+03  0.7546771E-02  0.1238433E+00
          2   -1    0    0  502    0 -0.00000000000E+00  0.00000000000E+00  0.55510096882E+03  0.55510096882E+03  0.00000000000E+00 0. -1.
         21   -1    0    0  501  502  0.00000000000E+00 -0.00000000000E+00 -0.56808964469E+02  0.56808964469E+02  0.00000000000E+00 0.  1.
         23    2    1    2    0    0  0.64987954954E+02  0.73603112224E+02  0.32742622289E+03  0.35303192790E+03  0.88219942536E+02 0.  0.
         23    2    1    2    0    0 -0.68140131210E+02  0.51557413548E+01  0.91127545196E+02  0.14675717969E+03  0.92540699954E+02 0.  0.
        -13    1    4    4    0    0 -0.72833202675E+02  0.28529839927E+02  0.34841552636E+02  0.85630374098E+02  0.00000000000E+00 0.  1.
         13    1    4    4    0    0  0.46930714643E+01 -0.23374098573E+02  0.56285992560E+02  0.61126805596E+02  0.00000000000E+00 0. -1.
        -13    1    3    3    0    0  0.27136164689E+02  0.33407907628E+02  0.35101905264E+02  0.55539206686E+02  0.00000000000E+00 0.  1.
         13    1    3    3    0    0  0.37851790265E+02  0.40195204596E+02  0.29232431763E+03  0.29749272121E+03  0.00000000000E+00 0. -1.
          2    1    1    2  501    0  0.31521762565E+01 -0.78758853579E+02  0.79738236264E+02  0.11212082570E+03  0.00000000000E+00 0. -1.
<scales pt_clust_5="13000.00000" pt_clust_6="13000.00000" pt_clust_7="13000.00000" pt_clust_8="13000.00000" pt_clust_9="78.82191"></scales>
<clustering>
<clus scale="   78.822">  2  9  1 -1</clus>
<clus scale="   88.220">  7  8 -1 -1</clus>
<clus scale="   92.541">  5  6 -1 -1</clus>
<clus scale="  120.481">  1  7  2 -1</clus>
<clus scale="   78.822">  2  5  1 -1</clus>
</clustering>
</event>
<event>
 9    1  0.1464797E-005  0.1511682E+03  0.7546771E-02  0.1219010E+00
         -1   -1    0    0    0  501 -0.00000000000E+00  0.00000000000E+00  0.19285428336E+03  0.19285428336E+03  0.00000000000E+00 0.  1.
         21   -1    0    0  501  502  0.00000000000E+00 -0.00000000000E+00 -0.22707502229E+03  0.22707502229E+03  0.00000000000E+00 0.  1.
         23    2    1    2    0    0 -0.39875040354E+02 -0.17111145988E+01 -0.30184084417E+02  0.10314210764E+03  0.90190180511E+02 0.  0.
         23    2    1    2    0    0  0.14114929194E+03 -0.49876441886E+02  0.61640243351E+02  0.18551951374E+03  0.90593533461E+02 0.  0.
        -11    1    3    3    0    0 -0.28879259313E+02 -0.34274350502E+02 -0.46944162937E+02  0.64903753009E+02  0.00000000000E+00 0.  1.
         11    1    3    3    0    0 -0.10995781041E+02  0.32563235903E+02  0.16760078520E+02  0.38238354635E+02  0.00000000000E+00 0. -1.
        -13    1    4    4    0    0  0.11664891450E+03 -0.50532616150E+02  0.89868173064E+01  0.12744127053E+03  0.00000000000E+00 0.  1.
         13    1    4    4    0    0  0.24500377443E+02  0.65617426446E+00  0.52653426045E+02  0.58078243205E+02  0.00000000000E+00 0. -1.
         -1    1    1    2    0  502 -0.10127425159E+03  0.51587556485E+02 -0.65676897867E+02  0.13126768427E+03  0.00000000000E+00 0.  1.
<scales pt_clust_5="13000.00000" pt_clust_6="13000.00000" pt_clust_7="13000.00000" pt_clust_8="13000.00000" pt_clust_9="121.01503"></scales>
<clustering>
<clus scale="   90.190">  5  6 -1 -1</clus>
<clus scale="   90.594">  7  8 -1 -1</clus>
<clus scale="   98.627">  1  5  2 -1</clus>
<clus scale="  121.015">  2  9  1 -1</clus>
<clus scale="  121.015">  2  5  1 -1</clus>
</clustering>
</event>
<event>
 9    1  0.1464797E-005  0.1983442E+03  0.7546771E-02  0.1152310E+00
          2   -1    0    0  502    0 -0.00000000000E+00  0.00000000000E+00  0.75241248953E+03  0.75241248953E+03  0.00000000000E+00 0. -1.
         21   -1    0    0  501  502  0.00000000000E+00 -0.00000000000E+00 -0.25579899330E+03  0.25579899330E+03  0.00000000000E+00 0. -1.
         23    2    1    2    0    0  0.17566323137E+03  0.85215843512E+02  0.58787728315E+03  0.62612484211E+03  0.91177338349E+02 0.  0.
         23    2    1    2    0    0 -0.70593826309E+02 -0.95978014787E+02  0.83613560779E+02  0.17778908578E+03  0.10209046891E+03 0.  0.
        -11    1    4    4    0    0 -0.79885061592E+02 -0.37960394155E+02  0.19016175459E+02  0.90466731560E+02  0.00000000000E+00 0.  1.
         11    1    4    4    0    0  0.92912352830E+01 -0.58017620633E+02  0.64597385320E+02  0.87322354224E+02  0.00000000000E+00 0. -1.
        -13    1    3    3    0    0  0.15161726529E+03  0.29245849358E+02  0.43202554248E+03  0.45879100274E+03  0.00000000000E+00 0. -1.
         13    1    3    3    0    0  0.24045966077E+02  0.55969994154E+02  0.15585174067E+03  0.16733383938E+03  0.00000000000E+00 0.  1.
          2    1    1    2  501    0 -0.10506940506E+03  0.10762171275E+02 -0.17487734770E+03  0.20429755492E+03  0.00000000000E+00 0. -1.
<scales pt_clust_5="13000.00000" pt_clust_6="13000.00000" pt_clust_7="13000.00000" pt_clust_8="13000.00000" pt_clust_9="105.61915"></scales>
<clustering>
<clus scale="   91.177">  7  8 -1 -1</clus>
<clus scale="  102.090">  5  6 -1 -1</clus>
<clus scale="  105.619">  2  9  1 -1</clus>
<clus scale="  192.954">  1  7  2 -1</clus>
<clus scale="  105.619">  2  5  1 -1</clus>
</clustering>
</event>
<event>
 9    1  0.1464797E-005  0.1139655E+03  0.7546771E-02  0.1254684E+00
          1   -1    0    0  502    0 -0.00000000000E+00  0.00000000000E+00  0.93836037683E+03  0.93836037683E+03  0.00000000000E+00 0. -1.
         21   -1    0    0  501  502  0.00000000000E+00 -0.00000000000E+00 -0.20275583891E+02  0.20275583891E+02  0.00000000000E+00 0. -1.
         23    2    1    2    0    0 -0.95074844484E+01  0.63645564675E+02  0.52195601705E+03  0.53345372826E+03  0.89407193733E+02 0.  0.
         23    2    1    2    0    0  0.41777907988E+02 -0.60212626913E+02  0.34381266868E+03  0.36361811653E+03  0.92951758942E+02 0.  0.
        -13    1    3    3    0    0  0.38503892567E+02  0.17963238884E+02  0.24670830543E+03  0.25034019985E+03  0.00000000000E+00 0. -1.
         13    1    3    3    0    0 -0.48011377015E+02  0.45682325791E+02  0.27524771162E+03  0.28311352840E+03  0.00000000000E+00 0.  1.
        -13    1    4    4    0    0  0.38470002523E+02  0.15513921725E+02  0.14607076193E+03  0.15184627211E+03  0.00000000000E+00 0.  1.
         13    1    4    4    0    0  0.33079054643E+01 -0.75726548638E+02  0.19774190675E+03  0.21177184443E+03  0.00000000000E+00 0. -1.
          1    1    1    2  501    0 -0.32270423539E+02 -0.34329377615E+01  0.52316107206E+02  0.61564115930E+02  0.00000000000E+00 0. -1.
<scales pt_clust_5="13000.00000" pt_clust_6="13000.00000" pt_clust_7="13000.00000" pt_clust_8="13000.00000" pt_clust_9="32.45251"></scales>
<clustering>
<clus scale="   32.453">  2  9  1 -1</clus>
<clus scale="   89.407">  5  6 -1 -1</clus>
<clus scale="   92.952">  7  8 -1 -1</clus>
<clus scale="  111.093">  1  5  2 -1</clus>
<clus scale="   32.453">  2  5  1 -1</clus>
</clustering>
</event>
<event>
 9    1  0.1464797E-005  0.1739437E+03  0.7546771E-02  0.1173991E+00
          1   -1    0    0  502    0 -0.00000000000E+00  0.00000000000E+00  0.12146339337E+04  0.12146339337E+04  0.00000000000E+00 0. -1.
         21   -1    0    0  501  502  0.00000000000E+00 -0.00000000000E+00 -0.36857576399E+02  0.36857576399E+02  0.00000000000E+00 0. -1.
         23    2    1    2    0    0  0.59559959306E+02 -0.13535673215E+03  0.50664607875E+03  0.53526842607E+03  0.89180744257E+02 0.  0.
         23    2    1    2    0    0 -0.11199201414E+03  0.10828729356E+03  0.39981227727E+03  0.43856262105E+03  0.90658515052E+02 0.  0.
        -11    1    3    3    0    0  0.20825349268E+02 -0.12881919075E+03  0.42645005992E+03  0.44596830906E+03  0.00000000000E+00 0. -1.
         11    1    3    3    0    0  0.38734610038E+02 -0.65375413914E+01  0.80196018824E+02  0.89300117007E+02  0.00000000000E+00 0.  1.
        -11    1    4    4    0    0 -0.59017898241E+02  0.81990789258E+02  0.14335711808E+03  0.17537635285E+03  0.00000000000E+00 0.  1.
         11    1    4    4    0    0 -0.52974115900E+02  0.26296504304E+02  0.25645515919E+03  0.26318626820E+03  0.00000000000E+00 0. -1.
          1    1    1    2  501    0  0.52432054835E+02  0.27069438583E+02  0.27131800131E+03  0.27766046300E+03  0.00000000000E+00 0. -1.
<scales pt_clust_5="13000.00000" pt_clust_6="13000.00000" pt_clust_7="13000.00000" pt_clust_8="13000.00000" pt_clust_9="59.00744"></scales>
<clustering>
<clus scale="   59.007">  2  9  1 -1</clus>
<clus scale="   89.181">  5  6 -1 -1</clus>
<clus scale="   90.659">  7  8 -1 -1</clus>
<clus scale="  173.178">  1  5  2 -1</clus>
<clus scale="   59.007">  2  5  1 -1</clus>
</clustering>
</event>
<event>
 9    1  0.1464797E-005  0.1065074E+03  0.7546771E-02  0.1267451E+00
          1   -1    0    0  502    0 -0.00000000000E+00  0.00000000000E+00  0.73322401039E+03  0.73322401039E+03  0.00000000000E+00 0. -1.
         21   -1    0    0  501  502  0.00000000000E+00 -0.00000000000E+00 -0.43891551839E+02  0.43891551839E+02  0.00000000000E+00 0.  1.
         23    2    1    2    0    0  0.20867850563E+02  0.47616232474E+02  0.54542271374E+03  0.55514998372E+03  0.89458342146E+02 0.  0.
         23    2    1    2    0    0 -0.48652250771E+02 -0.76295886366E+02  0.12404805121E+03  0.17736757053E+03  0.88787568315E+02 0.  0.
        -11    1    3    3    0    0 -0.29354038667E+02  0.43461915203E+02  0.30862270792E+03  0.31304723846E+03  0.00000000000E+00 0.  1.
         11    1    3    3    0    0  0.50221889230E+02  0.41543172710E+01  0.23680000582E+03  0.24210274527E+03  0.00000000000E+00 0. -1.
        -13    1    4    4    0    0 -0.68668386921E+02 -0.76853632953E+02  0.11751215656E+03  0.15630398332E+03  0.00000000000E+00 0.  1.
         13    1    4    4    0    0  0.20016136151E+02  0.55774658693E+00  0.65358946432E+01  0.21063587217E+02  0.00000000000E+00 0. -1.
          1    1    1    2  501    0  0.27784400207E+02  0.28679653893E+02  0.19861693600E+02  0.44598007970E+02  0.00000000000E+00 0. -1.
<scales pt_clust_5="13000.00000" pt_clust_6="13000.00000" pt_clust_7="13000.00000" pt_clust_8="13000.00000" pt_clust_9="39.93113"></scales>
<clustering>
<clus scale="   39.931">  2  9  1 -1</clus>
<clus scale="   88.788">  7  8 -1 -1</clus>
<clus scale="   89.458">  5  6 -1 -1</clus>
<clus scale="  105.945">  2  7  1 -1</clus>
<clus scale="   39.931">  2  5  1 -1</clus>
</clustering>
</event>
<event>
 9    1  0.1464797E-005  0.9710284E+02  0.7546771E-02  0.1287854E+00
         -1   -1    0    0    0  501 -0.00000000000E+00  0.00000000000E+00  0.16624496905E+03  0.16624496905E+03  0.00000000000E+00 0.  1.
         21   -1    0    0  501  502  0.00000000000E+00 -0.00000000000E+00 -0.26584091590E+03  0.26584091590E+03  0.00000000000E+00 0.  1.
         23    2    1    2    0    0 -0.19174253236E+02  0.27728700838E+02  0.85185839615E+02  0.13101409270E+03  0.93656459353E+02 0.  0.
         23    2    1    2    0    0 -0.18097204463E+02 -0.20266400625E+02  0.16247379104E+02  0.96480558589E+02  0.91138822981E+02 0.  0.
        -11    1    3    3    0    0 -0.50115191421E+02 -0.96019887335E+01  0.42177483421E+02  0.66201742474E+02  0.00000000000E+00 0.  1.
         11    1    3    3    0    0  0.30940938186E+02  0.37330689571E+02  0.43008356194E+02  0.64812350229E+02  0.00000000000E+00 0. -1.
        -13    1    4    4    0    0 -0.22103753191E+02 -0.53442694922E+02  0.23259580828E+02  0.62335428497E+02  0.00000000000E+00 0.  1.
         13    1    4    4    0    0  0.40065487278E+01  0.33176294297E+02 -0.70122017238E+01  0.34145130092E+02  0.00000000000E+00 0. -1.
         -1    1    1    2    0  502  0.37271457699E+02 -0.74623002132E+01 -0.20102916556E+03  0.20459123366E+03  0.00000000000E+00 0.  1.
<scales pt_clust_5="13000.00000" pt_clust_6="13000.00000" pt_clust_7="13000.00000" pt_clust_8="13000.00000" pt_clust_9="38.01115"></scales>
<clustering>
<clus scale="   38.011">  2  9  1 -1</clus>
<clus scale="   91.139">  7  8 -1 -1</clus>
<clus scale="   93.656">  5  6 -1 -1</clus>
<clus scale="   94.677">  2  7  1 -1</clus>
<clus scale="   38.011">  2  5  1 -1</clus>
</clustering>
</event>
<event>
 9    1  0.1464797E-005  0.9035491E+02  0.7546771E-02  0.1312429E+00
         -2   -1    0    0    0  501 -0.00000000000E+00  0.00000000000E+00  0.46604198403E+03  0.46604198403E+03  0.00000000000E+00 0.  1.
         21   -1    0    0  501  502  0.00000000000E+00 -0.00000000000E+00 -0.19373905244E+02  0.19373905244E+02  0.00000000000E+00 0. -1.
         23    2    1    2    0    0 -0.15093035698E+02  0.21783355361E+01  0.17947138351E+03  0.19485405687E+03  0.74334252580E+02 0.  0.
         23    2    1    2    0    0 -0.39999976532E+01  0.99923331199E+01  0.19864919346E+03  0.21837160382E+03  0.90048923317E+02 0.  0.
        -11    1    3    3    0    0 -0.31107404555E+02  0.26327823562E+02  0.64569869024E+02  0.76355045003E+02  0.00000000000E+00 0.  1.
         11    1    3    3    0    0  0.16014368856E+02 -0.24149488026E+02  0.11490151449E+03  0.11849901187E+03  0.00000000000E+00 0. -1.
        -11    1    4    4    0    0 -0.31658910269E+02  0.25840472966E+02  0.17210255861E+03  0.17688783826E+03  0.00000000000E+00 0.  1.
         11    1    4    4    0    0  0.27658912616E+02 -0.15848139846E+02  0.26546634852E+02  0.41483765567E+02  0.00000000000E+00 0. -1.
         -2    1    1    2    0  502  0.19093033351E+02 -0.12170668656E+02  0.68547501816E+02  0.72190228586E+02  0.00000000000E+00 0.  1.
<scales pt_clust_5="13000.00000" pt_clust_6="13000.00000" pt_clust_7="13000.00000" pt_clust_8="13000.00000" pt_clust_9="22.64221"></scales>
<clustering>
<clus scale="   22.642">  2  9  1 -1</clus>
<clus scale="   74.334">  5  6 -1 -1</clus>
<clus scale="   74.705">  1  5  2 -1</clus>
<clus scale="   90.049">  7  8 -1 -1</clus>
<clus scale="   22.642">  2  5  1 -1</clus>
</clustering>
</event>
<event>
 9    1  0.1464797E-005  0.9327293E+02  0.7546771E-02  0.1295741E+00
          1   -1    0    0  502    0 -0.00000000000E+00  0.00000000000E+00  0.40825506717E+03  0.40825506717E+03  0.00000000000E+00 0. -1.
         21   -1    0    0  501  502  0.00000000000E+00 -0.00000000000E+00 -0.12884436571E+03  0.12884436571E+03  0.00000000000E+00 0. -1.
         23    2    1    2    0    0  0.19437115244E+02 -0.36343463195E+01  0.30400144164E+03  0.31812656517E+03  0.91633100056E+02 0.  0.
         23    2    1    2    0    0  0.23546947749E+02 -0.28412276692E+01  0.67516794911E+02  0.11712317085E+03  0.92718866649E+02 0.  0.
        -11    1    3    3    0    0  0.17069005978E+02  0.40439527243E+02  0.96961288523E+02  0.10643400679E+03  0.00000000000E+00 0.  1.
         11    1    3    3    0    0  0.23681092652E+01 -0.44073873562E+02  0.20704015312E+03  0.21169255838E+03  0.00000000000E+00 0. -1.
        -11    1    4    4    0    0 -0.21959475827E+02 -0.32000322885E+02  0.14547093398E+02  0.41447040542E+02  0.00000000000E+00 0. -1.
         11    1    4    4    0    0  0.45506423576E+02  0.29159095216E+02  0.52969701513E+02  0.75676130311E+02  0.00000000000E+00 0.  1.
          1    1    1    2  501    0 -0.42984062993E+02  0.64755739888E+01 -0.92107535094E+02  0.10184969686E+03  0.00000000000E+00 0. -1.
<scales pt_clust_5="13000.00000" pt_clust_6="13000.00000" pt_clust_7="13000.00000" pt_clust_8="13000.00000" pt_clust_9="43.46910"></scales>
<clustering>
<clus scale="   43.469">  2  9  1 -1</clus>
<clus scale="   91.633">  5  6 -1 -1</clus>
<clus scale="   92.194">  1  5  2 -1</clus>
<clus scale="   92.719">  7  8 -1 -1</clus>
<clus scale="   43.469">  2  5  1 -1</clus>
</clustering>
</event>
<event>
 9    1  0.1464797E-005  0.1077036E+03  0.7546771E-02  0.1266006E+00
         21   -1    0    0  501  502  0.00000000000E+00  0.00000000000E+00  0.46733227063E+03  0.46733227063E+03  0.00000000000E+00 0.  1.
          3   -1    0    0  502    0 -0.00000000000E+00 -0.00000000000E+00 -0.56996040276E+02  0.56996040276E+02  0.00000000000E+00 0. -1.
         23    2    1    2    0    0 -0.70314377158E+02  0.86305845212E+01  0.49566877388E+02  0.12642154170E+03  0.92233032297E+02 0.  0.
         23    2    1    2    0    0  0.23219529705E+02 -0.30624271707E+02  0.13647246773E+03  0.16766615667E+03  0.89499793683E+02 0.  0.
        -13    1    4    4    0    0 -0.32145482777E+02 -0.26348500580E+02  0.51887370559E+02  0.66482138724E+02  0.00000000000E+00 0.  1.
         13    1    4    4    0    0  0.55365012481E+02 -0.42757711276E+01  0.84585097166E+02  0.10118401795E+03  0.00000000000E+00 0. -1.
        -13    1    3    3    0    0 -0.15075799043E+02 -0.39821047550E+02  0.14274883155E+02  0.44908438337E+02  0.00000000000E+00 0. -1.
         13    1    3    3    0    0 -0.55238578114E+02  0.48451632071E+02  0.35291994233E+02  0.81513103360E+02  0.00000000000E+00 0.  1.
          3    1    1    2  501    0  0.47094847453E+02  0.21993687186E+02  0.22429688524E+03  0.23024061254E+03  0.00000000000E+00 0. -1.
<scales pt_clust_5="13000.00000" pt_clust_6="13000.00000" pt_clust_7="13000.00000" pt_clust_8="13000.00000" pt_clust_9="51.97737"></scales>
<clustering>
<clus scale="   51.977">  1  9  2 -1</clus>
<clus scale="   89.500">  5  6 -1 -1</clus>
<clus scale="   92.233">  7  8 -1 -1</clus>
<clus scale="  105.372">  1  5  2 -1</clus>
<clus scale="   51.977">  1  5  2 -1</clus>
</clustering>
</event>
<event>
 9    1  0.1464797E-005  0.1114027E+03  0.7546771E-02  0.1258260E+00
          3   -1    0    0  502    0 -0.00000000000E+00  0.00000000000E+00  0.48391971347E+03  0.48391971347E+03  0.00000000000E+00 0. -1.
         21   -1    0    0  501  502  0.00000000000E+00 -0.00000000000E+00 -0.47780148563E+02  0.47780148563E+02  0.00000000000E+00 0. -1.
         23    2    1    2    0    0 -0.44445368606E+02  0.49331872404E+02  0.20086519305E+03  0.22971935206E+03  0.89527261249E+02 0.  0.
         23    2    1    2    0    0  0.79182965592E+02 -0.84697915342E+00  0.19991456840E+03  0.23264220009E+03  0.88802585477E+02 0.  0.
        -11    1    4    4    0    0  0.91517376517E+02  0.20396884443E+02  0.16767586608E+03  0.19211105945E+03  0.00000000000E+00 0. -1.
         11    1    4    4    0    0 -0.12334410925E+02 -0.21243863596E+02  0.32238702327E+02  0.40531140634E+02  0.00000000000E+00 0.  1.
        -13    1    3    3    0    0 -0.63653452796E+02  0.61001421514E+02  0.17044787349E+03  0.19189948686E+03  0.00000000000E+00 0. -1.
         13    1    3    3    0    0  0.19208084190E+02 -0.11669549110E+02  0.30417319567E+02  0.37819865208E+02  0.00000000000E+00 0.  1.
          3    1    1    2  501    0 -0.34737596986E+02 -0.48484893250E+02  0.35359803455E+02  0.69338309889E+02  0.00000000000E+00 0. -1.
<scales pt_clust_5="13000.00000" pt_clust_6="13000.00000" pt_clust_7="13000.00000" pt_clust_8="13000.00000" pt_clust_9="59.64466"></scales>
<clustering>
<clus scale="   59.645">  2  9  1 -1</clus>
<clus scale="   88.803">  5  6 -1 -1</clus>
<clus scale="   89.527">  7  8 -1 -1</clus>
<clus scale="  110.821">  2  5  1 -1</clus>
<clus scale="   59.645">  2  5  1 -1</clus>
</clustering>
</event>
<event>
 9    1  0.1464797E-005  0.9691474E+02  0.7546771E-02  0.1287786E+00
          1   -1    0    0  502    0 -0.00000000000E+00  0.00000000000E+00  0.43795577775E+03  0.43795577775E+03  0.00000000000E+00 0. -1.
         21   -1    0    0  501  502  0.00000000000E+00 -0.00000000000E+00 -0.32038725946E+02  0.32038725946E+02  0.00000000000E+00 0. -1.
         23    2    1    2    0    0  0.35249765741E+02  0.15450628062E+02  0.25677478398E+03  0.27551789266E+03  0.92171316570E+02 0.  0.
         23    2    1    2    0    0 -0.15945245809E+02 -0.80970212417E+01  0.14719572477E+03  0.17372741700E+03  0.90525252885E+02 0.  0.
        -11    1    4    4    0    0 -0.53000338919E+02 -0.13800600052E+02  0.88947667098E+02  0.10445659371E+03  0.00000000000E+00 0.  1.
         11    1    4    4    0    0  0.37055093110E+02  0.57035788103E+01  0.58248057677E+02  0.69270823294E+02  0.00000000000E+00 0. -1.
        -13    1    3    3    0    0 -0.18841331851E+02  0.32168095883E+02  0.15111859621E+03  0.15564900352E+03  0.00000000000E+00 0.  1.
         13    1    3    3    0    0  0.54091097592E+02 -0.16717467821E+02  0.10565618778E+03  0.11986888914E+03  0.00000000000E+00 0. -1.
          1    1    1    2  501    0 -0.19304519932E+02 -0.73536068201E+01  0.19465430517E+01  0.20749194030E+02  0.00000000000E+00 0. -1.
<scales pt_clust_5="13000.00000" pt_clust_6="13000.00000" pt_clust_7="13000.00000" pt_clust_8="13000.00000" pt_clust_9="20.65769"></scales>
<clustering>
<clus scale="   20.658">  2  9  1 -1</clus>
<clus scale="   90.525">  5  6 -1 -1</clus>
<clus scale="   92.171">  7  8 -1 -1</clus>
<clus scale="   95.351">  2  5  1 -1</clus>
<clus scale="   20.658">  2  5  1 -1</clus>
</clustering>
</event>
<event>
 9    1  0.1464797E-005  0.1032098E+03  0.7546771E-02  0.1274828E+00
         -3   -1    0    0    0  501 -0.00000000000E+00  0.00000000000E+00  0.57099809313E+03  0.57099809313E+03  0.00000000000E+00 0.  1.
         21   -1    0    0  501  502  0.00000000000E+00 -0.00000000000E+00 -0.23631238952E+02  0.23631238952E+02  0.00000000000E+00 0. -1.
         23    2    1    2    0    0 -0.29959862547E+02  0.30505427523E+02  0.28449779885E+03  0.30125609091E+03  0.89375949150E+02 0.  0.
         23    2    1    2    0    0  0.21011191846E+02 -0.51017416699E+02  0.22803710889E+03  0.25197173275E+03  0.91894418133E+02 0.  0.
        -11    1    3    3    0    0  0.19160622507E+02  0.11639742273E+02  0.15732551331E+02  0.27388432347E+02  0.00000000000E+00 0. -1.
         11    1    3    3    0    0 -0.49120485054E+02  0.18865685250E+02  0.26876524752E+03  0.27386765856E+03  0.00000000000E+00 0.  1.
        -13    1    4    4    0    0  0.13369497026E+02 -0.70733966414E+02  0.21591248240E+03  0.22759665532E+03  0.00000000000E+00 0. -1.
         13    1    4    4    0    0  0.76416948192E+01  0.19716549716E+02  0.12124626496E+02  0.24375077437E+02  0.00000000000E+00 0.  1.
         -3    1    1    2    0  502  0.89486707012E+01  0.20511989176E+02  0.34831946438E+02  0.41401508426E+02  0.00000000000E+00 0.  1.
<scales pt_clust_5="13000.00000" pt_clust_6="13000.00000" pt_clust_7="13000.00000" pt_clust_8="13000.00000" pt_clust_9="22.37902"></scales>
<clustering>
<clus scale="   22.379">  2  9  1 -1</clus>
<clus scale="   89.376">  5  6 -1 -1</clus>
<clus scale="   91.894">  7  8 -1 -1</clus>
<clus scale="  100.974">  1  5  2 -1</clus>
<clus scale="   22.379">  2  5  1 -1</clus>
</clustering>
</event>
<event>
 9    1  0.1464797E-005  0.1126564E+03  0.7546771E-02  0.1255799E+00
          1   -1    0    0  502    0 -0.00000000000E+00  0.00000000000E+00  0.18282206416E+03  0.18282206416E+03  0.00000000000E+00 0. -1.
         21   -1    0    0  501  502  0.00000000000E+00 -0.00000000000E+00 -0.12006886077E+03  0.12006886077E+03  0.00000000000E+00 0.  1.
         23    2    1    2    0    0 -0.56735414938E+02  0.43368115053E+02  0.10214877083E+03  0.15367686393E+03  0.89902760888E+02 0.  0.
         23    2    1    2    0    0  0.58074770418E+02 -0.19904581856E+02 -0.70790459093E+01  0.10925547209E+03  0.90098690078E+02 0.  0.
        -13    1    3    3    0    0 -0.36984435815E+02  0.54294920810E+02  0.11136331432E+03  0.12929646049E+03  0.00000000000E+00 0. -1.
         13    1    3    3    0    0 -0.19750979123E+02 -0.10926805757E+02 -0.92145434933E+01  0.24380403445E+02  0.00000000000E+00 0.  1.
        -13    1    4    4    0    0  0.13959875422E+02 -0.52338116753E+02 -0.59003299697E+01  0.54488260027E+02  0.00000000000E+00 0.  1.
         13    1    4    4    0    0  0.44114894995E+02  0.32433534897E+02 -0.11787159396E+01  0.54767212067E+02  0.00000000000E+00 0. -1.
          1    1    1    2  501    0 -0.13393554792E+01 -0.23463533197E+02 -0.32316521530E+02  0.39958588901E+02  0.00000000000E+00 0. -1.
<scales pt_clust_5="13000.00000" pt_clust_6="13000.00000" pt_clust_7="13000.00000" pt_clust_8="13000.00000" pt_clust_9="23.50173"></scales>
<clustering>
<clus scale="   23.502">  2  9  1 -1</clus>
<clus scale="   89.903">  5  6 -1 -1</clus>
<clus scale="   90.099">  7  8 -1 -1</clus>
<clus scale="  112.500">  1  5  2 -1</clus>
<clus scale="   23.502">  2  5  1 -1</clus>
</clustering>
</event>
<event>
 9    1  0.1464797E-005  0.1276265E+03  0.7546771E-02  0.1231449E+00
         21   -1    0    0  501  502  0.00000000000E+00  0.00000000000E+00  0.23528465225E+03  0.23528465225E+03  0.00000000000E+00 0. -1.
         -1   -1    0    0    0  501 -0.00000000000E+00 -0.00000000000E+00 -0.90925942733E+02  0.90925942733E+02  0.00000000000E+00 0.  1.
         23    2    1    2    0    0 -0.37855727480E+02 -0.88998520104E+02  0.36165967722E+02  0.13730559739E+03  0.90504459395E+02 0.  0.
         23    2    1    2    0    0  0.43463363492E+02  0.66766061111E+02  0.60425645247E+02  0.13591987395E+03  0.92066186239E+02 0.  0.
        -11    1    3    3    0    0 -0.13314702363E+01 -0.95324115741E+02  0.27820031275E+02  0.99309687317E+02  0.00000000000E+00 0.  1.
         11    1    3    3    0    0 -0.36524257244E+02  0.63255956365E+01  0.83459364462E+01  0.37995910076E+02  0.00000000000E+00 0. -1.
        -13    1    4    4    0    0  0.23062204067E+02  0.27790104069E+02 -0.22144216499E+02  0.42361792513E+02  0.00000000000E+00 0.  1.
         13    1    4    4    0    0  0.20401159425E+02  0.38975957042E+02  0.82569861746E+02  0.93558081436E+02  0.00000000000E+00 0. -1.
         -1    1    1    2    0  502 -0.56076360119E+01  0.22232458993E+02  0.47767096548E+02  0.52985123640E+02  0.00000000000E+00 0.  1.
<scales pt_clust_5="13000.00000" pt_clust_6="13000.00000" pt_clust_7="13000.00000" pt_clust_8="13000.00000" pt_clust_9="22.92876"></scales>
<clustering>
<clus scale="   22.929">  1  9  2 -1</clus>
<clus scale="   90.504">  5  6 -1 -1</clus>
<clus scale="   92.066">  7  8 -1 -1</clus>
<clus scale="  126.505">  2  5  1 -1</clus>
<clus scale="   22.929">  1  5  2 -1</clus>
</clustering>
</event>
<event>
 9    1  0.1464797E-005  0.1223695E+03  0.7546771E-02  0.1242210E+00
         -1   -1    0    0    0  501 -0.00000000000E+00  0.00000000000E+00  0.50598035557E+02  0.50598035557E+02  0.00000000000E+00 0.  1.
         21   -1    0    0  501  502  0.00000000000E+00 -0.00000000000E+00 -0.41947523984E+03  0.41947523984E+03  0.00000000000E+00 0.  1.
         23    2    1    2    0    0 -0.16949839869E+02 -0.78838214497E+02 -0.10312581263E+03  0.15448270487E+03  0.82019581430E+02 0.  0.
         23    2    1    2    0    0  0.21685262641E+02  0.10164038908E+03 -0.14220228519E+03  0.18986569190E+03  0.70897614495E+02 0.  0.
        -11    1    4    4    0    0  0.29750697595E+02  0.12341524159E+02 -0.18686545783E+02  0.37237134950E+02  0.00000000000E+00 0. -1.
         11    1    4    4    0    0 -0.80654349537E+01  0.89298864924E+02 -0.12351573940E+03  0.15262855695E+03  0.00000000000E+00 0.  1.
        -13    1    3    3    0    0 -0.44223372362E+02 -0.18032505314E+02 -0.35237088060E+02  0.59350908047E+02  0.00000000000E+00 0.  1.
         13    1    3    3    0    0  0.27273532493E+02 -0.60805709183E+02 -0.67888724565E+02  0.95131796824E+02  0.00000000000E+00 0. -1.
         -1    1    1    2    0  502 -0.47354227719E+01 -0.22802174587E+02 -0.12354910647E+03  0.12572487862E+03  0.00000000000E+00 0.  1.
<scales pt_clust_5="13000.00000" pt_clust_6="13000.00000" pt_clust_7="13000.00000" pt_clust_8="13000.00000" pt_clust_9="23.28870"></scales>
<clustering>
<clus scale="   23.289">  2  9  1 -1</clus>
<clus scale="   70.898">  5  6 -1 -1</clus>
<clus scale="   82.020">  7  8 -1 -1</clus>
<clus scale="  115.211">  2  5  1 -1</clus>
<clus scale="   23.289">  2  5  1 -1</clus>
</clustering>
</event>
<event>
 9    1  0.1464797E-005  0.9508566E+02  0.7546771E-02  0.1291293E+00
         21   -1    0    0  501  502  0.00000000000E+00  0.00000000000E+00  0.31758405109E+02  0.31758405109E+02  0.00000000000E+00 0.  1.
          1   -1    0    0  502    0 -0.00000000000E+00 -0.00000000000E+00 -0.48822706430E+03  0.48822706430E+03  0.00000000000E+00 0. -1.
         23    2    1    2    0    0  0.18928105482E+01 -0.19791508060E+02 -0.32698057919E+03  0.34023247511E+03  0.91905121895E+02 0.  0.
         23    2    1    2    0    0  0.15182527278E+02  0.37429445467E+02 -0.10837688389E+03  0.14737481339E+03  0.91336269556E+02 0.  0.
        -13    1    4    4    0    0 -0.31666203398E+02  0.19876479133E+02 -0.12839065574E+02  0.39530551036E+02  0.00000000000E+00 0.  1.
         13    1    4    4    0    0  0.46848730676E+02  0.17552966334E+02 -0.95537818321E+02  0.10784426235E+03  0.00000000000E+00 0. -1.
        -13    1    3    3    0    0 -0.79745482009E+01  0.34511375648E+02 -0.85929047557E+02  0.92943152960E+02  0.00000000000E+00 0.  1.
         13    1    3    3    0    0  0.98673587491E+01 -0.54302883708E+02 -0.24105153164E+03  0.24728932215E+03  0.00000000000E+00 0. -1.
          1    1    1    2  501    0 -0.17075337826E+02 -0.17637937407E+02 -0.21111196107E+02  0.32378180908E+02  0.00000000000E+00 0. -1.
<scales pt_clust_5="13000.00000" pt_clust_6="13000.00000" pt_clust_7="13000.00000" pt_clust_8="13000.00000" pt_clust_9="24.54922"></scales>
<clustering>
<clus scale="   24.549">  1  9  2 -1</clus>
<clus scale="   91.336">  5  6 -1 -1</clus>
<clus scale="   91.905">  7  8 -1 -1</clus>
<clus scale="   94.536">  1  5  2 -1</clus>
<clus scale="   24.549">  1  5  2 -1</clus>
</clustering>
</event>
<event>
 9    1  0.1464797E-005  0.1043677E+03  0.7546771E-02  0.1271523E+00
         21   -1    0    0  501  502  0.00000000000E+00  0.00000000000E+00  0.12165331213E+03  0.12165331213E+03  0.00000000000E+00 0.  1.
          1   -1    0    0  502    0 -0.00000000000E+00 -0.00000000000E+00 -0.16296540554E+03  0.16296540554E+03  0.00000000000E+00 0. -1.
         23    2    1    2    0    0  0.44986922888E+02 -0.76522430793E+01 -0.72352819125E+02  0.12478231413E+03  0.90847759632E+02 0.  0.
         23    2    1    2    0    0 -0.62077374734E+02 -0.14277307713E+02 -0.84254396929E+01  0.11156045761E+03  0.91199263701E+02 0.  0.
        -11    1    4    4    0    0 -0.56177431892E+02  0.14983350080E+02 -0.38066220194E+02  0.69494185034E+02  0.00000000000E+00 0.  1.
         11    1    4    4    0    0 -0.58999428417E+01 -0.29260657794E+02  0.29640780501E+02  0.42066272580E+02  0.00000000000E+00 0. -1.
        -11    1    3    3    0    0 -0.12489484981E+02 -0.29559033229E+02 -0.32254047169E+01  0.32250998684E+02  0.00000000000E+00 0.  1.
         11    1    3    3    0    0  0.57476407869E+02  0.21906790150E+02 -0.69127414408E+02  0.92531315450E+02  0.00000000000E+00 0. -1.
          1    1    1    2  501    0  0.17090451846E+02  0.21929550793E+02  0.39466165405E+02  0.48275945916E+02  0.00000000000E+00 0. -1.
<scales pt_clust_5="13000.00000" pt_clust_6="13000.00000" pt_clust_7="13000.00000" pt_clust_8="13000.00000" pt_clust_9="27.80268"></scales>
<clustering>
<clus scale="   27.803">  1  9  2 -1</clus>
<clus scale="   90.848">  7  8 -1 -1</clus>
<clus scale="   91.199">  5  6 -1 -1</clus>
<clus scale="  104.061">  2  7  1 -1</clus>
<clus scale="   27.803">  1  5  2 -1</clus>
</clustering>
</event>
<event>
 9    1  0.1464797E-005  0.9069945E+02  0.7546771E-02  0.1306691E+00
          1   -1    0    0  502    0 -0.00000000000E+00  0.00000000000E+00  0.11558146793E+03  0.11558146793E+03  0.00000000000E+00 0. -1.
         21   -1    0    0  501  502  0.00000000000E+00 -0.00000000000E+00 -0.15138411807E+03  0.15138411807E+03  0.00000000000E+00 0.  1.
         23    2    1    2    0    0  0.11462438968E+02 -0.40484151571E-01  0.73070220129E+02  0.11009871829E+03  0.81554163308E+02 0.  0.
         23    2    1    2    0    0  0.90801589527E+01 -0.27787410410E+01 -0.78238367791E+02  0.11987471852E+03  0.90324610480E+02 0.  0.
        -13    1    4    4    0    0  0.27628317207E+02 -0.35602733010E+02 -0.66605577980E+02  0.80418788398E+02  0.00000000000E+00 0.  1.
         13    1    4    4    0    0 -0.18548158254E+02  0.32823991969E+02 -0.11632789812E+02  0.39455930127E+02  0.00000000000E+00 0. -1.
        -13    1    3    3    0    0  0.44512014952E+02  0.71121052238E+01  0.56971274326E+02  0.72647282222E+02  0.00000000000E+00 0.  1.
         13    1    3    3    0    0 -0.33049575984E+02 -0.71525893754E+01  0.16098945802E+02  0.37451436066E+02  0.00000000000E+00 0. -1.
          1    1    1    2  501    0 -0.20542597921E+02  0.28192251925E+01 -0.30634502470E+02  0.36992149189E+02  0.00000000000E+00 0. -1.
<scales pt_clust_5="13000.00000" pt_clust_6="13000.00000" pt_clust_7="13000.00000" pt_clust_8="13000.00000" pt_clust_9="20.73515"></scales>
<clustering>
<clus scale="   20.735">  2  9  1 -1</clus>
<clus scale="   81.554">  7  8 -1 -1</clus>
<clus scale="   81.969">  1  7  2 -1</clus>
<clus scale="   90.325">  5  6 -1 -1</clus>
<clus scale="   20.735">  2  5  1 -1</clus>
</clustering>
</event>
<event>
 9    1  0.1464797E-005  0.1015549E+03  0.7546771E-02  0.1278585E+00
         21   -1    0    0  501  502  0.00000000000E+00  0.00000000000E+00  0.12679284836E+03  0.12679284836E+03  0.00000000000E+00 0.  1.
          1   -1    0    0  502    0 -0.00000000000E+00 -0.00000000000E+00 -0.10741312173E+03  0.10741312173E+03  0.00000000000E+00 0. -1.
         23    2    1    2    0    0 -0.23331153895E+02 -0.41040742390E+02  0.20242259166E+01  0.10028742375E+03  0.88457812510E+02 0.  0.
         23    2    1    2    0    0 -0.55949647619E+01  0.44368149836E+02  0.45861800120E+01  0.10212471782E+03  0.91698356543E+02 0.  0.
        -11    1    4    4    0    0 -0.36930583752E+02  0.15531578416E+02  0.32174963266E+02  0.51384104600E+02  0.00000000000E+00 0.  1.
         11    1    4    4    0    0  0.31335618990E+02  0.28836571420E+02 -0.27588783254E+02  0.50740613223E+02  0.00000000000E+00 0. -1.
        -13    1    3    3    0    0 -0.19446924555E+02 -0.62623585060E+02 -0.20645240962E+02  0.68746798142E+02  0.00000000000E+00 0.  1.
         13    1    3    3    0    0 -0.38842293408E+01  0.21582842670E+02  0.22669466878E+02  0.31540625609E+02  0.00000000000E+00 0. -1.
          1    1    1    2  501    0  0.28926118657E+02 -0.33274074459E+01  0.12769320700E+02  0.31793828521E+02  0.00000000000E+00 0. -1.
<scales pt_clust_5="13000.00000" pt_clust_6="13000.00000" pt_clust_7="13000.00000" pt_clust_8="13000.00000" pt_clust_9="29.11687"></scales>
<clustering>
<clus scale="   29.117">  1  9  2 -1</clus>
<clus scale="   88.458">  7  8 -1 -1</clus>
<clus scale="   91.698">  5  6 -1 -1</clus>
<clus scale="   98.639">  2  7  1 -1</clus>
<clus scale="   29.117">  1  5  2 -1</clus>
</clustering>
</event>
<event>
 9    1  0.1464797E-005  0.1038590E+03  0.7546771E-02  0.1273511E+00
         -3   -1    0    0    0  501 -0.00000000000E+00  0.00000000000E+00  0.47511660365E+03  0.47511660365E+03  0.00000000000E+00 0.  1.
         21   -1    0    0  501  502  0.00000000000E+00 -0.00000000000E+00 -0.54192286607E+02  0.54192286607E+02  0.00000000000E+00 0.  1.
         23    2    1    2    0    0  0.51962004363E+02  0.39604421019E+02  0.25530515606E+03  0.27849763005E+03  0.90064683269E+02 0.  0.
         23    2    1    2    0    0 -0.36119102024E+02 -0.15057181663E+02  0.18997147227E+03  0.21277707060E+03  0.87484931554E+02 0.  0.
        -13    1    3    3    0    0  0.67339162372E+02  0.25278599539E+02  0.24451185109E+03  0.25487176326E+03  0.00000000000E+00 0.  1.
         13    1    3    3    0    0 -0.15377158009E+02  0.14325821480E+02  0.10793304968E+02  0.23625866792E+02  0.00000000000E+00 0. -1.
        -13    1    4    4    0    0 -0.42101883649E+02  0.24177486076E+02  0.61730805246E+02  0.78535417208E+02  0.00000000000E+00 0. -1.
         13    1    4    4    0    0  0.59827816254E+01 -0.39234667738E+02  0.12824066702E+03  0.13424165339E+03  0.00000000000E+00 0.  1.
         -3    1    1    2    0  502 -0.15842902339E+02 -0.24547239357E+02 -0.24352311277E+02  0.38034189608E+02  0.00000000000E+00 0.  1.
<scales pt_clust_5="13000.00000" pt_clust_6="13000.00000" pt_clust_7="13000.00000" pt_clust_8="13000.00000" pt_clust_9="29.21583"></scales>
<clustering>
<clus scale="   29.216">  2  9  1 -1</clus>
<clus scale="   87.485">  7  8 -1 -1</clus>
<clus scale="   90.065">  5  6 -1 -1</clus>
<clus scale="  101.630">  2  7  1 -1</clus>
<clus scale="   29.216">  2  5  1 -1</clus>
</clustering>
</event>
<event>
 9    1  0.1464797E-005  0.9402927E+02  0.7546771E-02  0.1298654E+00
          1   -1    0    0  502    0 -0.00000000000E+00  0.00000000000E+00  0.12369787004E+03  0.12369787004E+03  0.00000000000E+00 0. -1.
         21   -1    0    0  501  502  0.00000000000E+00 -0.00000000000E+00 -0.30867726210E+03  0.30867726210E+03  0.00000000000E+00 0.  1.
         23    2    1    2    0    0 -0.15200284799E+02 -0.34493684058E+02  0.27811724071E+02  0.96286258481E+02  0.84123056760E+02 0.  0.
         23    2    1    2    0    0  0.93091849343E+01 -0.28887060787E+02  0.15538533843E+02  0.99052477869E+02  0.92999054473E+02 0.  0.
        -13    1    3    3    0    0 -0.37315174436E+02  0.33261789272E+01  0.35724825053E+02  0.51766290523E+02  0.00000000000E+00 0. -1.
         13    1    3    3    0    0  0.22114889637E+02 -0.37819862985E+02 -0.79131009821E+01  0.44519967959E+02  0.00000000000E+00 0.  1.
        -13    1    4    4    0    0 -0.20162189254E+02 -0.54863603315E+02  0.72115258678E+01  0.58894269242E+02  0.00000000000E+00 0.  1.
         13    1    4    4    0    0  0.29471374188E+02  0.25976542529E+02  0.83270079751E+01  0.40158208627E+02  0.00000000000E+00 0. -1.
          1    1    1    2  501    0  0.58910998642E+01  0.63380744845E+02 -0.22832964997E+03  0.23703639579E+03  0.00000000000E+00 0. -1.
<scales pt_clust_5="13000.00000" pt_clust_6="13000.00000" pt_clust_7="13000.00000" pt_clust_8="13000.00000" pt_clust_9="63.65394"></scales>
<clustering>
<clus scale="   63.654">  2  9  1 -1</clus>
<clus scale="   84.123">  5  6 -1 -1</clus>
<clus scale="   85.261">  1  5  2 -1</clus>
<clus scale="   92.999">  7  8 -1 -1</clus>
<clus scale="   63.654">  2  5  1 -1</clus>
</clustering>
</event>
<event>
 9    1  0.1464797E-005  0.1015443E+03  0.7546771E-02  0.1277092E+00
          2   -1    0    0  502    0 -0.00000000000E+00  0.00000000000E+00  0.45654728913E+03  0.45654728913E+03  0.00000000000E+00 0. -1.
         21   -1    0    0  501  502  0.00000000000E+00 -0.00000000000E+00 -0.63858823436E+02  0.63858823436E+02  0.00000000000E+00 0.  1.
         23    2    1    2    0    0  0.43372098805E+02 -0.10432494125E+02  0.32076009109E+03  0.33648768067E+03  0.91361629370E+02 0.  0.
         23    2    1    2    0    0 -0.47471349953E+02 -0.33262399095E+02  0.85601376112E+02  0.13795106821E+03  0.91339943987E+02 0.  0.
        -11    1    4    4    0    0  0.91872554654E+01 -0.20632707434E+02 -0.11098714450E+02  0.25165367899E+02  0.00000000000E+00 0.  1.
         11    1    4    4    0    0 -0.56658605419E+02 -0.12629691661E+02  0.96700090562E+02  0.11278570031E+03  0.00000000000E+00 0. -1.
        -13    1    3    3    0    0 -0.21264823495E+02 -0.25473243083E+02  0.14147136752E+03  0.14531079334E+03  0.00000000000E+00 0.  1.
         13    1    3    3    0    0  0.64636922300E+02  0.15040748957E+02  0.17928872357E+03  0.19117688734E+03  0.00000000000E+00 0. -1.
          2    1    1    2  501    0  0.40992511485E+01  0.43694893221E+02 -0.13673001509E+02  0.45967363681E+02  0.00000000000E+00 0. -1.
<scales pt_clust_5="13000.00000" pt_clust_6="13000.00000" pt_clust_7="13000.00000" pt_clust_8="13000.00000" pt_clust_9="43.88676"></scales>
<clustering>
<clus scale="   43.887">  2  9  1 -1</clus>
<clus scale="   91.340">  5  6 -1 -1</clus>
<clus scale="   91.362">  7  8 -1 -1</clus>
<clus scale="  101.525">  2  5  1 -1</clus>
<clus scale="   43.887">  2  5  1 -1</clus>
</clustering>
</event>
<event>
 9    1  0.1464797E-005  0.1546012E+03  0.7546771E-02  0.1194949E+00
          2   -1    0    0  502    0 -0.00000000000E+00  0.00000000000E+00  0.50824406008E+03  0.50824406008E+03  0.00000000000E+00 0. -1.
         21   -1    0    0  501  502  0.00000000000E+00 -0.00000000000E+00 -0.71377701212E+02  0.71377701212E+02  0.00000000000E+00 0.  1.
         23    2    1    2    0    0  0.90687551355E+02  0.95799818855E+02  0.26294035768E+03  0.30799718736E+03  0.91229372769E+02 0.  0.
         23    2    1    2    0    0 -0.10079646843E+03 -0.62252004299E+02  0.18208099554E+03  0.23565027758E+03  0.91336325179E+02 0.  0.
        -11    1    3    3    0    0  0.75643529291E+02  0.28567212984E+02  0.19561733326E+03  0.21166995595E+03  0.00000000000E+00 0. -1.
         11    1    3    3    0    0  0.15044022063E+02  0.67232605871E+02  0.67323024427E+02  0.96327231404E+02  0.00000000000E+00 0.  1.
        -11    1    4    4    0    0 -0.20906447980E+02 -0.59873040193E+02  0.11490409475E+03  0.13124332935E+03  0.00000000000E+00 0. -1.
         11    1    4    4    0    0 -0.79890020446E+02 -0.23789641060E+01  0.67176900790E+02  0.10440694822E+03  0.00000000000E+00 0.  1.
          2    1    1    2  501    0  0.10108917072E+02 -0.33547814556E+02 -0.81549943577E+01  0.35974296363E+02  0.00000000000E+00 0. -1.
<scales pt_clust_5="13000.00000" pt_clust_6="13000.00000" pt_clust_7="13000.00000" pt_clust_8="13000.00000" pt_clust_9="35.03778"></scales>
<clustering>
<clus scale="   35.038">  2  9  1 -1</clus>
<clus scale="   91.229">  5  6 -1 -1</clus>
<clus scale="   91.336">  7  8 -1 -1</clus>
<clus scale="  154.538">  1  5  2 -1</clus>
<clus scale="   35.038">  2  5  1 -1</clus>
</clustering>
</event>
<event>
 9    1  0.1464797E-005  0.1070457E+03  0.7546771E-02  0.1270546E+00
         21   -1    0    0  501  502  0.00000000000E+00  0.00000000000E+00  0.54104585884E+02  0.54104585884E+02  0.00000000000E+00 0.  1.
          2   -1    0    0  502    0 -0.00000000000E+00 -0.00000000000E+00 -0.73339546489E+03  0.73339546489E+03  0.00000000000E+00 0. -1.
         23    2    1    2    0    0 -0.35716228556E+02  0.41971361581E+02 -0.59923258268E+03  0.60837267282E+03  0.89444824940E+02 0.  0.
         23    2    1    2    0    0  0.44372499093E+02 -0.80144111837E+02 -0.55681560250E+02  0.13301539314E+03  0.78744278032E+02 0.  0.
        -13    1    3    3    0    0 -0.62571041706E+02  0.46271525382E+02 -0.45143696096E+03  0.45809553485E+03  0.00000000000E+00 0.  1.
         13    1    3    3    0    0  0.26854813150E+02 -0.43001638009E+01 -0.14779562172E+03  0.15027713797E+03  0.00000000000E+00 0. -1.
        -13    1    4    4    0    0  0.21012808629E+02 -0.89809131092E+02 -0.30029614204E+02  0.96999978779E+02  0.00000000000E+00 0.  1.
         13    1    4    4    0    0  0.23359690464E+02  0.96650192545E+01 -0.25651946045E+02  0.36015414362E+02  0.00000000000E+00 0. -1.
          2    1    1    2  501    0 -0.86562705367E+01  0.38172750256E+02 -0.24376736070E+02  0.46111984810E+02  0.00000000000E+00 0. -1.
<scales pt_clust_5="13000.00000" pt_clust_6="13000.00000" pt_clust_7="13000.00000" pt_clust_8="13000.00000" pt_clust_9="39.14192"></scales>
<clustering>
<clus scale="   39.142">  1  9  2 -1</clus>
<clus scale="   78.744">  7  8 -1 -1</clus>
<clus scale="   89.445">  5  6 -1 -1</clus>
<clus scale="   98.281">  1  7  2 -1</clus>
<clus scale="   39.142">  1  5  2 -1</clus>
</clustering>
</event>
<event>
 9    1  0.1464797E-005  0.1209463E+03  0.7546771E-02  0.1243785E+00
          2   -1    0    0  502    0 -0.00000000000E+00  0.00000000000E+00  0.37011491292E+03  0.37011491292E+03  0.00000000000E+00 0. -1.
         21   -1    0    0  501  502  0.00000000000E+00 -0.00000000000E+00 -0.81574002528E+02  0.81574002528E+02  0.00000000000E+00 0. -1.
         23    2    1    2    0    0  0.64952780684E+02  0.73194906130E+02  0.21723920514E+03  0.25770997908E+03  0.98209994731E+02 0.  0.
         23    2    1    2    0    0 -0.41458955862E+02 -0.93266771081E+01  0.75143244652E+02  0.12581833258E+03  0.91530943781E+02 0.  0.
        -11    1    3    3    0    0  0.35981153611E+02  0.94883483720E+02  0.17286427893E+03  0.20044844182E+03  0.00000000000E+00 0. -1.
         11    1    3    3    0    0  0.28971627074E+02 -0.21688577590E+02  0.44374926214E+02  0.57261537262E+02  0.00000000000E+00 0.  1.
        -13    1    4    4    0    0  0.81703960312E+01  0.33947063688E+02  0.22786607805E+02  0.41693980376E+02  0.00000000000E+00 0. -1.
         13    1    4    4    0    0 -0.49629351893E+02 -0.43273740796E+02  0.52356636847E+02  0.84124352204E+02  0.00000000000E+00 0.  1.
          2    1    1    2  501    0 -0.23493824822E+02 -0.63868229022E+02 -0.38415394052E+01  0.68160603784E+02  0.00000000000E+00 0. -1.
<scales pt_clust_5="13000.00000" pt_clust_6="13000.00000" pt_clust_7="13000.00000" pt_clust_8="13000.00000" pt_clust_9="68.05226"></scales>
<clustering>
<clus scale="   68.052">  2  9  1 -1</clus>
<clus scale="   91.531">  7  8 -1 -1</clus>
<clus scale="   98.210">  5  6 -1 -1</clus>
<clus scale="  115.589">  2  7  1 -1</clus>
<clus scale="   68.052">  2  5  1 -1</clus>
</clustering>
</event>
<event>
 9    1  0.1464797E-005  0.1192243E+03  0.7546771E-02  0.1244543E+00
          1   -1    0    0  502    0 -0.00000000000E+00  0.00000000000E+00  0.21821223995E+03  0.21821223995E+03  0.00000000000E+00 0. -1.
         21   -1    0    0  501  502  0.00000000000E+00 -0.00000000000E+00 -0.10697723567E+03  0.10697723567E+03  0.00000000000E+00 0. -1.
         23    2    1    2    0    0 -0.58179308017E+02  0.62359594617E+02  0.97668125879E+02  0.15779606240E+03  0.89927657441E+02 0.  0.
         23    2    1    2    0    0  0.70818702875E+02 -0.19095767368E+02  0.28558098933E+02  0.11989341592E+03  0.90437432289E+02 0.  0.
        -11    1    3    3    0    0 -0.20835583725E+02  0.79672720430E+02  0.71156215709E+02  0.10883506312E+03  0.00000000000E+00 0. -1.
         11    1    3    3    0    0 -0.37343724292E+02 -0.17313125813E+02  0.26511910170E+02  0.48960999278E+02  0.00000000000E+00 0.  1.
        -13    1    4    4    0    0  0.22129104615E+01  0.21172674099E+02 -0.17862427624E+02  0.27789304090E+02  0.00000000000E+00 0.  1.
         13    1    4    4    0    0  0.68605792414E+02 -0.40268441467E+02  0.46420526557E+02  0.92104111834E+02  0.00000000000E+00 0. -1.
          1    1    1    2  501    0 -0.12639394859E+02 -0.43263827249E+02 -0.14991220527E+02  0.47499997300E+02  0.00000000000E+00 0. -1.
<scales pt_clust_5="13000.00000" pt_clust_6="13000.00000" pt_clust_7="13000.00000" pt_clust_8="13000.00000" pt_clust_9="45.07231"></scales>
<clustering>
<clus scale="   45.072">  2  9  1 -1</clus>
<clus scale="   89.928">  5  6 -1 -1</clus>
<clus scale="   90.437">  7  8 -1 -1</clus>
<clus scale="  118.838">  1  5  2 -1</clus>
<clus scale="   45.072">  2  5  1 -1</clus>
</clustering>
</event>
<event>
 9    1  0.1464797E-005  0.2095368E+03  0.7546771E-02  0.1142114E+00
         21   -1    0    0  501  502  0.00000000000E+00  0.00000000000E+00  0.19660099606E+03  0.19660099606E+03  0.00000000000E+00 0. -1.
          2   -1    0    0  502    0 -0.00000000000E+00 -0.00000000000E+00 -0.57525660870E+03  0.57525660870E+03  0.00000000000E+00 0. -1.
         23    2    1    2    0    0 -0.17703073389E+03 -0.77162370808E+02 -0.47748640191E+03  0.52282059854E+03  0.89745206196E+02 0.  0.
         23    2    1    2    0    0  0.15160319876E+03  0.73614847733E+02  0.54153049569E+02  0.19750793784E+03  0.87602266231E+02 0.  0.
        -11    1    3    3    0    0 -0.13099290783E+02 -0.34828600818E+02 -0.45108964657E+02  0.58475991196E+02  0.00000000000E+00 0.  1.
         11    1    3    3    0    0 -0.16393144311E+03 -0.42333769990E+02 -0.43237743726E+03  0.46434460734E+03  0.00000000000E+00 0. -1.
        -13    1    4    4    0    0  0.11810311826E+03  0.13900500202E+02  0.18619376517E+02  0.12036715345E+03  0.00000000000E+00 0. -1.
         13    1    4    4    0    0  0.33500080505E+02  0.59714347531E+02  0.35533673052E+02  0.77140784384E+02  0.00000000000E+00 0.  1.
          2    1    1    2  501    0  0.25427535126E+02  0.35475230757E+01  0.44677739710E+02  0.51529068380E+02  0.00000000000E+00 0. -1.
<scales pt_clust_5="13000.00000" pt_clust_6="13000.00000" pt_clust_7="13000.00000" pt_clust_8="13000.00000" pt_clust_9="25.67381"></scales>
<clustering>
<clus scale="   25.674">  1  9  2 -1</clus>
<clus scale="   87.602">  7  8 -1 -1</clus>
<clus scale="   89.745">  5  6 -1 -1</clus>
<clus scale="  208.628">  1  7  2 -1</clus>
<clus scale="   25.674">  1  5  2 -1</clus>
</clustering>
</event>
<event>
 9    1  0.1464797E-005  0.9710200E+02  0.7546771E-02  0.1287265E+00
         -3   -1    0    0    0  501 -0.00000000000E+00  0.00000000000E+00  0.13663526100E+03  0.13663526100E+03  0.00000000000E+00 0.  1.
         21   -1    0    0  501  502  0.00000000000E+00 -0.00000000000E+00 -0.17095793705E+03  0.17095793705E+03  0.00000000000E+00 0.  1.
         23    2    1    2    0    0 -0.32946848834E+02  0.35284935696E+01  0.57786240538E+02  0.11300357254E+03  0.91283145746E+02 0.  0.
         23    2    1    2    0    0  0.17005560758E+02  0.32385307835E+02 -0.58974102541E+01  0.99846026146E+02  0.92717054683E+02 0.  0.
        -11    1    4    4    0    0 -0.20177556998E+02  0.37654547080E+01  0.33023556185E+02  0.38882743199E+02  0.00000000000E+00 0.  1.
         11    1    4    4    0    0  0.37183117756E+02  0.28619853127E+02 -0.38920966439E+02  0.60963282947E+02  0.00000000000E+00 0. -1.
        -13    1    3    3    0    0 -0.34821216275E+02  0.39495462853E+02  0.10712448398E+02  0.53732348167E+02  0.00000000000E+00 0.  1.
         13    1    3    3    0    0  0.18743674413E+01 -0.35966969284E+02  0.47073792140E+02  0.59271224377E+02  0.00000000000E+00 0. -1.
         -3    1    1    2    0  502  0.15941288075E+02 -0.35913801404E+02 -0.86211506326E+02  0.94743599361E+02  0.00000000000E+00 0.  1.
<scales pt_clust_5="13000.00000" pt_clust_6="13000.00000" pt_clust_7="13000.00000" pt_clust_8="13000.00000" pt_clust_9="39.29282"></scales>
<clustering>
<clus scale="   39.293">  2  9  1 -1</clus>
<clus scale="   91.283">  7  8 -1 -1</clus>
<clus scale="   92.717">  5  6 -1 -1</clus>
<clus scale="   95.734">  1  7  2 -1</clus>
<clus scale="   39.293">  2  5  1 -1</clus>
</clustering>
</event>
<event>
 9    1  0.1464797E-005  0.1260283E+03  0.7546771E-02  0.1233530E+00
         21   -1    0    0  501  502  0.00000000000E+00  0.00000000000E+00  0.14130659176E+03  0.14130659176E+03  0.00000000000E+00 0. -1.
         -1   -1    0    0    0  501 -0.00000000000E+00 -0.00000000000E+00 -0.17387822312E+03  0.17387822312E+03  0.00000000000E+00 0.  1.
         23    2    1    2    0    0 -0.63097527719E+02  0.64103007583E+02 -0.58051502774E+02  0.14074277658E+03  0.91367710921E+02 0.  0.
         23    2    1    2    0    0  0.84167520570E+02 -0.25386707731E+02  0.85814245215E+01  0.12723553472E+03  0.91578294377E+02 0.  0.
        -13    1    4    4    0    0 -0.14460964058E+02 -0.19337124567E+02 -0.10944679861E+02  0.26510938974E+02  0.00000000000E+00 0.  1.
         13    1    4    4    0    0  0.98628484627E+02 -0.60495831635E+01  0.19526104382E+02  0.10072459575E+03  0.00000000000E+00 0. -1.
        -13    1    3    3    0    0 -0.33905960918E+02  0.12094135953E+02 -0.71097416816E+02  0.79691436103E+02  0.00000000000E+00 0.  1.
         13    1    3    3    0    0 -0.29191566801E+02  0.52008871630E+02  0.13045914042E+02  0.61051340474E+02  0.00000000000E+00 0. -1.
         -1    1    1    2    0  502 -0.21069992850E+02 -0.38716299852E+02  0.16898446885E+02  0.47206503578E+02  0.00000000000E+00 0.  1.
<scales pt_clust_5="13000.00000" pt_clust_6="13000.00000" pt_clust_7="13000.00000" pt_clust_8="13000.00000" pt_clust_9="44.07830"></scales>
<clustering>
<clus scale="   44.078">  1  9  2 -1</clus>
<clus scale="   91.368">  7  8 -1 -1</clus>
<clus scale="   91.578">  5  6 -1 -1</clus>
<clus scale="  125.875">  2  7  1 -1</clus>
<clus scale="   44.078">  1  5  2 -1</clus>
</clustering>
</event>
<event>
 9    1  0.1464797E-005  0.1240464E+03  0.7546771E-02  0.1236905E+00
          1   -1    0    0  502    0 -0.00000000000E+00  0.00000000000E+00  0.48039710060E+03  0.48039710060E+03  0.00000000000E+00 0. -1.
         21   -1    0    0  501  502  0.00000000000E+00 -0.00000000000E+00 -0.54860605693E+02  0.54860605693E+02  0.00000000000E+00 0. -1.
         23    2    1    2    0    0 -0.77446462259E+02 -0.50228006417E+01  0.28526260810E+03  0.30896328850E+03  0.89779591319E+02 0.  0.
         23    2    1    2    0    0  0.10533544765E+03  0.18076259372E+02  0.88053456109E+02  0.16567130609E+03  0.90946483398E+02 0.  0.
        -13    1    3    3    0    0 -0.19965488338E+02  0.19061272576E+02  0.14617029520E+02  0.31234762505E+02  0.00000000000E+00 0.  1.
         13    1    3    3    0    0 -0.57480973921E+02 -0.24084073217E+02  0.27064557858E+03  0.27772852599E+03  0.00000000000E+00 0. -1.
        -13    1    4    4    0    0  0.56156128876E+02  0.52641926853E+02  0.66790409722E+02  0.10190997058E+03  0.00000000000E+00 0.  1.
         13    1    4    4    0    0  0.49179318775E+02 -0.34565667480E+02  0.21263046387E+02  0.63761335503E+02  0.00000000000E+00 0. -1.
          1    1    1    2  501    0 -0.27888985392E+02 -0.13053458730E+02  0.52220430700E+02  0.60623111711E+02  0.00000000000E+00 0. -1.
<scales pt_clust_5="13000.00000" pt_clust_6="13000.00000" pt_clust_7="13000.00000" pt_clust_8="13000.00000" pt_clust_9="30.79268"></scales>
<clustering>
<clus scale="   30.793">  2  9  1 -1</clus>
<clus scale="   89.780">  5  6 -1 -1</clus>
<clus scale="   90.946">  7  8 -1 -1</clus>
<clus scale="  123.193">  1  5  2 -1</clus>
<clus scale="   30.793">  2  5  1 -1</clus>
</clustering>
</event>
<event>
 9    1  0.1464797E-005  0.1300585E+03  0.7546771E-02  0.1227807E+00
         21   -1    0    0  501  502  0.00000000000E+00  0.00000000000E+00  0.12083688556E+03  0.12083688556E+03  0.00000000000E+00 0. -1.
          3   -1    0    0  502    0 -0.00000000000E+00 -0.00000000000E+00 -0.39510429837E+03  0.39510429837E+03  0.00000000000E+00 0. -1.
         23    2    1    2    0    0  0.54094764829E+02 -0.72306986503E+02 -0.30616941568E+03  0.33217365821E+03  0.91897139403E+02 0.  0.
         23    2    1    2    0    0 -0.32733169741E+02  0.10414621330E+03  0.32960275520E+02  0.14541163897E+03  0.90223449501E+02 0.  0.
        -13    1    3    3    0    0 -0.20293142397E+02 -0.97077782620E+00 -0.22268701013E+02  0.30143806706E+02  0.00000000000E+00 0.  1.
         13    1    3    3    0    0  0.74387907226E+02 -0.71336208677E+02 -0.28390071467E+03  0.30202985151E+03  0.00000000000E+00 0. -1.
        -13    1    4    4    0    0 -0.24771963583E+01  0.10234955338E+03  0.24548837139E+01  0.10240895485E+03  0.00000000000E+00 0. -1.
         13    1    4    4    0    0 -0.30255973383E+02  0.17966599142E+01  0.30505391806E+02  0.43002684119E+02  0.00000000000E+00 0.  1.
          3    1    1    2  501    0 -0.21361595088E+02 -0.31839226794E+02 -0.10582726482E+01  0.38355886752E+02  0.00000000000E+00 0. -1.
<scales pt_clust_5="13000.00000" pt_clust_6="13000.00000" pt_clust_7="13000.00000" pt_clust_8="13000.00000" pt_clust_9="38.34128"></scales>
<clustering>
<clus scale="   38.341">  1  9  2 -1</clus>
<clus scale="   90.223">  7  8 -1 -1</clus>
<clus scale="   91.897">  5  6 -1 -1</clus>
<clus scale="  128.881">  1  7  2 -1</clus>
<clus scale="   38.341">  1  5  2 -1</clus>
</clustering>
</event>
<event>
 9    1  0.1464797E-005  0.9730454E+02  0.7546771E-02  0.1286479E+00
         21   -1    0    0  501  502  0.00000000000E+00  0.00000000000E+00  0.21923343266E+03  0.21923343266E+03  0.00000000000E+00 0. -1.
         -1   -1    0    0    0  501 -0.00000000000E+00 -0.00000000000E+00 -0.11718578625E+03  0.11718578625E+03  0.00000000000E+00 0.  1.
         23    2    1    2    0    0 -0.14580184439E+02  0.23298293063E+02 -0.70937618487E+02  0.11962257607E+03  0.92314802444E+02 0.  0.
         23    2    1    2    0    0  0.18674814703E+02 -0.47310579852E+02  0.12562876244E+03  0.16354258911E+03  0.91523509718E+02 0.  0.
        -13    1    3    3    0    0 -0.46422353178E+02 -0.11142940508E+02 -0.24672555793E+02  0.53739510670E+02  0.00000000000E+00 0. -1.
         13    1    3    3    0    0  0.31842168738E+02  0.34441233572E+02 -0.46265062694E+02  0.65883065396E+02  0.00000000000E+00 0.  1.
        -13    1    4    4    0    0 -0.25343670845E+02 -0.13119652790E+02  0.28197898269E+01  0.28677136466E+02  0.00000000000E+00 0.  1.
         13    1    4    4    0    0  0.44018485547E+02 -0.34190927062E+02  0.12280897261E+03  0.13486545264E+03  0.00000000000E+00 0. -1.
         -1    1    1    2    0  502 -0.40946302634E+01  0.24012286789E+02  0.47356502455E+02  0.53254053730E+02  0.00000000000E+00 0.  1.
<scales pt_clust_5="13000.00000" pt_clust_6="13000.00000" pt_clust_7="13000.00000" pt_clust_8="13000.00000" pt_clust_9="24.35890"></scales>
<clustering>
<clus scale="   24.359">  1  9  2 -1</clus>
<clus scale="   91.524">  7  8 -1 -1</clus>
<clus scale="   92.315">  5  6 -1 -1</clus>
<clus scale="   96.554">  1  7  2 -1</clus>
<clus scale="   24.359">  1  5  2 -1</clus>
</clustering>
</event>
<event>
 9    1  0.1464797E-005  0.9722595E+02  0.7546771E-02  0.1287403E+00
         21   -1    0    0  501  502  0.00000000000E+00  0.00000000000E+00  0.28918484625E+03  0.28918484625E+03  0.00000000000E+00 0. -1.
         -1   -1    0    0    0  501 -0.00000000000E+00 -0.00000000000E+00 -0.12601148574E+03  0.12601148574E+03  0.00000000000E+00 0.  1.
         23    2    1    2    0    0 -0.18312233856E+02  0.18804983503E+02 -0.68484604973E+02  0.11747865370E+03  0.91772150695E+02 0.  0.
         23    2    1    2    0    0  0.31560577196E+02 -0.41898820611E+02  0.51952414717E+02  0.11605059572E+03  0.89538294436E+02 0.  0.
        -11    1    4    4    0    0  0.54255615427E+02 -0.32592326595E+01  0.45283898742E+02  0.70745500834E+02  0.00000000000E+00 0. -1.
         11    1    4    4    0    0 -0.22695038231E+02 -0.38639587952E+02  0.66685159755E+01  0.45305094887E+02  0.00000000000E+00 0.  1.
        -11    1    3    3    0    0  0.26655660699E+02  0.66434079753E+01  0.73876812017E+01  0.28447090367E+02  0.00000000000E+00 0. -1.
         11    1    3    3    0    0 -0.44967894555E+02  0.12161575527E+02 -0.75872286174E+02  0.89031563332E+02  0.00000000000E+00 0.  1.
         -1    1    1    2    0  502 -0.13248343340E+02  0.23093837108E+02  0.17970555077E+03  0.18166708257E+03  0.00000000000E+00 0.  1.
<scales pt_clust_5="13000.00000" pt_clust_6="13000.00000" pt_clust_7="13000.00000" pt_clust_8="13000.00000" pt_clust_9="26.62412"></scales>
<clustering>
<clus scale="   26.624">  1  9  2 -1</clus>
<clus scale="   89.538">  5  6 -1 -1</clus>
<clus scale="   91.772">  7  8 -1 -1</clus>
<clus scale="   95.120">  1  5  2 -1</clus>
<clus scale="   26.624">  1  5  2 -1</clus>
</clustering>
</event>
<event>
 9    1  0.1464797E-005  0.1140882E+03  0.7546771E-02  0.1253878E+00
         -2   -1    0    0    0  501 -0.00000000000E+00  0.00000000000E+00  0.99506817914E+02  0.99506817914E+02  0.00000000000E+00 0.  1.
         21   -1    0    0  501  502  0.00000000000E+00 -0.00000000000E+00 -0.24860765427E+03  0.24860765427E+03  0.00000000000E+00 0. -1.
         23    2    1    2    0    0  0.52911362760E+02 -0.30530780966E+02 -0.17190638929E+02  0.10956144280E+03  0.89310977973E+02 0.  0.
         23    2    1    2    0    0 -0.78783957336E+02  0.25272622088E+02 -0.17993395837E+02  0.12161681998E+03  0.87299892599E+02 0.  0.
        -11    1    4    4    0    0 -0.39217991083E+02 -0.53390322562E+01  0.31996520565E+02  0.50895318235E+02  0.00000000000E+00 0.  1.
         11    1    4    4    0    0 -0.39565966253E+02  0.30611654344E+02 -0.49989916402E+02  0.70721501745E+02  0.00000000000E+00 0. -1.
        -11    1    3    3    0    0 -0.24327863842E+02 -0.19374809007E+01  0.34632047042E+01  0.24649393059E+02  0.00000000000E+00 0.  1.
         11    1    3    3    0    0  0.77239226602E+02 -0.28593300065E+02 -0.20653843633E+02  0.84912049743E+02  0.00000000000E+00 0. -1.
         -2    1    1    2    0  502  0.25872594576E+02  0.52581588781E+01 -0.11391680159E+03  0.11693620940E+03  0.00000000000E+00 0.  1.
<scales pt_clust_5="13000.00000" pt_clust_6="13000.00000" pt_clust_7="13000.00000" pt_clust_8="13000.00000" pt_clust_9="26.40150"></scales>
<clustering>
<clus scale="   26.402">  2  9  1 -1</clus>
<clus scale="   87.300">  5  6 -1 -1</clus>
<clus scale="   89.311">  7  8 -1 -1</clus>
<clus scale="  112.521">  2  5  1 -1</clus>
<clus scale="   26.402">  2  5  1 -1</clus>
</clustering>
</event>
<event>
 9    1  0.1464797E-005  0.3808650E+03  0.7546771E-02  0.1051061E+00
          1   -1    0    0  502    0 -0.00000000000E+00  0.00000000000E+00  0.15918153241E+04  0.15918153241E+04  0.00000000000E+00 0. -1.
         21   -1    0    0  501  502  0.00000000000E+00 -0.00000000000E+00 -0.13952656065E+03  0.13952656065E+03  0.00000000000E+00 0. -1.
         23    2    1    2    0    0 -0.36338093815E+03 -0.45537361577E+02  0.11569723586E+04  0.12187187839E+04  0.11212081971E+03 0.  0.
         23    2    1    2    0    0  0.35180016170E+03  0.67965429062E+02  0.31025950509E+03  0.48329003349E+03  0.94475619357E+02 0.  0.
        -11    1    3    3    0    0 -0.23278503972E+02  0.21918978744E+02  0.56538134726E+02  0.64952991114E+02  0.00000000000E+00 0.  1.
         11    1    3    3    0    0 -0.34010243418E+03 -0.67456340321E+02  0.11004342239E+04  0.11537657928E+04  0.00000000000E+00 0. -1.
        -13    1    4    4    0    0  0.28611873916E+03  0.77312274787E+02  0.21066513921E+03  0.36362194874E+03  0.00000000000E+00 0. -1.
         13    1    4    4    0    0  0.65681422548E+02 -0.93468457245E+01  0.99594365880E+02  0.11966808475E+03  0.00000000000E+00 0.  1.
          1    1    1    2  501    0  0.11580776449E+02 -0.22428067485E+02 -0.14943100243E+02  0.29333067333E+02  0.00000000000E+00 0. -1.
<scales pt_clust_5="13000.00000" pt_clust_6="13000.00000" pt_clust_7="13000.00000" pt_clust_8="13000.00000" pt_clust_9="25.24149"></scales>
<clustering>
<clus scale="   25.241">  2  9  1 -1</clus>
<clus scale="   94.476">  7  8 -1 -1</clus>
<clus scale="  112.121">  5  6 -1 -1</clus>
<clus scale="  376.049">  2  7  1 -1</clus>
<clus scale="   25.241">  2  5  1 -1</clus>
</clustering>
</event>
<event>
 9    1  0.1464797E-005  0.9608222E+02  0.7546771E-02  0.1291193E+00
          3   -1    0    0  502    0 -0.00000000000E+00  0.00000000000E+00  0.22714656680E+03  0.22714656680E+03  0.00000000000E+00 0. -1.
         21   -1    0    0  501  502  0.00000000000E+00 -0.00000000000E+00 -0.21983864783E+03  0.21983864783E+03  0.00000000000E+00 0. -1.
         23    2    1    2    0    0  0.25805362707E+01  0.28407677108E+02  0.10417300906E+03  0.13810705502E+03  0.86069085884E+02 0.  0.
         23    2    1    2    0    0  0.18343965879E+02 -0.35263350250E+02  0.82088458352E+02  0.12857506050E+03  0.90625748175E+02 0.  0.
        -13    1    4    4    0    0  0.32179227158E+02  0.20650434682E+02  0.48982723679E+02  0.62138959856E+02  0.00000000000E+00 0. -1.
         13    1    4    4    0    0 -0.13835261279E+02 -0.55913784932E+02  0.33105734674E+02  0.66436100641E+02  0.00000000000E+00 0.  1.
        -13    1    3    3    0    0 -0.37685717439E+02  0.10502134244E+02  0.76908434777E+02  0.86286820908E+02  0.00000000000E+00 0.  1.
         13    1    3    3    0    0  0.40266253710E+02  0.17905542864E+02  0.27264574282E+02  0.51820234116E+02  0.00000000000E+00 0. -1.
          3    1    1    2  501    0 -0.20924502150E+02  0.68556731420E+01 -0.17895354845E+03  0.18030309911E+03  0.00000000000E+00 0. -1.
<scales pt_clust_5="13000.00000" pt_clust_6="13000.00000" pt_clust_7="13000.00000" pt_clust_8="13000.00000" pt_clust_9="22.01897"></scales>
<clustering>
<clus scale="   22.019">  2  9  1 -1</clus>
<clus scale="   86.069">  7  8 -1 -1</clus>
<clus scale="   90.626">  5  6 -1 -1</clus>
<clus scale="   91.797">  1  7  2 -1</clus>
<clus scale="   22.019">  2  5  1 -1</clus>
</clustering>
</event>
<event>
 9    1  0.1464797E-005  0.1183807E+03  0.7546771E-02  0.1247699E+00
          2   -1    0    0  502    0 -0.00000000000E+00  0.00000000000E+00  0.57944079575E+03  0.57944079575E+03  0.00000000000E+00 0. -1.
         21   -1    0    0  501  502  0.00000000000E+00 -0.00000000000E+00 -0.27094019163E+03  0.27094019163E+03  0.00000000000E+00 0. -1.
         23    2    1    2    0    0 -0.72163484357E+02 -0.13789279985E+02  0.45879142987E+03  0.47240601425E+03  0.85323815358E+02 0.  0.
         23    2    1    2    0    0  0.68146427819E+02  0.11728501700E+03  0.33659121049E+02  0.16687052682E+03  0.91176342629E+02 0.  0.
        -11    1    4    4    0    0  0.24565834410E+02  0.11209718986E+03  0.41990510495E+02  0.12219845812E+03  0.00000000000E+00 0. -1.
         11    1    4    4    0    0  0.43580593409E+02  0.51878271404E+01 -0.83313894458E+01  0.44672068706E+02  0.00000000000E+00 0.  1.
        -11    1    3    3    0    0 -0.26841416968E+02  0.36214445822E+02  0.18928345896E+03  0.19457691432E+03  0.00000000000E+00 0.  1.
         11    1    3    3    0    0 -0.45322067389E+02 -0.50003725807E+02  0.26950797091E+03  0.27782909994E+03  0.00000000000E+00 0. -1.
          2    1    1    2  501    0  0.40170565376E+01 -0.10349573701E+03 -0.18394994680E+03  0.21110444631E+03  0.00000000000E+00 0. -1.
<scales pt_clust_5="13000.00000" pt_clust_6="13000.00000" pt_clust_7="13000.00000" pt_clust_8="13000.00000" pt_clust_9="103.57367"></scales>
<clustering>
<clus scale="   85.324">  7  8 -1 -1</clus>
<clus scale="   91.176">  5  6 -1 -1</clus>
<clus scale="  103.574">  2  9  1 -1</clus>
<clus scale="  113.934">  1  7  2 -1</clus>
<clus scale="  103.574">  2  5  1 -1</clus>
</clustering>
</event>
<event>
 9    1  0.1464797E-005  0.1377580E+03  0.7546771E-02  0.1217028E+00
         21   -1    0    0  501  502  0.00000000000E+00  0.00000000000E+00  0.20765858107E+03  0.20765858107E+03  0.00000000000E+00 0. -1.
          2   -1    0    0  502    0 -0.00000000000E+00 -0.00000000000E+00 -0.58453576965E+03  0.58453576965E+03  0.00000000000E+00 0. -1.
         23    2    1    2    0    0 -0.63605337081E+02 -0.69780439807E+02 -0.34802917897E+03  0.37237812550E+03  0.92877393654E+02 0.  0.
         23    2    1    2    0    0 -0.40655018979E+01  0.15459718086E+03 -0.16656878115E+03  0.24448729742E+03  0.90066992334E+02 0.  0.
        -11    1    4    4    0    0  0.40872336510E+02  0.51530945680E+02 -0.72503346684E+02  0.97891376203E+02  0.00000000000E+00 0.  1.
         11    1    4    4    0    0 -0.44937838408E+02  0.10306623518E+03 -0.94065434466E+02  0.14659592121E+03  0.00000000000E+00 0. -1.
        -13    1    3    3    0    0 -0.12713912137E+02 -0.64910323289E+02 -0.10550666782E+03  0.12452570251E+03  0.00000000000E+00 0.  1.
         13    1    3    3    0    0 -0.50891424944E+02 -0.48701165184E+01 -0.24252251115E+03  0.24785242299E+03  0.00000000000E+00 0. -1.
          2    1    1    2  501    0  0.67670838979E+02 -0.84816741052E+02  0.13772077154E+03  0.17532892781E+03  0.00000000000E+00 0. -1.
<scales pt_clust_5="13000.00000" pt_clust_6="13000.00000" pt_clust_7="13000.00000" pt_clust_8="13000.00000" pt_clust_9="108.50448"></scales>
<clustering>
<clus scale="   90.067">  5  6 -1 -1</clus>
<clus scale="   92.877">  7  8 -1 -1</clus>
<clus scale="  108.504">  1  9  2 -1</clus>
<clus scale="  135.879">  1  5  2 -1</clus>
<clus scale="  108.504">  1  5  2 -1</clus>
</clustering>
</event>
<event>
 9    1  0.1464797E-005  0.1049654E+03  0.7546771E-02  0.1280286E+00
         21   -1    0    0  501  502  0.00000000000E+00  0.00000000000E+00  0.53934153322E+02  0.53934153322E+02  0.00000000000E+00 0.  1.
          1   -1    0    0  502    0 -0.00000000000E+00 -0.00000000000E+00 -0.37114233979E+03  0.37114233979E+03  0.00000000000E+00 0. -1.
         23    2    1    2    0    0  0.25138510648E+02 -0.71778702042E+02 -0.22007346315E+03  0.25045038388E+03  0.92243909385E+02 0.  0.
         23    2    1    2    0    0 -0.12953689610E+02  0.38315136032E+01 -0.28372615567E+02  0.77191424734E+02  0.70505547068E+02 0.  0.
        -11    1    4    4    0    0  0.13974874139E+02  0.28813141794E+02 -0.22193439281E+01  0.32100151631E+02  0.00000000000E+00 0.  1.
         11    1    4    4    0    0 -0.26928563749E+02 -0.24981628191E+02 -0.26153271639E+02  0.45091273103E+02  0.00000000000E+00 0. -1.
        -11    1    3    3    0    0 -0.18335259120E+02 -0.70982289216E+02 -0.11095123805E+03  0.13298437628E+03  0.00000000000E+00 0. -1.
         11    1    3    3    0    0  0.43473769768E+02 -0.79641282640E+00 -0.10912222510E+03  0.11746600760E+03  0.00000000000E+00 0.  1.
          1    1    1    2  501    0 -0.12184821038E+02  0.67947188439E+02 -0.68762107745E+02  0.97434684492E+02  0.00000000000E+00 0. -1.
<scales pt_clust_5="13000.00000" pt_clust_6="13000.00000" pt_clust_7="13000.00000" pt_clust_8="13000.00000" pt_clust_9="69.03108"></scales>
<clustering>
<clus scale="   69.031">  1  9  2 -1</clus>
<clus scale="   70.506">  5  6 -1 -1</clus>
<clus scale="   86.486">  1  5  2 -1</clus>
<clus scale="   92.244">  7  8 -1 -1</clus>
<clus scale="   69.031">  1  5  2 -1</clus>
</clustering>
</event>
<event>
 9    1  0.1464797E-005  0.9101730E+02  0.7546771E-02  0.1306521E+00
         -3   -1    0    0    0  501 -0.00000000000E+00  0.00000000000E+00  0.25532795816E+03  0.25532795816E+03  0.00000000000E+00 0.  1.
         21   -1    0    0  501  502  0.00000000000E+00 -0.00000000000E+00 -0.79443305525E+02  0.79443305525E+02  0.00000000000E+00 0. -1.
         23    2    1    2    0    0 -0.57298685826E+01  0.11413490332E+02  0.20559151345E+03  0.22473299343E+03  0.89855154429E+02 0.  0.
         23    2    1    2    0    0 -0.59405702910E+01 -0.28068380417E+02 -0.19371533555E+02  0.87225916207E+02  0.80062349399E+02 0.  0.
        -13    1    4    4    0    0  0.28803135581E+02 -0.24851874032E+02 -0.32410685613E+02  0.49976882697E+02  0.00000000000E+00 0.  1.
         13    1    4    4    0    0 -0.34743705872E+02 -0.32165063850E+01  0.13039152058E+02  0.37249033510E+02  0.00000000000E+00 0. -1.
        -13    1    3    3    0    0 -0.42393702892E+02  0.26359388236E+02  0.95907084539E+02  0.10812128494E+03  0.00000000000E+00 0. -1.
         13    1    3    3    0    0  0.36663834309E+02 -0.14945897904E+02  0.10968442891E+03  0.11661170849E+03  0.00000000000E+00 0.  1.
         -3    1    1    2    0  502  0.11670438874E+02  0.16654890085E+02 -0.10335327266E+02  0.22812354042E+02  0.00000000000E+00 0.  1.
<scales pt_clust_5="13000.00000" pt_clust_6="13000.00000" pt_clust_7="13000.00000" pt_clust_8="13000.00000" pt_clust_9="20.33678"></scales>
<clustering>
<clus scale="   20.337">  2  9  1 -1</clus>
<clus scale="   80.062">  5  6 -1 -1</clus>
<clus scale="   81.364">  2  5  1 -1</clus>
<clus scale="   89.855">  7  8 -1 -1</clus>
<clus scale="   20.337">  2  5  1 -1</clus>
</clustering>
</event>
<event>
 9    1  0.1464797E-005  0.1042763E+03  0.7546771E-02  0.1271619E+00
         -1   -1    0    0    0  501 -0.00000000000E+00  0.00000000000E+00  0.18738143568E+03  0.18738143568E+03  0.00000000000E+00 0.  1.
         21   -1    0    0  501  502  0.00000000000E+00 -0.00000000000E+00 -0.13041645122E+03  0.13041645122E+03  0.00000000000E+00 0. -1.
         23    2    1    2    0    0  0.28218312944E+02  0.42139470614E+02  0.10919849327E+03  0.15157458522E+03  0.92078964927E+02 0.  0.
         23    2    1    2    0    0 -0.75084438047E+01 -0.40555890826E+02 -0.81865160690E+02  0.13003709993E+03  0.92231154248E+02 0.  0.
        -11    1    4    4    0    0  0.57970730501E+01 -0.62436167448E+02 -0.24692683098E+02  0.67391465781E+02  0.00000000000E+00 0.  1.
         11    1    4    4    0    0 -0.13305516855E+02  0.21880276621E+02 -0.57172477592E+02  0.62645634148E+02  0.00000000000E+00 0. -1.
        -13    1    3    3    0    0  0.13477043072E+02  0.62167813045E+02  0.10957758096E+03  0.12670325141E+03  0.00000000000E+00 0.  1.
         13    1    3    3    0    0  0.14741269873E+02 -0.20028342431E+02 -0.37908768613E+00  0.24871333809E+02  0.00000000000E+00 0. -1.
         -1    1    1    2    0  502 -0.20709869140E+02 -0.15835797880E+01  0.29631651876E+02  0.36186201757E+02  0.00000000000E+00 0.  1.
<scales pt_clust_5="13000.00000" pt_clust_6="13000.00000" pt_clust_7="13000.00000" pt_clust_8="13000.00000" pt_clust_9="20.77034"></scales>
<clustering>
<clus scale="   20.770">  2  9  1 -1</clus>
<clus scale="   92.079">  7  8 -1 -1</clus>
<clus scale="   92.231">  5  6 -1 -1</clus>
<clus scale="  104.142">  1  7  2 -1</clus>
<clus scale="   20.770">  2  5  1 -1</clus>
</clustering>
</event>
<event>
 9    1  0.1464797E-005  0.1628988E+03  0.7546771E-02  0.1185697E+00
         21   -1    0    0  501  502  0.00000000000E+00  0.00000000000E+00  0.36281781781E+03  0.36281781781E+03  0.00000000000E+00 0. -1.
          1   -1    0    0  502    0 -0.00000000000E+00 -0.00000000000E+00 -0.12434455878E+04  0.12434455878E+04  0.00000000000E+00 0. -1.
         23    2    1    2    0    0  0.79004541406E+02 -0.89070112638E+02 -0.53013343996E+03  0.55028063083E+03  0.87132691791E+02 0.  0.
         23    2    1    2    0    0 -0.16560453401E+03  0.53997078902E+02 -0.68329464578E+03  0.71031569995E+03  0.85535223389E+02 0.  0.
        -11    1    4    4    0    0 -0.68363122726E+01  0.22364219988E+02 -0.34857685990E+02  0.41975609271E+02  0.00000000000E+00 0.  1.
         11    1    4    4    0    0 -0.15876822173E+03  0.31632858915E+02 -0.64843695979E+03  0.66834009068E+03  0.00000000000E+00 0. -1.
        -13    1    3    3    0    0  0.85175721174E+02 -0.44682586922E+02 -0.27733461847E+03  0.29354033394E+03  0.00000000000E+00 0.  1.
         13    1    3    3    0    0 -0.61711797680E+01 -0.44387525715E+02 -0.25279882149E+03  0.25674029689E+03  0.00000000000E+00 0. -1.
          1    1    1    2  501    0  0.86599992600E+02  0.35073033735E+02  0.33280031578E+03  0.34566707480E+03  0.00000000000E+00 0. -1.
<scales pt_clust_5="13000.00000" pt_clust_6="13000.00000" pt_clust_7="13000.00000" pt_clust_8="13000.00000" pt_clust_9="93.43274"></scales>
<clustering>
<clus scale="   85.535">  5  6 -1 -1</clus>
<clus scale="   87.133">  7  8 -1 -1</clus>
<clus scale="   93.433">  1  9  2 -1</clus>
<clus scale="  162.050">  1  5  2 -1</clus>
<clus scale="   93.433">  1  5  2 -1</clus>
</clustering>
</event>
<event>
 9    1  0.1464797E-005  0.2397656E+03  0.7546771E-02  0.1120000E+00
          1   -1    0    0  502    0 -0.00000000000E+00  0.00000000000E+00  0.67232301097E+03  0.67232301097E+03  0.00000000000E+00 0. -1.
         21   -1    0    0  501  502  0.00000000000E+00 -0.00000000000E+00 -0.17661684051E+03  0.17661684051E+03  0.00000000000E+00 0.  1.
         23    2    1    2    0    0 -0.19000189344E+03 -0.88896552684E+02  0.32917155295E+03  0.40012810153E+03  0.88007214343E+02 0.  0.
         23    2    1    2    0    0  0.20923800384E+03  0.12685637512E+03  0.24658343657E+03  0.35815421031E+03  0.87166306651E+02 0.  0.
        -11    1    3    3    0    0 -0.31624103961E+02 -0.10008765952E+01  0.11676740294E+03  0.12097814718E+03  0.00000000000E+00 0. -1.
         11    1    3    3    0    0 -0.15837778948E+03 -0.87895676089E+02  0.21240415000E+03  0.27914995435E+03  0.00000000000E+00 0.  1.
        -11    1    4    4    0    0  0.14214549029E+03  0.38624537455E+02  0.16019162573E+03  0.21762020186E+03  0.00000000000E+00 0. -1.
         11    1    4    4    0    0  0.67092513550E+02  0.88231837663E+02  0.86391810841E+02  0.14053400845E+03  0.00000000000E+00 0.  1.
          1    1    1    2  501    0 -0.19236110398E+02 -0.37959822433E+02 -0.80048819051E+02  0.90657539642E+02  0.00000000000E+00 0. -1.
<scales pt_clust_5="13000.00000" pt_clust_6="13000.00000" pt_clust_7="13000.00000" pt_clust_8="13000.00000" pt_clust_9="42.55556"></scales>
<clustering>
<clus scale="   42.556">  2  9  1 -1</clus>
<clus scale="   87.166">  7  8 -1 -1</clus>
<clus scale="   88.007">  5  6 -1 -1</clus>
<clus scale="  239.458">  2  7  1 -1</clus>
<clus scale="   42.556">  2  5  1 -1</clus>
</clustering>
</event>
<event>
 9    1  0.1464797E-005  0.2100360E+03  0.7546771E-02  0.1141627E+00
         21   -1    0    0  501  502  0.00000000000E+00  0.00000000000E+00  0.10114084988E+03  0.10114084988E+03  0.00000000000E+00 0.  1.
         -1   -1    0    0    0  501 -0.00000000000E+00 -0.00000000000E+00 -0.79984383176E+03  0.79984383176E+03  0.00000000000E+00 0.  1.
         23    2    1    2    0    0  0.56895255642E+02 -0.17283529359E+03 -0.53015390985E+03  0.56746001720E+03  0.88535835495E+02 0.  0.
         23    2    1    2    0    0 -0.97656086886E+02  0.19515128992E+03 -0.16297016490E+03  0.28672110409E+03  0.89604573650E+02 0.  0.
        -11    1    4    4    0    0 -0.69435865671E+02  0.19569652333E+03 -0.14205801850E+03  0.25159282443E+03  0.00000000000E+00 0. -1.
         11    1    4    4    0    0 -0.28220221215E+02 -0.54523340559E+00 -0.20912146401E+02  0.35128279662E+02  0.00000000000E+00 0.  1.
        -13    1    3    3    0    0  0.32161517658E+02 -0.16023855995E+03 -0.50195726156E+03  0.52789378832E+03  0.00000000000E+00 0.  1.
         13    1    3    3    0    0  0.24733737984E+02 -0.12596733640E+02 -0.28196648287E+02  0.39566228878E+02  0.00000000000E+00 0. -1.
         -1    1    1    2    0  502  0.40760831244E+02 -0.22315996330E+02 -0.55789071370E+01  0.46803560343E+02  0.00000000000E+00 0.  1.
<scales pt_clust_5="13000.00000" pt_clust_6="13000.00000" pt_clust_7="13000.00000" pt_clust_8="13000.00000" pt_clust_9="46.46987"></scales>
<clustering>
<clus scale="   46.470">  1  9  2 -1</clus>
<clus scale="   88.536">  7  8 -1 -1</clus>
<clus scale="   89.605">  5  6 -1 -1</clus>
<clus scale="  209.582">  2  7  1 -1</clus>
<clus scale="   46.470">  1  5  2 -1</clus>
</clustering>
</event>
<event>
 9    1  0.1464797E-005  0.1012714E+03  0.7546771E-02  0.1281492E+00
          1   -1    0    0  502    0 -0.00000000000E+00  0.00000000000E+00  0.10284148691E+03  0.10284148691E+03  0.00000000000E+00 0. -1.
         21   -1    0    0  501  502  0.00000000000E+00 -0.00000000000E+00 -0.14154423499E+03  0.14154423499E+03  0.00000000000E+00 0.  1.
         23    2    1    2    0    0 -0.16698800163E+02  0.15425162570E+02 -0.31105701833E+02  0.10182744802E+03  0.94257513845E+02 0.  0.
         23    2    1    2    0    0  0.17490628205E+02 -0.49735561420E+02 -0.24589345025E+02  0.10426246890E+03  0.86524438097E+02 0.  0.
        -11    1    3    3    0    0 -0.83447175981E+01 -0.26261125567E+02 -0.48588488542E+02  0.55858054447E+02  0.00000000000E+00 0.  1.
         11    1    3    3    0    0 -0.83540825646E+01  0.41686288138E+02  0.17482786710E+02  0.45969393571E+02  0.00000000000E+00 0. -1.
        -13    1    4    4    0    0  0.38132163393E+02 -0.64549633455E+02 -0.24440864594E+02  0.78854758425E+02  0.00000000000E+00 0.  1.
         13    1    4    4    0    0 -0.20641535189E+02  0.14814072035E+02 -0.14848043159E+00  0.25407710476E+02  0.00000000000E+00 0. -1.
          1    1    1    2  501    0 -0.79182804211E+00  0.34310398850E+02  0.16992298776E+02  0.38295804973E+02  0.00000000000E+00 0. -1.
<scales pt_clust_5="13000.00000" pt_clust_6="13000.00000" pt_clust_7="13000.00000" pt_clust_8="13000.00000" pt_clust_9="34.31955"></scales>
<clustering>
<clus scale="   34.320">  2  9  1 -1</clus>
<clus scale="   86.524">  7  8 -1 -1</clus>
<clus scale="   94.116">  2  7  1 -1</clus>
<clus scale="   94.258">  5  6 -1 -1</clus>
<clus scale="   34.320">  2  5  1 -1</clus>
</clustering>
</event>
<event>
 9    1  0.1464797E-005  0.1508623E+03  0.7546771E-02  0.1213982E+00
         21   -1    0    0  501  502  0.00000000000E+00  0.00000000000E+00  0.44220723737E+03  0.44220723737E+03  0.00000000000E+00 0. -1.
          1   -1    0    0  502    0 -0.00000000000E+00 -0.00000000000E+00 -0.21804233172E+03  0.21804233172E+03  0.00000000000E+00 0. -1.
         23    2    1    2    0    0 -0.46703561227E+02 -0.41921987873E+02  0.18688611157E+03  0.21703125161E+03  0.90760507815E+02 0.  0.
         23    2    1    2    0    0  0.10813932144E+03 -0.60729158196E+02 -0.15339880972E+03  0.21811931924E+03  0.93073621964E+02 0.  0.
        -11    1    4    4    0    0  0.27990029791E+02  0.12453858835E+02 -0.53037482796E+00  0.30640196883E+02  0.00000000000E+00 0.  1.
         11    1    4    4    0    0  0.80149291653E+02 -0.73183017030E+02 -0.15286843489E+03  0.18747912236E+03  0.00000000000E+00 0. -1.
        -13    1    3    3    0    0 -0.23348604315E+02 -0.49979007258E+02  0.18407862015E+03  0.19216658629E+03  0.00000000000E+00 0.  1.
         13    1    3    3    0    0 -0.23354956911E+02  0.80570193845E+01  0.28074914282E+01  0.24864665327E+02  0.00000000000E+00 0. -1.
          1    1    1    2  501    0 -0.61435760217E+02  0.10265114607E+03  0.19067760379E+03  0.22509899824E+03  0.00000000000E+00 0. -1.
<scales pt_clust_5="13000.00000" pt_clust_6="13000.00000" pt_clust_7="13000.00000" pt_clust_8="13000.00000" pt_clust_9="118.72964"></scales>
<clustering>
<clus scale="   90.761">  7  8 -1 -1</clus>
<clus scale="   93.074">  5  6 -1 -1</clus>
<clus scale="  110.346">  2  7  1 -1</clus>
<clus scale="  118.730">  1  9  2 -1</clus>
<clus scale="  118.730">  1  5  2 -1</clus>
</clustering>
</event>
<event>
 9    1  0.1464797E-005  0.2687718E+03  0.7546771E-02  0.1101997E+00
         21   -1    0    0  501  502  0.00000000000E+00  0.00000000000E+00  0.88527002265E+02  0.88527002265E+02  0.00000000000E+00 0.  1.
          1   -1    0    0  502    0 -0.00000000000E+00 -0.00000000000E+00 -0.14806517957E+04  0.14806517957E+04  0.00000000000E+00 0. -1.
         23    2    1    2    0    0  0.21103013020E+02 -0.24675224672E+03 -0.83946389859E+03  0.87991778417E+03  0.90684405746E+02 0.  0.
         23    2    1    2    0    0  0.12399606776E+02  0.26221970807E+03 -0.58015560832E+03  0.64324333061E+03  0.90931440939E+02 0.  0.
        -11    1    4    4    0    0 -0.98956330633E+01  0.18810908643E+02 -0.12321875624E+03  0.12503853697E+03  0.00000000000E+00 0. -1.
         11    1    4    4    0    0  0.22295239839E+02  0.24340879943E+03 -0.45693685209E+03  0.51820479364E+03  0.00000000000E+00 0.  1.
        -13    1    3    3    0    0  0.36636345073E+02 -0.21110364804E+03 -0.77980803052E+03  0.80870732435E+03  0.00000000000E+00 0. -1.
         13    1    3    3    0    0 -0.15533332054E+02 -0.35648598678E+02 -0.59655868062E+02  0.71210459812E+02  0.00000000000E+00 0.  1.
          1    1    1    2  501    0 -0.33502619796E+02 -0.15467461353E+02  0.27494713499E+02  0.46017683169E+02  0.00000000000E+00 0. -1.
<scales pt_clust_5="13000.00000" pt_clust_6="13000.00000" pt_clust_7="13000.00000" pt_clust_8="13000.00000" pt_clust_9="36.90078"></scales>
<clustering>
<clus scale="   36.901">  1  9  2 -1</clus>
<clus scale="   90.684">  7  8 -1 -1</clus>
<clus scale="   90.931">  5  6 -1 -1</clus>
<clus scale="  268.688">  2  7  1 -1</clus>
<clus scale="   36.901">  1  5  2 -1</clus>
</clustering>
</event>
<event>
 9    1  0.1464797E-005  0.1758559E+03  0.7546771E-02  0.1173370E+00
         21   -1    0    0  501  502  0.00000000000E+00  0.00000000000E+00  0.10969571057E+03  0.10969571057E+03  0.00000000000E+00 0.  1.
         -1   -1    0    0    0  501 -0.00000000000E+00 -0.00000000000E+00 -0.59077493240E+03  0.59077493240E+03  0.00000000000E+00 0.  1.
         23    2    1    2    0    0  0.39127590475E+02  0.18919536151E+03 -0.37481546736E+03  0.43199748636E+03  0.93858086970E+02 0.  0.
         23    2    1    2    0    0 -0.31208016861E+01 -0.10293822116E+03 -0.11453306395E+03  0.17463731815E+03  0.82306460096E+02 0.  0.
        -11    1    4    4    0    0  0.32657579351E+02 -0.78130001360E+02 -0.93944670533E+02  0.12647693751E+03  0.00000000000E+00 0. -1.
         11    1    4    4    0    0 -0.35778381037E+02 -0.24808219797E+02 -0.20588393418E+02  0.48160380632E+02  0.00000000000E+00 0.  1.
        -11    1    3    3    0    0 -0.21064004718E+02  0.60609048280E+01 -0.34414007789E+02  0.40801357749E+02  0.00000000000E+00 0. -1.
         11    1    3    3    0    0  0.60191595193E+02  0.18313445668E+03 -0.34040145957E+03  0.39119612861E+03  0.00000000000E+00 0.  1.
         -1    1    1    2    0  502 -0.36006788789E+02 -0.86257140355E+02  0.82693094821E+01  0.93835838465E+02  0.00000000000E+00 0.  1.
<scales pt_clust_5="13000.00000" pt_clust_6="13000.00000" pt_clust_7="13000.00000" pt_clust_8="13000.00000" pt_clust_9="93.47076"></scales>
<clustering>
<clus scale="   82.306">  5  6 -1 -1</clus>
<clus scale="   93.471">  1  9  2 -1</clus>
<clus scale="   93.858">  7  8 -1 -1</clus>
<clus scale="  169.972">  1  5  2 -1</clus>
<clus scale="   93.471">  1  5  2 -1</clus>
</clustering>
</event>
<event>
 9    1  0.1464797E-005  0.1048443E+03  0.7546771E-02  0.1270849E+00
         21   -1    0    0  501  502  0.00000000000E+00  0.00000000000E+00  0.64376902671E+02  0.64376902671E+02  0.00000000000E+00 0.  1.
          4   -1    0    0  502    0 -0.00000000000E+00 -0.00000000000E+00 -0.25318609879E+03  0.25318609879E+03  0.00000000000E+00 0. -1.
         23    2    1    2    0    0  0.17800443922E+02  0.55333315030E+02 -0.13191042957E+03  0.17045635329E+03  0.90974586507E+02 0.  0.
         23    2    1    2    0    0 -0.20640810318E+02 -0.34860145074E+02 -0.70160313492E+02  0.12254881853E+03  0.91948195023E+02 0.  0.
        -11    1    3    3    0    0  0.50763279575E+02  0.32073060245E+02 -0.46326158856E+02  0.75839994338E+02  0.00000000000E+00 0. -1.
         11    1    3    3    0    0 -0.32962835653E+02  0.23260254785E+02 -0.85584270718E+02  0.94616358952E+02  0.00000000000E+00 0.  1.
        -13    1    4    4    0    0 -0.27309948147E+02 -0.61862113484E+02 -0.65879463161E+02  0.94407934088E+02  0.00000000000E+00 0. -1.
         13    1    4    4    0    0  0.66691378295E+01  0.27001968410E+02 -0.42808503314E+01  0.28140884438E+02  0.00000000000E+00 0.  1.
          4    1    1    2  501    0  0.28403663953E+01 -0.20473169956E+02  0.13261546949E+02  0.24557829643E+02  0.00000000000E+00 0. -1.
<scales pt_clust_5="13000.00000" pt_clust_6="13000.00000" pt_clust_7="13000.00000" pt_clust_8="13000.00000" pt_clust_9="20.66926"></scales>
<clustering>
<clus scale="   20.669">  1  9  2 -1</clus>
<clus scale="   90.975">  5  6 -1 -1</clus>
<clus scale="   91.948">  7  8 -1 -1</clus>
<clus scale="  103.992">  2  5  1 -1</clus>
<clus scale="   20.669">  1  5  2 -1</clus>
</clustering>
</event>
<event>
 9    1  0.1464797E-005  0.1312266E+03  0.7546771E-02  0.1232882E+00
         21   -1    0    0  501  502  0.00000000000E+00  0.00000000000E+00  0.76610957618E+02  0.76610957618E+02  0.00000000000E+00 0.  1.
          3   -1    0    0  502    0 -0.00000000000E+00 -0.00000000000E+00 -0.34433729020E+03  0.34433729020E+03  0.00000000000E+00 0. -1.
         23    2    1    2    0    0 -0.81390768310E+02  0.10613308291E+02 -0.21001546687E+03  0.24272886320E+03  0.89853799176E+02 0.  0.
         23    2    1    2    0    0  0.32910801259E+02  0.61169383135E+01 -0.33643367241E+02  0.12156735165E+03  0.11192053902E+03 0.  0.
        -11    1    4    4    0    0 -0.20563352818E+02 -0.31117930151E+00  0.31140848900E+02  0.37318906494E+02  0.00000000000E+00 0.  1.
         11    1    4    4    0    0  0.53474154077E+02  0.64281176150E+01 -0.64784216142E+02  0.84248445157E+02  0.00000000000E+00 0. -1.
        -13    1    3    3    0    0 -0.45218099844E+02  0.36428128241E+02 -0.49902953267E+02  0.76563632525E+02  0.00000000000E+00 0.  1.
         13    1    3    3    0    0 -0.36172668467E+02 -0.25814819949E+02 -0.16011251360E+03  0.16616523067E+03  0.00000000000E+00 0. -1.
          3    1    1    2  501    0  0.48479967051E+02 -0.16730246605E+02 -0.24067498472E+02  0.56652032968E+02  0.00000000000E+00 0. -1.
<scales pt_clust_5="13000.00000" pt_clust_6="13000.00000" pt_clust_7="13000.00000" pt_clust_8="13000.00000" pt_clust_9="51.28556"></scales>
<clustering>
<clus scale="   51.286">  1  9  2 -1</clus>
<clus scale="   89.854">  7  8 -1 -1</clus>
<clus scale="  111.921">  5  6 -1 -1</clus>
<clus scale="  112.995">  2  7  1 -1</clus>
<clus scale="   51.286">  1  5  2 -1</clus>
</clustering>
</event>
<event>
 9    1  0.1464797E-005  0.1131526E+03  0.7546771E-02  0.1259338E+00
         21   -1    0    0  501  502  0.00000000000E+00  0.00000000000E+00  0.17049656564E+03  0.17049656564E+03  0.00000000000E+00 0. -1.
          1   -1    0    0  502    0 -0.00000000000E+00 -0.00000000000E+00 -0.10889537049E+03  0.10889537049E+03  0.00000000000E+00 0. -1.
         23    2    1    2    0    0  0.27220754623E+02 -0.77984347040E+02 -0.35478061224E+01  0.12316684184E+03  0.91295980930E+02 0.  0.
         23    2    1    2    0    0  0.10870400242E+02  0.50262135084E+02  0.49927481437E+02  0.10671598624E+03  0.79063901315E+02 0.  0.
        -11    1    4    4    0    0  0.26247198709E+02  0.73356179454E+01  0.54455311151E+02  0.60894233251E+02  0.00000000000E+00 0.  1.
         11    1    4    4    0    0 -0.15376798467E+02  0.42926517139E+02 -0.45278297136E+01  0.45821752986E+02  0.00000000000E+00 0. -1.
        -11    1    3    3    0    0  0.38930986506E+02 -0.21183945206E+01 -0.21227626697E+02  0.44392808437E+02  0.00000000000E+00 0.  1.
         11    1    3    3    0    0 -0.11710231883E+02 -0.75865952519E+02  0.17679820575E+02  0.78774033399E+02  0.00000000000E+00 0. -1.
          1    1    1    2  501    0 -0.38091154865E+02  0.27722211956E+02  0.15221519834E+02  0.49509108058E+02  0.00000000000E+00 0. -1.
<scales pt_clust_5="13000.00000" pt_clust_6="13000.00000" pt_clust_7="13000.00000" pt_clust_8="13000.00000" pt_clust_9="47.11111"></scales>
<clustering>
<clus scale="   47.111">  1  9  2 -1</clus>
<clus scale="   79.064">  5  6 -1 -1</clus>
<clus scale="   91.296">  7  8 -1 -1</clus>
<clus scale="  103.536">  1  5  2 -1</clus>
<clus scale="   47.111">  1  5  2 -1</clus>
</clustering>
</event>
<event>
 9    1  0.1464797E-005  0.1252145E+03  0.7546771E-02  0.1235136E+00
         21   -1    0    0  501  502  0.00000000000E+00  0.00000000000E+00  0.11769955185E+03  0.11769955185E+03  0.00000000000E+00 0. -1.
          4   -1    0    0  502    0 -0.00000000000E+00 -0.00000000000E+00 -0.54993108435E+03  0.54993108435E+03  0.00000000000E+00 0. -1.
         23    2    1    2    0    0 -0.64092808716E+02 -0.64445225910E+02 -0.37849174847E+03  0.39965024913E+03  0.90571754396E+02 0.  0.
         23    2    1    2    0    0  0.42462250851E+02  0.60029352225E+02 -0.13769061045E+03  0.18117530525E+03  0.91974024325E+02 0.  0.
        -11    1    4    4    0    0  0.67364954111E+02  0.20348159674E+02 -0.90979196185E+02  0.11501868884E+03  0.00000000000E+00 0.  1.
         11    1    4    4    0    0 -0.24902703260E+02  0.39681192550E+02 -0.46711414268E+02  0.66156616410E+02  0.00000000000E+00 0. -1.
        -13    1    3    3    0    0  0.20206457064E+02 -0.22496887109E+01 -0.10136049741E+03  0.10337945851E+03  0.00000000000E+00 0.  1.
         13    1    3    3    0    0 -0.84299265780E+02 -0.62195537199E+02 -0.27713125106E+03  0.29627079062E+03  0.00000000000E+00 0. -1.
          4    1    1    2  501    0  0.21630557865E+02  0.44158736850E+01  0.83950826423E+02  0.86805081827E+02  0.00000000000E+00 0. -1.
<scales pt_clust_5="13000.00000" pt_clust_6="13000.00000" pt_clust_7="13000.00000" pt_clust_8="13000.00000" pt_clust_9="22.07671"></scales>
<clustering>
<clus scale="   22.077">  1  9  2 -1</clus>
<clus scale="   90.572">  7  8 -1 -1</clus>
<clus scale="   91.974">  5  6 -1 -1</clus>
<clus scale="  124.188">  2  7  1 -1</clus>
<clus scale="   22.077">  1  5  2 -1</clus>
</clustering>
</event>
<event>
 9    1  0.1464797E-005  0.1089532E+03  0.7546771E-02  0.1265404E+00
         21   -1    0    0  501  502  0.00000000000E+00  0.00000000000E+00  0.23034184795E+03  0.23034184795E+03  0.00000000000E+00 0. -1.
         -1   -1    0    0    0  501 -0.00000000000E+00 -0.00000000000E+00 -0.11349997834E+03  0.11349997834E+03  0.00000000000E+00 0.  1.
         23    2    1    2    0    0 -0.49241080859E+02  0.10456528891E+02 -0.56994481065E+02  0.11626722649E+03  0.87952680706E+02 0.  0.
         23    2    1    2    0    0  0.73367326947E+02 -0.52611943287E+01  0.15727630299E+03  0.19785419552E+03  0.94868342321E+02 0.  0.
        -11    1    4    4    0    0  0.14473584203E+02 -0.45875018623E+02  0.71246456605E+02  0.85965455574E+02  0.00000000000E+00 0. -1.
         11    1    4    4    0    0  0.58893742744E+02  0.40613824294E+02  0.86029846386E+02  0.11188873995E+03  0.00000000000E+00 0.  1.
        -11    1    3    3    0    0  0.21133151605E+02 -0.15393767661E+02 -0.18170053046E+02  0.31839111282E+02  0.00000000000E+00 0. -1.
         11    1    3    3    0    0 -0.70374232464E+02  0.25850296552E+02 -0.38824428019E+02  0.84428115209E+02  0.00000000000E+00 0.  1.
         -1    1    1    2    0  502 -0.24126246088E+02 -0.51953345627E+01  0.16560047681E+02  0.29720404283E+02  0.00000000000E+00 0.  1.
<scales pt_clust_5="13000.00000" pt_clust_6="13000.00000" pt_clust_7="13000.00000" pt_clust_8="13000.00000" pt_clust_9="24.67929"></scales>
<clustering>
<clus scale="   24.679">  1  9  2 -1</clus>
<clus scale="   87.953">  7  8 -1 -1</clus>
<clus scale="   94.868">  5  6 -1 -1</clus>
<clus scale="  102.988">  2  7  1 -1</clus>
<clus scale="   24.679">  1  5  2 -1</clus>
</clustering>
</event>
<event>
 9    1  0.1464797E-005  0.2128108E+03  0.7546771E-02  0.1174115E+00
          1   -1    0    0  502    0 -0.00000000000E+00  0.00000000000E+00  0.19254711655E+03  0.19254711655E+03  0.00000000000E+00 0. -1.
         21   -1    0    0  501  502  0.00000000000E+00 -0.00000000000E+00 -0.45340037074E+03  0.45340037074E+03  0.00000000000E+00 0.  1.
         23    2    1    2    0    0 -0.95590458523E-01 -0.26245276393E+02  0.81370857688E+02  0.12455318071E+03  0.90572924619E+02 0.  0.
         23    2    1    2    0    0 -0.71642259412E+02  0.17906999190E+03 -0.19558973655E+03  0.29778001186E+03  0.11497354080E+03 0.  0.
        -11    1    3    3    0    0  0.31968612158E+02  0.99938009771E+01  0.46045617375E+01  0.33809321349E+02  0.00000000000E+00 0. -1.
         11    1    3    3    0    0 -0.32064202617E+02 -0.36239077370E+02  0.76766295950E+02  0.90743859363E+02  0.00000000000E+00 0.  1.
        -13    1    4    4    0    0 -0.51996727232E+02  0.45501226270E+02 -0.13103158668E+03  0.14813270382E+03  0.00000000000E+00 0. -1.
         13    1    4    4    0    0 -0.19645532180E+02  0.13356876563E+03 -0.64558149872E+02  0.14964730803E+03  0.00000000000E+00 0.  1.
          1    1    1    2  501    0  0.71737849870E+02 -0.15282471551E+03 -0.14663437533E+03  0.22361429472E+03  0.00000000000E+00 0. -1.
<scales pt_clust_5="13000.00000" pt_clust_6="13000.00000" pt_clust_7="13000.00000" pt_clust_8="13000.00000" pt_clust_9="179.07970"></scales>
<clustering>
<clus scale="   90.573">  5  6 -1 -1</clus>
<clus scale="   94.299">  1  5  2 -1</clus>
<clus scale="  114.974">  7  8 -1 -1</clus>
<clus scale="  179.080">  2  9  1 -1</clus>
<clus scale="  179.080">  2  5  1 -1</clus>
</clustering>
</event>
<event>
 9    1  0.1464797E-005  0.1473000E+03  0.7546771E-02  0.1204086E+00
         21   -1    0    0  501  502  0.00000000000E+00  0.00000000000E+00  0.14105322092E+03  0.14105322092E+03  0.00000000000E+00 0.  1.
         -2   -1    0    0    0  501 -0.00000000000E+00 -0.00000000000E+00 -0.28263435567E+03  0.28263435567E+03  0.00000000000E+00 0.  1.
         23    2    1    2    0    0 -0.83169077001E+02 -0.10763305810E+03 -0.17571863772E+03  0.24026244226E+03  0.91362087077E+02 0.  0.
         23    2    1    2    0    0  0.50993442159E+02  0.51984713204E+02  0.18625445450E+02  0.11729924155E+03  0.90052558543E+02 0.  0.
        -11    1    4    4    0    0 -0.10141484699E+02  0.53010935848E+02  0.15144008486E+02  0.56056667975E+02  0.00000000000E+00 0. -1.
         11    1    4    4    0    0  0.61134926859E+02 -0.10262226448E+01  0.34814369641E+01  0.61242573576E+02  0.00000000000E+00 0.  1.
        -11    1    3    3    0    0  0.13682215213E+02 -0.45990889239E+02 -0.39750403186E+02  0.62309385004E+02  0.00000000000E+00 0. -1.
         11    1    3    3    0    0 -0.96851292214E+02 -0.61642168858E+02 -0.13596823454E+03  0.17795305726E+03  0.00000000000E+00 0.  1.
         -2    1    1    2    0  502  0.32175634842E+02  0.55648344894E+02  0.15512057519E+02  0.66125892775E+02  0.00000000000E+00 0.  1.
<scales pt_clust_5="13000.00000" pt_clust_6="13000.00000" pt_clust_7="13000.00000" pt_clust_8="13000.00000" pt_clust_9="64.28071"></scales>
<clustering>
<clus scale="   64.281">  1  9  2 -1</clus>
<clus scale="   90.053">  5  6 -1 -1</clus>
<clus scale="   91.362">  7  8 -1 -1</clus>
<clus scale="  146.491">  1  5  2 -1</clus>
<clus scale="   64.281">  1  5  2 -1</clus>
</clustering>
</event>
<event>
 9    1  0.1464797E-005  0.1144126E+03  0.7546771E-02  0.1263467E+00
         21   -1    0    0  501  502  0.00000000000E+00  0.00000000000E+00  0.56484373271E+02  0.56484373271E+02  0.00000000000E+00 0. -1.
          2   -1    0    0  502    0 -0.00000000000E+00 -0.00000000000E+00 -0.71759339283E+03  0.71759339283E+03  0.00000000000E+00 0. -1.
         23    2    1    2    0    0 -0.21907205361E+02  0.45119526040E+02 -0.41708647901E+03  0.43502704123E+03  0.11301193895E+03 0.  0.
         23    2    1    2    0    0  0.25972134227E+01  0.14228342816E+02 -0.25907747751E+03  0.27485028520E+03  0.90622009824E+02 0.  0.
        -11    1    4    4    0    0  0.39094599825E+02  0.37402563469E+01 -0.20526329843E+03  0.20898659989E+03  0.00000000000E+00 0.  1.
         11    1    4    4    0    0 -0.36497386403E+02  0.10488086470E+02 -0.53814179085E+02  0.65863685310E+02  0.00000000000E+00 0. -1.
        -11    1    3    3    0    0 -0.51165172439E+02 -0.17436112714E+02 -0.20327480510E+03  0.21033910546E+03  0.00000000000E+00 0.  1.
         11    1    3    3    0    0  0.29257967078E+02  0.62555638754E+02 -0.21381167391E+03  0.22468793577E+03  0.00000000000E+00 0. -1.
          2    1    1    2  501    0  0.19309991938E+02 -0.59347868857E+02  0.15054936970E+02  0.64200439669E+02  0.00000000000E+00 0. -1.
<scales pt_clust_5="13000.00000" pt_clust_6="13000.00000" pt_clust_7="13000.00000" pt_clust_8="13000.00000" pt_clust_9="62.41030"></scales>
<clustering>
<clus scale="   62.410">  1  9  2 -1</clus>
<clus scale="   90.622">  5  6 -1 -1</clus>
<clus scale="   92.363">  1  5  2 -1</clus>
<clus scale="  113.012">  7  8 -1 -1</clus>
<clus scale="   62.410">  1  5  2 -1</clus>
</clustering>
</event>
<event>
 9    1  0.1464797E-005  0.9935920E+02  0.7546771E-02  0.1289394E+00
          1   -1    0    0  502    0 -0.00000000000E+00  0.00000000000E+00  0.18771717452E+03  0.18771717452E+03  0.00000000000E+00 0. -1.
         21   -1    0    0  501  502  0.00000000000E+00 -0.00000000000E+00 -0.10182187580E+03  0.10182187580E+03  0.00000000000E+00 0. -1.
         23    2    1    2    0    0  0.46964949867E+01  0.23768190317E+02  0.49691740983E+02  0.96552454361E+02  0.79158849064E+02 0.  0.
         23    2    1    2    0    0 -0.51403512502E+02 -0.17403192225E+02  0.75217728212E+02  0.13179702018E+03  0.93635226781E+02 0.  0.
        -13    1    4    4    0    0  0.26556923475E+02  0.20637883449E+01  0.10539404757E+02  0.28646264319E+02  0.00000000000E+00 0.  1.
         13    1    4    4    0    0 -0.77960435977E+02 -0.19466980570E+02  0.64678323455E+02  0.10315075586E+03  0.00000000000E+00 0. -1.
        -13    1    3    3    0    0  0.23733010161E+02  0.37332225164E+02  0.56916918441E+02  0.72086659042E+02  0.00000000000E+00 0.  1.
         13    1    3    3    0    0 -0.19036515174E+02 -0.13564034847E+02 -0.72251774575E+01  0.24465795319E+02  0.00000000000E+00 0. -1.
          1    1    1    2  501    0  0.46707017516E+02 -0.63649980919E+01 -0.39014170478E+02  0.61189575779E+02  0.00000000000E+00 0. -1.
<scales pt_clust_5="13000.00000" pt_clust_6="13000.00000" pt_clust_7="13000.00000" pt_clust_8="13000.00000" pt_clust_9="47.13872"></scales>
<clustering>
<clus scale="   47.139">  2  9  1 -1</clus>
<clus scale="   79.159">  7  8 -1 -1</clus>
<clus scale="   85.853">  1  7  2 -1</clus>
<clus scale="   93.635">  5  6 -1 -1</clus>
<clus scale="   47.139">  2  5  1 -1</clus>
</clustering>
</event>
<event>
 9    1  0.1464797E-005  0.1098903E+03  0.7546771E-02  0.1261240E+00
         21   -1    0    0  501  502  0.00000000000E+00  0.00000000000E+00  0.12869235504E+03  0.12869235504E+03  0.00000000000E+00 0.  1.
          1   -1    0    0  502    0 -0.00000000000E+00 -0.00000000000E+00 -0.24445780848E+03  0.24445780848E+03  0.00000000000E+00 0. -1.
         23    2    1    2    0    0  0.34976387968E+02  0.66166508453E+02 -0.17328184050E+03  0.20882183019E+03  0.89323042711E+02 0.  0.
         23    2    1    2    0    0  0.16163567673E+01 -0.16372985548E+02  0.37522975137E+02  0.99380966865E+02  0.90542341735E+02 0.  0.
        -11    1    3    3    0    0 -0.27964028865E+02  0.12459384126E+02 -0.27280690303E+02  0.41005599942E+02  0.00000000000E+00 0.  1.
         11    1    3    3    0    0  0.62940416833E+02  0.53707124326E+02 -0.14600115020E+03  0.16781623025E+03  0.00000000000E+00 0. -1.
        -13    1    4    4    0    0  0.77436435854E+01 -0.53308399953E+02  0.28175617501E+02  0.60791569671E+02  0.00000000000E+00 0.  1.
         13    1    4    4    0    0 -0.61272868180E+01  0.36935414405E+02  0.93473576366E+01  0.38589397194E+02  0.00000000000E+00 0. -1.
          1    1    1    2  501    0 -0.36592744735E+02 -0.49793522905E+02  0.19993411919E+02  0.64947366465E+02  0.00000000000E+00 0. -1.
<scales pt_clust_5="13000.00000" pt_clust_6="13000.00000" pt_clust_7="13000.00000" pt_clust_8="13000.00000" pt_clust_9="61.79340"></scales>
<clustering>
<clus scale="   61.793">  1  9  2 -1</clus>
<clus scale="   89.323">  5  6 -1 -1</clus>
<clus scale="   90.542">  7  8 -1 -1</clus>
<clus scale="  108.888">  2  5  1 -1</clus>
<clus scale="   61.793">  1  5  2 -1</clus>
</clustering>
</event>
<event>
 9    1  0.1464797E-005  0.1627134E+03  0.7546771E-02  0.1190910E+00
         21   -1    0    0  501  502  0.00000000000E+00  0.00000000000E+00  0.11429638516E+03  0.11429638516E+03  0.00000000000E+00 0.  1.
          1   -1    0    0  502    0 -0.00000000000E+00 -0.00000000000E+00 -0.29309488702E+03  0.29309488702E+03  0.00000000000E+00 0. -1.
         23    2    1    2    0    0  0.83393557685E+02  0.80974689318E+02 -0.11093845146E+03  0.19824830785E+03  0.11611918781E+03 0.  0.
         23    2    1    2    0    0 -0.98081949405E+02 -0.57208754408E+02 -0.92750599691E+02  0.17172494786E+03  0.89408464888E+02 0.  0.
        -11    1    3    3    0    0  0.52199557508E+02 -0.25053551275E+01  0.44540231894E+01  0.52449108009E+02  0.00000000000E+00 0.  1.
         11    1    3    3    0    0  0.31194000177E+02  0.83480044446E+02 -0.11539247465E+03  0.14579919984E+03  0.00000000000E+00 0. -1.
        -13    1    4    4    0    0 -0.68298970304E+02 -0.59544468831E+02 -0.19595931794E+02  0.92705413304E+02  0.00000000000E+00 0.  1.
         13    1    4    4    0    0 -0.29782979101E+02  0.23357144229E+01 -0.73154667897E+02  0.79019534554E+02  0.00000000000E+00 0. -1.
          1    1    1    2  501    0  0.14688391721E+02 -0.23765934910E+02  0.24890549287E+02  0.37418016480E+02  0.00000000000E+00 0. -1.
<scales pt_clust_5="13000.00000" pt_clust_6="13000.00000" pt_clust_7="13000.00000" pt_clust_8="13000.00000" pt_clust_9="27.93866"></scales>
<clustering>
<clus scale="   27.939">  1  9  2 -1</clus>
<clus scale="   89.408">  7  8 -1 -1</clus>
<clus scale="  116.119">  5  6 -1 -1</clus>
<clus scale="  144.865">  1  7  2 -1</clus>
<clus scale="   27.939">  1  5  2 -1</clus>
</clustering>
</event>
<event>
 9    1  0.1464797E-005  0.1120501E+03  0.7546771E-02  0.1261290E+00
         21   -1    0    0  501  502  0.00000000000E+00  0.00000000000E+00  0.15954880451E+03  0.15954880451E+03  0.00000000000E+00 0. -1.
          3   -1    0    0  502    0 -0.00000000000E+00 -0.00000000000E+00 -0.19156457271E+03  0.19156457271E+03  0.00000000000E+00 0. -1.
         23    2    1    2    0    0  0.51092652223E+02 -0.18114392127E+02 -0.11896797722E+03  0.16446144052E+03  0.99777730487E+02 0.  0.
         23    2    1    2    0    0 -0.46390722627E+02 -0.35445283716E+01  0.37407110607E+01  0.10053939191E+03  0.89047816251E+02 0.  0.
        -11    1    4    4    0    0 -0.21240653809E+02  0.34853260946E+02 -0.23565548680E+02  0.47130141708E+02  0.00000000000E+00 0.  1.
         11    1    4    4    0    0 -0.25150068818E+02 -0.38397789318E+02  0.27306259741E+02  0.53409250202E+02  0.00000000000E+00 0. -1.
        -13    1    3    3    0    0 -0.22266050702E+02 -0.32024722390E-01  0.14390107573E+01  0.22312525437E+02  0.00000000000E+00 0.  1.
         13    1    3    3    0    0  0.73358702925E+02 -0.18082367405E+02 -0.12040698798E+03  0.14214891508E+03  0.00000000000E+00 0. -1.
          3    1    1    2  501    0 -0.47019295964E+01  0.21658920499E+02  0.83211497950E+02  0.86112544790E+02  0.00000000000E+00 0. -1.
<scales pt_clust_5="13000.00000" pt_clust_6="13000.00000" pt_clust_7="13000.00000" pt_clust_8="13000.00000" pt_clust_9="22.16342"></scales>
<clustering>
<clus scale="   22.163">  1  9  2 -1</clus>
<clus scale="   89.048">  5  6 -1 -1</clus>
<clus scale="   99.778">  7  8 -1 -1</clus>
<clus scale="  102.612">  1  5  2 -1</clus>
<clus scale="   22.163">  1  5  2 -1</clus>
</clustering>
</event>
<event>
 9    1  0.1464797E-005  0.1964124E+03  0.7546771E-02  0.1152848E+00
         21   -1    0    0  501  502  0.00000000000E+00  0.00000000000E+00  0.34976328033E+03  0.34976328033E+03  0.00000000000E+00 0. -1.
          4   -1    0    0  502    0 -0.00000000000E+00 -0.00000000000E+00 -0.39735573932E+03  0.39735573932E+03  0.00000000000E+00 0. -1.
         23    2    1    2    0    0  0.14605808094E+02  0.20038676732E+03 -0.26937450697E+03  0.34833453064E+03  0.91684971976E+02 0.  0.
         23    2    1    2    0    0  0.65465730934E+01 -0.12420478940E+03 -0.93226607619E+01  0.15452949236E+03  0.91229187632E+02 0.  0.
        -11    1    4    4    0    0 -0.15130375221E+02 -0.13006878266E+03 -0.13666595544E+02  0.13165710126E+03  0.00000000000E+00 0.  1.
         11    1    4    4    0    0  0.21676948314E+02  0.58639932652E+01  0.43439347818E+01  0.22872391100E+02  0.00000000000E+00 0. -1.
        -13    1    3    3    0    0  0.36043024812E+02  0.19408799544E+03 -0.23033868037E+03  0.30335648549E+03  0.00000000000E+00 0. -1.
         13    1    3    3    0    0 -0.21437216718E+02  0.62987718772E+01 -0.39035826597E+02  0.44978045154E+02  0.00000000000E+00 0.  1.
          4    1    1    2  501    0 -0.21152381188E+02 -0.76181977919E+02  0.23110470874E+03  0.24425499666E+03  0.00000000000E+00 0. -1.
<scales pt_clust_5="13000.00000" pt_clust_6="13000.00000" pt_clust_7="13000.00000" pt_clust_8="13000.00000" pt_clust_9="79.06401"></scales>
<clustering>
<clus scale="   79.064">  1  9  2 -1</clus>
<clus scale="   91.229">  5  6 -1 -1</clus>
<clus scale="   91.685">  7  8 -1 -1</clus>
<clus scale="  196.200">  1  5  2 -1</clus>
<clus scale="   79.064">  1  5  2 -1</clus>
</clustering>
</event>
<event>
 9    1  0.1464797E-005  0.9651419E+02  0.7546771E-02  0.1290090E+00
         21   -1    0    0  501  502  0.00000000000E+00  0.00000000000E+00  0.55728285515E+02  0.55728285515E+02  0.00000000000E+00 0. -1.
         -2   -1    0    0    0  501 -0.00000000000E+00 -0.00000000000E+00 -0.28174987051E+03  0.28174987051E+03  0.00000000000E+00 0.  1.
         23    2    1    2    0    0  0.11526607518E+02  0.43120861685E+02 -0.11913241278E+03  0.15630115762E+03  0.90803351842E+02 0.  0.
         23    2    1    2    0    0 -0.33181291043E+02 -0.48492483366E+01 -0.10046829445E+03  0.13673749595E+03  0.86479774067E+02 0.  0.
        -13    1    4    4    0    0  0.58149705103E+01 -0.32034136370E+02 -0.77256430962E+02  0.83836483108E+02  0.00000000000E+00 0.  1.
         13    1    4    4    0    0 -0.38996261554E+02  0.27184888033E+02 -0.23211863491E+02  0.52901012838E+02  0.00000000000E+00 0. -1.
        -13    1    3    3    0    0  0.48102556682E+02  0.36025722928E+02 -0.93240319861E+02  0.11093000460E+03  0.00000000000E+00 0.  1.
         13    1    3    3    0    0 -0.36575949164E+02  0.70951387567E+01 -0.25892092922E+02  0.45371153028E+02  0.00000000000E+00 0. -1.
         -2    1    1    2    0  502  0.21654683526E+02 -0.38271613349E+02 -0.64208777557E+01  0.44439502451E+02  0.00000000000E+00 0.  1.
<scales pt_clust_5="13000.00000" pt_clust_6="13000.00000" pt_clust_7="13000.00000" pt_clust_8="13000.00000" pt_clust_9="43.97319"></scales>
<clustering>
<clus scale="   43.973">  1  9  2 -1</clus>
<clus scale="   86.480">  5  6 -1 -1</clus>
<clus scale="   90.803">  7  8 -1 -1</clus>
<clus scale="   92.458">  1  5  2 -1</clus>
<clus scale="   43.973">  1  5  2 -1</clus>
</clustering>
</event>
<event>
 9    1  0.1464797E-005  0.1917815E+03  0.7546771E-02  0.1157252E+00
          1   -1    0    0  502    0 -0.00000000000E+00  0.00000000000E+00  0.79883695817E+03  0.79883695817E+03  0.00000000000E+00 0. -1.
         21   -1    0    0  501  502  0.00000000000E+00 -0.00000000000E+00 -0.74597729768E+02  0.74597729768E+02  0.00000000000E+00 0. -1.
         23    2    1    2    0    0  0.13419530184E+03  0.11063388746E+03  0.49849462902E+03  0.53491605864E+03  0.85965449703E+02 0.  0.
         23    2    1    2    0    0 -0.82297549131E+02 -0.14491926798E+03  0.15807316328E+03  0.24660406398E+03  0.89732706386E+02 0.  0.
        -11    1    4    4    0    0 -0.23939656202E+02  0.71883014311E+01  0.11737043289E+02  0.27614072530E+02  0.00000000000E+00 0.  1.
         11    1    4    4    0    0 -0.58357892928E+02 -0.15210756941E+03  0.14633611999E+03  0.21898999145E+03  0.00000000000E+00 0. -1.
        -11    1    3    3    0    0  0.28587196373E+02  0.75550986297E+02  0.17314783738E+03  0.19106374045E+03  0.00000000000E+00 0.  1.
         11    1    3    3    0    0  0.10560810546E+03  0.35082901167E+02  0.32534679164E+03  0.34385231819E+03  0.00000000000E+00 0. -1.
          1    1    1    2  501    0 -0.51897752706E+02  0.34285380519E+02  0.67671436100E+02  0.91914565315E+02  0.00000000000E+00 0. -1.
<scales pt_clust_5="13000.00000" pt_clust_6="13000.00000" pt_clust_7="13000.00000" pt_clust_8="13000.00000" pt_clust_9="62.20019"></scales>
<clustering>
<clus scale="   62.200">  2  9  1 -1</clus>
<clus scale="   85.965">  7  8 -1 -1</clus>
<clus scale="   89.733">  5  6 -1 -1</clus>
<clus scale="  190.048">  1  7  2 -1</clus>
<clus scale="   62.200">  2  5  1 -1</clus>
</clustering>
</event>
<event>
 9    1  0.1464797E-005  0.1169362E+03  0.7546771E-02  0.1248660E+00
         21   -1    0    0  501  502  0.00000000000E+00  0.00000000000E+00  0.17919242978E+03  0.17919242978E+03  0.00000000000E+00 0. -1.
         -1   -1    0    0    0  501 -0.00000000000E+00 -0.00000000000E+00 -0.37131205058E+03  0.37131205058E+03  0.00000000000E+00 0.  1.
         23    2    1    2    0    0 -0.64267203506E+02 -0.12406052045E+02 -0.26638482575E+03  0.28940072628E+03  0.92237310289E+02 0.  0.
         23    2    1    2    0    0  0.14050114744E+03 -0.17627569670E+02  0.52777032910E+02  0.17639617366E+03  0.90988412640E+02 0.  0.
        -11    1    3    3    0    0  0.12718742489E+00 -0.42123411503E+02 -0.94858444376E+02  0.10379076280E+03  0.00000000000E+00 0. -1.
         11    1    3    3    0    0 -0.64394390931E+02  0.29717359459E+02 -0.17152638138E+03  0.18560996348E+03  0.00000000000E+00 0.  1.
        -11    1    4    4    0    0  0.64996082912E+02 -0.15096856266E+02  0.72281183618E+02  0.98371618713E+02  0.00000000000E+00 0.  1.
         11    1    4    4    0    0  0.75505064533E+02 -0.25307134035E+01 -0.19504150708E+02  0.78024554951E+02  0.00000000000E+00 0. -1.
         -1    1    1    2    0  502 -0.76233943939E+02  0.30033621714E+02  0.21488172038E+02  0.84707580412E+02  0.00000000000E+00 0.  1.
<scales pt_clust_5="13000.00000" pt_clust_6="13000.00000" pt_clust_7="13000.00000" pt_clust_8="13000.00000" pt_clust_9="81.93676"></scales>
<clustering>
<clus scale="   81.937">  1  9  2 -1</clus>
<clus scale="   90.988">  7  8 -1 -1</clus>
<clus scale="   92.237">  5  6 -1 -1</clus>
<clus scale="  115.954">  1  7  2 -1</clus>
<clus scale="   81.937">  1  5  2 -1</clus>
</clustering>
</event>
<event>
 9    1  0.1464797E-005  0.1037235E+03  0.7546771E-02  0.1273069E+00
          1   -1    0    0  502    0 -0.00000000000E+00  0.00000000000E+00  0.37859538221E+03  0.37859538221E+03  0.00000000000E+00 0. -1.
         21   -1    0    0  501  502  0.00000000000E+00 -0.00000000000E+00 -0.17104351905E+03  0.17104351905E+03  0.00000000000E+00 0. -1.
         23    2    1    2    0    0  0.47003008124E+02  0.10980030689E+02  0.27453098178E+03  0.29350975621E+03  0.91928630936E+02 0.  0.
         23    2    1    2    0    0 -0.42646507120E+01 -0.36826088646E+02 -0.13732025702E+03  0.16985944204E+03  0.92849496564E+02 0.  0.
        -13    1    4    4    0    0  0.82805203373E+01  0.30434092296E+02 -0.44761906480E+02  0.54757915068E+02  0.00000000000E+00 0. -1.
         13    1    4    4    0    0 -0.12545171049E+02 -0.67260180941E+02 -0.92558350540E+02  0.11510152697E+03  0.00000000000E+00 0.  1.
        -13    1    3    3    0    0 -0.26055327863E+02  0.88746036922E+01  0.46327857016E+02  0.53887930340E+02  0.00000000000E+00 0. -1.
         13    1    3    3    0    0  0.73058335986E+02  0.21054269969E+01  0.22820312476E+03  0.23962182587E+03  0.00000000000E+00 0.  1.
          1    1    1    2  501    0 -0.42738357412E+02  0.25846057956E+02  0.70341138398E+02  0.86269703009E+02  0.00000000000E+00 0. -1.
<scales pt_clust_5="13000.00000" pt_clust_6="13000.00000" pt_clust_7="13000.00000" pt_clust_8="13000.00000" pt_clust_9="49.94585"></scales>
<clustering>
<clus scale="   49.946">  2  9  1 -1</clus>
<clus scale="   91.929">  7  8 -1 -1</clus>
<clus scale="   92.849">  5  6 -1 -1</clus>
<clus scale="  102.900">  1  7  2 -1</clus>
<clus scale="   49.946">  2  5  1 -1</clus>
</clustering>
</event>
<event>
 9    1  0.1464797E-005  0.1002605E+03  0.7546771E-02  0.1280768E+00
          2   -1    0    0  502    0 -0.00000000000E+00  0.00000000000E+00  0.96730793173E+02  0.96730793173E+02  0.00000000000E+00 0. -1.
         21   -1    0    0  501  502  0.00000000000E+00 -0.00000000000E+00 -0.25740421751E+03  0.25740421751E+03  0.00000000000E+00 0. -1.
         23    2    1    2    0    0  0.28410494645E+02  0.18587212741E+02  0.27743458497E+02  0.10258266363E+03  0.92740836228E+02 0.  0.
         23    2    1    2    0    0 -0.26825922483E+02 -0.43257712185E+02 -0.58483723505E+02  0.11928832963E+03  0.90655942391E+02 0.  0.
        -11    1    4    4    0    0 -0.53163493600E+02 -0.14119082715E+02 -0.58100928391E+02  0.80008895932E+02  0.00000000000E+00 0.  1.
         11    1    4    4    0    0  0.26337571117E+02 -0.29138629469E+02 -0.38279511482E+00  0.39279433700E+02  0.00000000000E+00 0. -1.
        -13    1    3    3    0    0  0.18437506466E+01  0.42925382385E+02 -0.16057051937E+02  0.45867382596E+02  0.00000000000E+00 0.  1.
         13    1    3    3    0    0  0.26566743999E+02 -0.24338169644E+02  0.43800510433E+02  0.56715281032E+02  0.00000000000E+00 0. -1.
          2    1    1    2  501    0 -0.15845721622E+01  0.24670499444E+02 -0.12993315932E+03  0.13226401742E+03  0.00000000000E+00 0. -1.
<scales pt_clust_5="13000.00000" pt_clust_6="13000.00000" pt_clust_7="13000.00000" pt_clust_8="13000.00000" pt_clust_9="24.72134"></scales>
<clustering>
<clus scale="   24.721">  2  9  1 -1</clus>
<clus scale="   90.656">  5  6 -1 -1</clus>
<clus scale="   92.741">  7  8 -1 -1</clus>
<clus scale="   98.335">  2  5  1 -1</clus>
<clus scale="   24.721">  2  5  1 -1</clus>
</clustering>
</event>
<event>
 9    1  0.1464797E-005  0.1091165E+03  0.7546771E-02  0.1263150E+00
         21   -1    0    0  501  502  0.00000000000E+00  0.00000000000E+00  0.10687275647E+03  0.10687275647E+03  0.00000000000E+00 0. -1.
          1   -1    0    0  502    0 -0.00000000000E+00 -0.00000000000E+00 -0.28225207945E+03  0.28225207945E+03  0.00000000000E+00 0. -1.
         23    2    1    2    0    0  0.22960428080E+02 -0.66927366733E+02 -0.19603971662E+03  0.22673834124E+03  0.89287463955E+02 0.  0.
         23    2    1    2    0    0 -0.12716065546E+02  0.28935519813E+02 -0.26945639650E+02  0.10062354623E+03  0.91651884486E+02 0.  0.
        -11    1    4    4    0    0 -0.21745402792E+02 -0.27250051366E+02 -0.26372365787E+02  0.43714179842E+02  0.00000000000E+00 0.  1.
         11    1    4    4    0    0  0.90293372464E+01  0.56185571178E+02 -0.57327386298E+00  0.56909366388E+02  0.00000000000E+00 0. -1.
        -13    1    3    3    0    0  0.17995161455E+02  0.19952311936E+02 -0.48635210891E+02  0.55563516140E+02  0.00000000000E+00 0.  1.
         13    1    3    3    0    0  0.49652666243E+01 -0.86879678669E+02 -0.14740450573E+03  0.17117482510E+03  0.00000000000E+00 0. -1.
          1    1    1    2  501    0 -0.10244362534E+02  0.37991846921E+02  0.47606033293E+02  0.61762948457E+02  0.00000000000E+00 0. -1.
<scales pt_clust_5="13000.00000" pt_clust_6="13000.00000" pt_clust_7="13000.00000" pt_clust_8="13000.00000" pt_clust_9="39.34879"></scales>
<clustering>
<clus scale="   39.349">  1  9  2 -1</clus>
<clus scale="   89.287">  7  8 -1 -1</clus>
<clus scale="   91.652">  5  6 -1 -1</clus>
<clus scale="  107.138">  2  7  1 -1</clus>
<clus scale="   39.349">  1  5  2 -1</clus>
</clustering>
</event>
<event>
 9    1  0.1464797E-005  0.1424811E+03  0.7546771E-02  0.1220485E+00
         21   -1    0    0  501  502  0.00000000000E+00  0.00000000000E+00  0.38373567897E+03  0.38373567897E+03  0.00000000000E+00 0.  1.
          2   -1    0    0  502    0 -0.00000000000E+00 -0.00000000000E+00 -0.11639763723E+03  0.11639763723E+03  0.00000000000E+00 0. -1.
         23    2    1    2    0    0 -0.33293072955E+02  0.63128130334E+02  0.67227905727E+02  0.13251375680E+03  0.89144348589E+02 0.  0.
         23    2    1    2    0    0 -0.80274094993E+02 -0.37560612455E+02 -0.89676222396E+01  0.12831910265E+03  0.92361485060E+02 0.  0.
        -11    1    4    4    0    0 -0.14073041881E+01 -0.30576441767E+02  0.27500963664E+02  0.41148539447E+02  0.00000000000E+00 0. -1.
         11    1    4    4    0    0 -0.78866790805E+02 -0.69841706878E+01 -0.36468585903E+02  0.87170563207E+02  0.00000000000E+00 0.  1.
        -13    1    3    3    0    0 -0.26209092508E+02  0.47738724200E+01  0.68729467253E+02  0.73711912584E+02  0.00000000000E+00 0.  1.
         13    1    3    3    0    0 -0.70839804469E+01  0.58354257914E+02 -0.15015615254E+01  0.58801844212E+02  0.00000000000E+00 0. -1.
          2    1    1    2  501    0  0.11356716795E+03 -0.25567517879E+02  0.20907775825E+03  0.23930045675E+03  0.00000000000E+00 0. -1.
<scales pt_clust_5="13000.00000" pt_clust_6="13000.00000" pt_clust_7="13000.00000" pt_clust_8="13000.00000" pt_clust_9="108.49067"></scales>
<clustering>
<clus scale="   89.144">  7  8 -1 -1</clus>
<clus scale="   92.361">  5  6 -1 -1</clus>
<clus scale="  114.194">  2  7  1 -1</clus>
<clus scale="  108.491">  1  9  2 -1</clus>
<clus scale="  108.491">  1  5  2 -1</clus>
</clustering>
</event>
<event>
 9    1  0.1464797E-005  0.1696982E+03  0.7546771E-02  0.1178468E+00
          1   -1    0    0  502    0 -0.00000000000E+00  0.00000000000E+00  0.58299320691E+03  0.58299320691E+03  0.00000000000E+00 0. -1.
         21   -1    0    0  501  502  0.00000000000E+00 -0.00000000000E+00 -0.72333950979E+02  0.72333950979E+02  0.00000000000E+00 0. -1.
         23    2    1    2    0    0  0.11090881031E+03  0.98460479035E+02  0.31946008025E+03  0.36477068718E+03  0.94908804741E+02 0.  0.
         23    2    1    2    0    0 -0.12466299324E+03 -0.46507714171E+02  0.12222491975E+03  0.20311668968E+03  0.92809639902E+02 0.  0.
        -13    1    3    3    0    0  0.80780821348E+02  0.95012427561E+01  0.16586286633E+03  0.18473306455E+03  0.00000000000E+00 0.  1.
         13    1    3    3    0    0  0.30127988963E+02  0.88959236279E+02  0.15359721392E+03  0.18003762263E+03  0.00000000000E+00 0. -1.
        -13    1    4    4    0    0  0.20315891763E+00 -0.35574253757E+02  0.16848423649E+02  0.39362903646E+02  0.00000000000E+00 0.  1.
         13    1    4    4    0    0 -0.12486615215E+03 -0.10933460414E+02  0.10537649610E+03  0.16375378604E+03  0.00000000000E+00 0. -1.
          1    1    1    2  501    0  0.13754182924E+02 -0.51952764863E+02  0.68974255927E+02  0.87439781024E+02  0.00000000000E+00 0. -1.
<scales pt_clust_5="13000.00000" pt_clust_6="13000.00000" pt_clust_7="13000.00000" pt_clust_8="13000.00000" pt_clust_9="53.74263"></scales>
<clustering>
<clus scale="   53.743">  2  9  1 -1</clus>
<clus scale="   92.810">  7  8 -1 -1</clus>
<clus scale="   94.909">  5  6 -1 -1</clus>
<clus scale="  168.533">  2  7  1 -1</clus>
<clus scale="   53.743">  2  5  1 -1</clus>
</clustering>
</event>
<event>
 9    1  0.1464797E-005  0.1088487E+03  0.7546771E-02  0.1264294E+00
         21   -1    0    0  501  502  0.00000000000E+00  0.00000000000E+00  0.33495481824E+03  0.33495481824E+03  0.00000000000E+00 0. -1.
         -1   -1    0    0    0  501 -0.00000000000E+00 -0.00000000000E+00 -0.11770299243E+03  0.11770299243E+03  0.00000000000E+00 0.  1.
         23    2    1    2    0    0 -0.32731750423E+02  0.55855391819E+02 -0.49596804059E+02  0.12158479930E+03  0.90176649786E+02 0.  0.
         23    2    1    2    0    0 -0.41810666494E+02 -0.18750917274E+02  0.19417275366E+03  0.22055108172E+03  0.94021235103E+02 0.  0.
        -11    1    3    3    0    0 -0.10541298052E+02 -0.20847319467E+02 -0.32337096353E+02  0.39892574423E+02  0.00000000000E+00 0. -1.
         11    1    3    3    0    0 -0.22190452371E+02  0.76702711285E+02 -0.17259707706E+02  0.81692224875E+02  0.00000000000E+00 0.  1.
        -13    1    4    4    0    0 -0.61758668146E+02  0.15695165250E+02  0.13434873148E+03  0.14869449537E+03  0.00000000000E+00 0.  1.
         13    1    4    4    0    0  0.19948001652E+02 -0.34446082524E+02  0.59824022179E+02  0.71856586343E+02  0.00000000000E+00 0. -1.
         -1    1    1    2    0  502  0.74542416917E+02 -0.37104474545E+02  0.72675876207E+02  0.11052192965E+03  0.00000000000E+00 0.  1.
<scales pt_clust_5="13000.00000" pt_clust_6="13000.00000" pt_clust_7="13000.00000" pt_clust_8="13000.00000" pt_clust_9="83.26652"></scales>
<clustering>
<clus scale="   83.267">  1  9  2 -1</clus>
<clus scale="   90.177">  5  6 -1 -1</clus>
<clus scale="   94.021">  7  8 -1 -1</clus>
<clus scale="  105.546">  2  5  1 -1</clus>
<clus scale="   83.267">  1  5  2 -1</clus>
</clustering>
</event>
<event>
 9    1  0.1464797E-005  0.1434246E+03  0.7546771E-02  0.1209375E+00
          1   -1    0    0  502    0 -0.00000000000E+00  0.00000000000E+00  0.37262500103E+03  0.37262500103E+03  0.00000000000E+00 0. -1.
         21   -1    0    0  501  502  0.00000000000E+00 -0.00000000000E+00 -0.15648204693E+03  0.15648204693E+03  0.00000000000E+00 0. -1.
         23    2    1    2    0    0  0.11593131203E+03 -0.26453173203E+02  0.22965128554E+03  0.27420127792E+03  0.91141584271E+02 0.  0.
         23    2    1    2    0    0 -0.90142524227E+02  0.15708560643E+02  0.82516994824E+02  0.15489891248E+03  0.93873239537E+02 0.  0.
        -13    1    4    4    0    0 -0.66637371080E+02  0.53023201601E+02  0.41750895679E+02  0.94842693037E+02  0.00000000000E+00 0.  1.
         13    1    4    4    0    0 -0.23505153147E+02 -0.37314640958E+02  0.40766099145E+02  0.60056219443E+02  0.00000000000E+00 0. -1.
        -13    1    3    3    0    0  0.78088122150E+02 -0.20005855575E+02  0.60605430379E+02  0.10085141184E+03  0.00000000000E+00 0. -1.
         13    1    3    3    0    0  0.37843189878E+02 -0.64473176288E+01  0.16904585516E+03  0.17334986609E+03  0.00000000000E+00 0.  1.
          1    1    1    2  501    0 -0.25788787801E+02  0.10744612561E+02 -0.96025326259E+02  0.10000685756E+03  0.00000000000E+00 0. -1.
<scales pt_clust_5="13000.00000" pt_clust_6="13000.00000" pt_clust_7="13000.00000" pt_clust_8="13000.00000" pt_clust_9="27.93758"></scales>
<clustering>
<clus scale="   27.938">  2  9  1 -1</clus>
<clus scale="   91.142">  7  8 -1 -1</clus>
<clus scale="   93.873">  5  6 -1 -1</clus>
<clus scale="  141.652">  1  7  2 -1</clus>
<clus scale="   27.938">  2  5  1 -1</clus>
</clustering>
</event>
<event>
 9    1  0.1464797E-005  0.1146882E+03  0.7546771E-02  0.1253721E+00
          1   -1    0    0  502    0 -0.00000000000E+00  0.00000000000E+00  0.30807332601E+03  0.30807332601E+03  0.00000000000E+00 0. -1.
         21   -1    0    0  501  502  0.00000000000E+00 -0.00000000000E+00 -0.46050872915E+03  0.46050872915E+03  0.00000000000E+00 0. -1.
         23    2    1    2    0    0  0.16345214787E+02 -0.64758188606E+02  0.25825646345E+03  0.28334706248E+03  0.95542492450E+02 0.  0.
         23    2    1    2    0    0  0.47261702693E+02 -0.23906740080E+02 -0.83728253666E+02  0.14054308140E+03  0.99683180657E+02 0.  0.
        -13    1    3    3    0    0 -0.26453567997E+02 -0.19068462121E+02  0.23004121097E+02  0.39907231110E+02  0.00000000000E+00 0.  1.
         13    1    3    3    0    0  0.42798782784E+02 -0.45689726485E+02  0.23525234235E+03  0.24343983137E+03  0.00000000000E+00 0. -1.
        -13    1    4    4    0    0  0.37503772484E+02  0.36050158595E+02 -0.35486376099E+02  0.62971658497E+02  0.00000000000E+00 0.  1.
         13    1    4    4    0    0  0.97579302091E+01 -0.59956898675E+02 -0.48241877567E+02  0.77571422907E+02  0.00000000000E+00 0. -1.
          1    1    1    2  501    0 -0.63606917480E+02  0.88664928686E+02 -0.32696361292E+03  0.34469191128E+03  0.00000000000E+00 0. -1.
<scales pt_clust_5="13000.00000" pt_clust_6="13000.00000" pt_clust_7="13000.00000" pt_clust_8="13000.00000" pt_clust_9="109.12062"></scales>
<clustering>
<clus scale="   95.542">  5  6 -1 -1</clus>
<clus scale="   99.683">  7  8 -1 -1</clus>
<clus scale="  109.121">  2  9  1 -1</clus>
<clus scale="  111.108">  1  5  2 -1</clus>
<clus scale="  109.121">  2  5  1 -1</clus>
</clustering>
</event>
<event>
 9    1  0.1464797E-005  0.9635857E+02  0.7546771E-02  0.1289888E+00
          1   -1    0    0  502    0 -0.00000000000E+00  0.00000000000E+00  0.44320461754E+03  0.44320461754E+03  0.00000000000E+00 0. -1.
         21   -1    0    0  501  502  0.00000000000E+00 -0.00000000000E+00 -0.41733557128E+02  0.41733557128E+02  0.00000000000E+00 0. -1.
         23    2    1    2    0    0 -0.14345567953E+02  0.34173690805E+02  0.26927211680E+03  0.28588021444E+03  0.88579837762E+02 0.  0.
         23    2    1    2    0    0  0.50494656543E-01 -0.17190959779E+02  0.14569424181E+03  0.17307940471E+03  0.91837555450E+02 0.  0.
        -11    1    3    3    0    0  0.24539522471E+02  0.39937968784E+02  0.20698138766E+03  0.21222281769E+03  0.00000000000E+00 0. -1.
         11    1    3    3    0    0 -0.38885090424E+02 -0.57642779791E+01  0.62290729146E+02  0.73657396747E+02  0.00000000000E+00 0.  1.
        -11    1    4    4    0    0  0.91300175247E+01  0.34675413129E+02  0.87701522147E+02  0.94748606758E+02  0.00000000000E+00 0. -1.
         11    1    4    4    0    0 -0.90795228682E+01 -0.51866372908E+02  0.57992719658E+02  0.78330797950E+02  0.00000000000E+00 0.  1.
          1    1    1    2  501    0  0.14295073297E+02 -0.16982731026E+02 -0.13495298194E+02  0.25978555522E+02  0.00000000000E+00 0. -1.
<scales pt_clust_5="13000.00000" pt_clust_6="13000.00000" pt_clust_7="13000.00000" pt_clust_8="13000.00000" pt_clust_9="22.19825"></scales>
<clustering>
<clus scale="   22.198">  2  9  1 -1</clus>
<clus scale="   88.580">  5  6 -1 -1</clus>
<clus scale="   91.838">  7  8 -1 -1</clus>
<clus scale="   93.259">  1  5  2 -1</clus>
<clus scale="   22.198">  2  5  1 -1</clus>
</clustering>
</event>
<event>
 9    1  0.1464797E-005  0.1569663E+03  0.7546771E-02  0.1215651E+00
         -3   -1    0    0    0  501 -0.00000000000E+00  0.00000000000E+00  0.54625674963E+02  0.54625674963E+02  0.00000000000E+00 0.  1.
         21   -1    0    0  501  502  0.00000000000E+00 -0.00000000000E+00 -0.81402861040E+03  0.81402861040E+03  0.00000000000E+00 0.  1.
         23    2    1    2    0    0 -0.25610734976E+02 -0.42268645118E+01 -0.15380747286E+03  0.18055139223E+03  0.90930140200E+02 0.  0.
         23    2    1    2    0    0 -0.12546803092E+02  0.13172678949E+03 -0.16422194291E+03  0.22710092737E+03  0.84241411093E+02 0.  0.
        -11    1    3    3    0    0 -0.50038453301E+02 -0.15734270345E+02 -0.47154990680E+02  0.70533731066E+02  0.00000000000E+00 0.  1.
         11    1    3    3    0    0  0.24427718324E+02  0.11507405833E+02 -0.10665248218E+03  0.11001766116E+03  0.00000000000E+00 0. -1.
        -11    1    4    4    0    0 -0.34580810979E+02  0.13022958575E+03 -0.14274998611E+03  0.19629858896E+03  0.00000000000E+00 0.  1.
         11    1    4    4    0    0  0.22034007887E+02  0.14972037309E+01 -0.21471956792E+02  0.30802338403E+02  0.00000000000E+00 0. -1.
         -3    1    1    2    0  502  0.38157538068E+02 -0.12749992497E+03 -0.44137351967E+03  0.46100196577E+03  0.00000000000E+00 0.  1.
<scales pt_clust_5="13000.00000" pt_clust_6="13000.00000" pt_clust_7="13000.00000" pt_clust_8="13000.00000" pt_clust_9="132.44550"></scales>
<clustering>
<clus scale="   84.241">  7  8 -1 -1</clus>
<clus scale="   90.930">  5  6 -1 -1</clus>
<clus scale="   94.563">  1  5  2 -1</clus>
<clus scale="  132.446">  2  9  1 -1</clus>
<clus scale="  132.446">  2  5  1 -1</clus>
</clustering>
</event>
<event>
 9    1  0.1464797E-005  0.1170614E+03  0.7546771E-02  0.1248137E+00
          1   -1    0    0  502    0 -0.00000000000E+00  0.00000000000E+00  0.36904780220E+02  0.36904780220E+02  0.00000000000E+00 0. -1.
         21   -1    0    0  501  502  0.00000000000E+00 -0.00000000000E+00 -0.79081700007E+03  0.79081700007E+03  0.00000000000E+00 0. -1.
         23    2    1    2    0    0  0.19437464575E+02 -0.73585036080E+02 -0.96407534454E+02  0.15286885970E+03  0.91004961423E+02 0.  0.
         23    2    1    2    0    0  0.15678559478E+02  0.69124009605E+02 -0.45836160706E+03  0.47258823867E+03  0.90666060739E+02 0.  0.
        -11    1    3    3    0    0  0.14444022424E+02  0.20131569884E+02 -0.19368999453E+02  0.31449451976E+02  0.00000000000E+00 0.  1.
         11    1    3    3    0    0  0.49934421515E+01 -0.93716605964E+02 -0.77038535002E+02  0.12141940773E+03  0.00000000000E+00 0. -1.
        -13    1    4    4    0    0 -0.60801305309E+01 -0.20384872190E+02 -0.58329652935E+02  0.62087514148E+02  0.00000000000E+00 0. -1.
         13    1    4    4    0    0  0.21758690009E+02  0.89508881795E+02 -0.40003195412E+03  0.41050072452E+03  0.00000000000E+00 0.  1.
          1    1    1    2  501    0 -0.35116024053E+02  0.44610264755E+01 -0.19914307834E+03  0.20226468192E+03  0.00000000000E+00 0. -1.
<scales pt_clust_5="13000.00000" pt_clust_6="13000.00000" pt_clust_7="13000.00000" pt_clust_8="13000.00000" pt_clust_9="35.39825"></scales>
<clustering>
<clus scale="   35.398">  2  9  1 -1</clus>
<clus scale="   90.666">  7  8 -1 -1</clus>
<clus scale="   91.005">  5  6 -1 -1</clus>
<clus scale="  116.798">  2  7  1 -1</clus>
<clus scale="   35.398">  2  5  1 -1</clus>
</clustering>
</event>
<event>
 9    1  0.1464797E-005  0.1086866E+03  0.7546771E-02  0.1266495E+00
         -1   -1    0    0    0  501 -0.00000000000E+00  0.00000000000E+00  0.16852510303E+03  0.16852510303E+03  0.00000000000E+00 0.  1.
         21   -1    0    0  501  502  0.00000000000E+00 -0.00000000000E+00 -0.12450507620E+03  0.12450507620E+03  0.00000000000E+00 0. -1.
         23    2    1    2    0    0  0.35572875533E+02  0.23392712729E+02  0.73621554276E+02  0.13021461687E+03  0.98605601813E+02 0.  0.
         23    2    1    2    0    0 -0.54566980009E+02 -0.34606851471E+01  0.18388427696E+02  0.10748837625E+03  0.90697767922E+02 0.  0.
        -11    1    3    3    0    0 -0.25363849263E+02 -0.18736249545E+02  0.33336149920E+02  0.45887588605E+02  0.00000000000E+00 0.  1.
         11    1    3    3    0    0  0.60936724796E+02  0.42128962275E+02  0.40285404357E+02  0.84327028261E+02  0.00000000000E+00 0. -1.
        -11    1    4    4    0    0 -0.59548422144E+02  0.32746080963E+02  0.20196519744E+02  0.70895837735E+02  0.00000000000E+00 0. -1.
         11    1    4    4    0    0  0.49814421353E+01 -0.36206766110E+02 -0.18080920481E+01  0.36592538512E+02  0.00000000000E+00 0.  1.
         -1    1    1    2    0  502  0.18994104477E+02 -0.19932027582E+02 -0.47989955141E+02  0.55327186110E+02  0.00000000000E+00 0.  1.
<scales pt_clust_5="13000.00000" pt_clust_6="13000.00000" pt_clust_7="13000.00000" pt_clust_8="13000.00000" pt_clust_9="27.53292"></scales>
<clustering>
<clus scale="   27.533">  2  9  1 -1</clus>
<clus scale="   90.698">  7  8 -1 -1</clus>
<clus scale="   98.606">  5  6 -1 -1</clus>
<clus scale="  101.567">  2  7  1 -1</clus>
<clus scale="   27.533">  2  5  1 -1</clus>
</clustering>
</event>
<event>
 9    1  0.1464797E-005  0.9993593E+02  0.7546771E-02  0.1281657E+00
         21   -1    0    0  501  502  0.00000000000E+00  0.00000000000E+00  0.11619375858E+03  0.11619375858E+03  0.00000000000E+00 0.  1.
         -1   -1    0    0    0  501 -0.00000000000E+00 -0.00000000000E+00 -0.15681266268E+03  0.15681266268E+03  0.00000000000E+00 0.  1.
         23    2    1    2    0    0  0.30901780134E+02  0.97651329115E+01 -0.61292380902E+02  0.11467306895E+03  0.91339361453E+02 0.  0.
         23    2    1    2    0    0 -0.57894057684E+02  0.17120061318E+02 -0.12110114135E+02  0.10807242761E+03  0.88815405929E+02 0.  0.
        -11    1    3    3    0    0 -0.78248010602E+00  0.45313004404E+02 -0.13691822457E+02  0.47342862666E+02  0.00000000000E+00 0.  1.
         11    1    3    3    0    0  0.31684260240E+02 -0.35547871492E+02 -0.47600558445E+02  0.67330206289E+02  0.00000000000E+00 0. -1.
        -13    1    4    4    0    0 -0.34256759431E+02 -0.30765029382E+02 -0.26022723799E+02  0.52888512491E+02  0.00000000000E+00 0.  1.
         13    1    4    4    0    0 -0.23637298253E+02  0.47885090700E+02  0.13912609665E+02  0.55183915118E+02  0.00000000000E+00 0. -1.
         -1    1    1    2    0  502  0.26992277550E+02 -0.26885194229E+02  0.32783590945E+02  0.50260924696E+02  0.00000000000E+00 0.  1.
<scales pt_clust_5="13000.00000" pt_clust_6="13000.00000" pt_clust_7="13000.00000" pt_clust_8="13000.00000" pt_clust_9="38.09720"></scales>
<clustering>
<clus scale="   38.097">  1  9  2 -1</clus>
<clus scale="   88.815">  7  8 -1 -1</clus>
<clus scale="   91.339">  5  6 -1 -1</clus>
<clus scale="   97.634">  1  7  2 -1</clus>
<clus scale="   38.097">  1  5  2 -1</clus>
</clustering>
</event>
<event>
 9    1  0.1464797E-005  0.9954110E+02  0.7546771E-02  0.1283005E+00
         21   -1    0    0  501  502  0.00000000000E+00  0.00000000000E+00  0.12124616617E+03  0.12124616617E+03  0.00000000000E+00 0. -1.
          1   -1    0    0  502    0 -0.00000000000E+00 -0.00000000000E+00 -0.19928907301E+03  0.19928907301E+03  0.00000000000E+00 0. -1.
         23    2    1    2    0    0 -0.50434071273E+01  0.37009410962E+02 -0.96801523428E+02  0.14034693772E+03  0.94507118955E+02 0.  0.
         23    2    1    2    0    0  0.42291559170E+02 -0.45209892729E+01 -0.35661932164E+02  0.10667287110E+03  0.91095075071E+02 0.  0.
        -11    1    4    4    0    0  0.75040285710E+01  0.38069357215E+02  0.37994931044E+01  0.38987466593E+02  0.00000000000E+00 0.  1.
         11    1    4    4    0    0  0.34787530599E+02 -0.42590346487E+02 -0.39461425268E+02  0.67685404507E+02  0.00000000000E+00 0. -1.
        -11    1    3    3    0    0 -0.38232923466E+02  0.27287126913E+02 -0.11584010424E+02  0.48379055689E+02  0.00000000000E+00 0.  1.
         11    1    3    3    0    0  0.33189516338E+02  0.97222840484E+01 -0.85217513005E+02  0.91967882028E+02  0.00000000000E+00 0. -1.
          1    1    1    2  501    0 -0.37248152043E+02 -0.32488421689E+02  0.54420548753E+02  0.73515430360E+02  0.00000000000E+00 0. -1.
<scales pt_clust_5="13000.00000" pt_clust_6="13000.00000" pt_clust_7="13000.00000" pt_clust_8="13000.00000" pt_clust_9="49.42593"></scales>
<clustering>
<clus scale="   49.426">  1  9  2 -1</clus>
<clus scale="   91.095">  5  6 -1 -1</clus>
<clus scale="   94.507">  7  8 -1 -1</clus>
<clus scale="   96.308">  1  5  2 -1</clus>
<clus scale="   49.426">  1  5  2 -1</clus>
</clustering>
</event>
<event>
 9    1  0.1464797E-005  0.1404339E+03  0.7546771E-02  0.1213759E+00
          1   -1    0    0  502    0 -0.00000000000E+00  0.00000000000E+00  0.21255078663E+03  0.21255078663E+03  0.00000000000E+00 0. -1.
         21   -1    0    0  501  502  0.00000000000E+00 -0.00000000000E+00 -0.12084443204E+03  0.12084443204E+03  0.00000000000E+00 0.  1.
         23    2    1    2    0    0 -0.65990501484E+02  0.44752693953E+02  0.80071360100E+02  0.15500803369E+03  0.10610616333E+03 0.  0.
         23    2    1    2    0    0  0.79891186632E+02 -0.59953682495E+02  0.29114837211E+02  0.15137155984E+03  0.10994830438E+03 0.  0.
        -11    1    3    3    0    0 -0.71511713310E+02 -0.12867763051E+02  0.58324957779E+02  0.93173521810E+02  0.00000000000E+00 0. -1.
         11    1    3    3    0    0  0.55212118264E+01  0.57620457004E+02  0.21746402321E+02  0.61834511878E+02  0.00000000000E+00 0.  1.
        -13    1    4    4    0    0  0.31127972048E+02 -0.33308587727E+02 -0.41407514243E+02  0.61587294923E+02  0.00000000000E+00 0.  1.
         13    1    4    4    0    0  0.48763214584E+02 -0.26645094768E+02  0.70522351454E+02  0.89784264915E+02  0.00000000000E+00 0. -1.
          1    1    1    2  501    0 -0.13900685149E+02  0.15200988543E+02 -0.17479842719E+02  0.27015625141E+02  0.00000000000E+00 0. -1.
<scales pt_clust_5="13000.00000" pt_clust_6="13000.00000" pt_clust_7="13000.00000" pt_clust_8="13000.00000" pt_clust_9="20.59852"></scales>
<clustering>
<clus scale="   20.599">  2  9  1 -1</clus>
<clus scale="  106.106">  5  6 -1 -1</clus>
<clus scale="  109.948">  7  8 -1 -1</clus>
<clus scale="  137.447">  1  5  2 -1</clus>
<clus scale="   20.599">  2  5  1 -1</clus>
</clustering>
</event>
<event>
 9    1  0.1464797E-005  0.1845261E+03  0.7546771E-02  0.1163991E+00
         -1   -1    0    0    0  501 -0.00000000000E+00  0.00000000000E+00  0.50614010071E+03  0.50614010071E+03  0.00000000000E+00 0.  1.
         21   -1    0    0  501  502  0.00000000000E+00 -0.00000000000E+00 -0.18148614771E+03  0.18148614771E+03  0.00000000000E+00 0.  1.
         23    2    1    2    0    0 -0.96536326568E+01 -0.16473909381E+03  0.41227691503E+03  0.45482488620E+03  0.98291712711E+02 0.  0.
         23    2    1    2    0    0  0.42980352220E+02  0.10829311782E+03 -0.55637673861E+02  0.15986387458E+03  0.94266630370E+02 0.  0.
        -11    1    3    3    0    0  0.13887612744E+02 -0.14460057834E+03  0.39134528015E+03  0.41743660757E+03  0.00000000000E+00 0.  1.
         11    1    3    3    0    0 -0.23541245401E+02 -0.20138515470E+02  0.20931634886E+02  0.37388278636E+02  0.00000000000E+00 0. -1.
        -13    1    4    4    0    0 -0.29535192074E+02  0.28358741592E+02 -0.72302786887E+01  0.41579114053E+02  0.00000000000E+00 0. -1.
         13    1    4    4    0    0  0.72515544294E+02  0.79934376223E+02 -0.48407395173E+02  0.11828476053E+03  0.00000000000E+00 0.  1.
         -1    1    1    2    0  502 -0.33326719563E+02  0.56445975996E+02 -0.31985288177E+02  0.72937487637E+02  0.00000000000E+00 0.  1.
<scales pt_clust_5="13000.00000" pt_clust_6="13000.00000" pt_clust_7="13000.00000" pt_clust_8="13000.00000" pt_clust_9="65.55012"></scales>
<clustering>
<clus scale="   65.550">  2  9  1 -1</clus>
<clus scale="   94.267">  7  8 -1 -1</clus>
<clus scale="   98.292">  5  6 -1 -1</clus>
<clus scale="  182.414">  2  7  1 -1</clus>
<clus scale="   65.550">  2  5  1 -1</clus>
</clustering>
</event>
<event>
 9    1  0.1464797E-005  0.1596376E+03  0.7546771E-02  0.1192058E+00
          2   -1    0    0  502    0 -0.00000000000E+00  0.00000000000E+00  0.64800165755E+03  0.64800165755E+03  0.00000000000E+00 0. -1.
         21   -1    0    0  501  502  0.00000000000E+00 -0.00000000000E+00 -0.16484198908E+03  0.16484198908E+03  0.00000000000E+00 0. -1.
         23    2    1    2    0    0 -0.56464780857E+02 -0.14362490399E+03  0.50336124442E+03  0.53149228436E+03  0.72767584963E+02 0.  0.
         23    2    1    2    0    0 -0.36341306595E+02  0.79404147414E+02  0.62717313487E+02  0.14130559237E+03  0.91695691460E+02 0.  0.
        -11    1    4    4    0    0 -0.38176005047E+02  0.57598046859E+02  0.85355101398E+02  0.10982001502E+03  0.00000000000E+00 0.  1.
         11    1    4    4    0    0  0.18346984522E+01  0.21806100555E+02 -0.22637787911E+02  0.31485577354E+02  0.00000000000E+00 0. -1.
        -13    1    3    3    0    0  0.17416716507E+02 -0.30544458179E+02  0.90197000164E+02  0.96808082193E+02  0.00000000000E+00 0.  1.
         13    1    3    3    0    0 -0.73881497363E+02 -0.11308044581E+03  0.41316424426E+03  0.43468420216E+03  0.00000000000E+00 0. -1.
          2    1    1    2  501    0  0.92806087452E+02  0.64220756579E+02 -0.82918889435E+02  0.14004576991E+03  0.00000000000E+00 0. -1.
<scales pt_clust_5="13000.00000" pt_clust_6="13000.00000" pt_clust_7="13000.00000" pt_clust_8="13000.00000" pt_clust_9="112.85954"></scales>
<clustering>
<clus scale="   72.768">  7  8 -1 -1</clus>
<clus scale="   91.696">  5  6 -1 -1</clus>
<clus scale="  112.860">  2  9  1 -1</clus>
<clus scale="  149.570">  1  7  2 -1</clus>
<clus scale="  112.860">  2  5  1 -1</clus>
</clustering>
</event>
<event>
 9    1  0.1464797E-005  0.1112532E+03  0.7546771E-02  0.1260367E+00
          1   -1    0    0  502    0 -0.00000000000E+00  0.00000000000E+00  0.44874506800E+03  0.44874506800E+03  0.00000000000E+00 0. -1.
         21   -1    0    0  501  502  0.00000000000E+00 -0.00000000000E+00 -0.71245554316E+02  0.71245554316E+02  0.00000000000E+00 0.  1.
         23    2    1    2    0    0 -0.66705781346E+02  0.39108100599E+01  0.36511756653E+03  0.38168668297E+03  0.88932170055E+02 0.  0.
         23    2    1    2    0    0  0.65132660911E+02 -0.24420022356E+02  0.28523020811E+02  0.11215749111E+03  0.83229436415E+02 0.  0.
        -11    1    4    4    0    0  0.15418183511E+02 -0.49980259253E+02  0.98727716816E+01  0.53227984355E+02  0.00000000000E+00 0.  1.
         11    1    4    4    0    0  0.49714477400E+02  0.25560236897E+02  0.18650249130E+02  0.58929506752E+02  0.00000000000E+00 0. -1.
        -13    1    3    3    0    0 -0.45682453914E+02  0.42637154561E+02  0.15747823470E+03  0.16942316237E+03  0.00000000000E+00 0.  1.
         13    1    3    3    0    0 -0.21023327432E+02 -0.38726344501E+02  0.20763933183E+03  0.21226352060E+03  0.00000000000E+00 0. -1.
          1    1    1    2  501    0  0.15731204342E+01  0.20509212296E+02 -0.16141073653E+02  0.26146448240E+02  0.00000000000E+00 0. -1.
<scales pt_clust_5="13000.00000" pt_clust_6="13000.00000" pt_clust_7="13000.00000" pt_clust_8="13000.00000" pt_clust_9="20.56946"></scales>
<clustering>
<clus scale="   20.569">  2  9  1 -1</clus>
<clus scale="   83.229">  5  6 -1 -1</clus>
<clus scale="   88.932">  7  8 -1 -1</clus>
<clus scale="  106.750">  2  5  1 -1</clus>
<clus scale="   20.569">  2  5  1 -1</clus>
</clustering>
</event>
<event>
 9    1  0.1464797E-005  0.1279902E+03  0.7546771E-02  0.1231272E+00
         21   -1    0    0  501  502  0.00000000000E+00  0.00000000000E+00  0.57067202161E+02  0.57067202161E+02  0.00000000000E+00 0. -1.
          2   -1    0    0  502    0 -0.00000000000E+00 -0.00000000000E+00 -0.46683235428E+03  0.46683235428E+03  0.00000000000E+00 0. -1.
         23    2    1    2    0    0 -0.92095881947E+02 -0.18816345210E+02 -0.26420149829E+03  0.29566032390E+03  0.93685052755E+02 0.  0.
         23    2    1    2    0    0  0.63738382720E+02  0.35532368088E+02 -0.15243881307E+03  0.19461125315E+03  0.96492577493E+02 0.  0.
        -13    1    4    4    0    0  0.62006669292E+02  0.56846431835E+02 -0.15140188349E+03  0.17320183075E+03  0.00000000000E+00 0.  1.
         13    1    4    4    0    0  0.17317134282E+01 -0.21314063747E+02 -0.10369295730E+01  0.21409422406E+02  0.00000000000E+00 0. -1.
        -13    1    3    3    0    0 -0.12634257670E+02  0.31968133019E+02 -0.41985894030E+02  0.54262337704E+02  0.00000000000E+00 0.  1.
         13    1    3    3    0    0 -0.79461624277E+02 -0.50784478229E+02 -0.22221560426E+03  0.24139798620E+03  0.00000000000E+00 0. -1.
          2    1    1    2  501    0  0.28357499227E+02 -0.16716022877E+02  0.68751592388E+01  0.33627979389E+02  0.00000000000E+00 0. -1.
<scales pt_clust_5="13000.00000" pt_clust_6="13000.00000" pt_clust_7="13000.00000" pt_clust_8="13000.00000" pt_clust_9="32.91767"></scales>
<clustering>
<clus scale="   32.918">  1  9  2 -1</clus>
<clus scale="   93.685">  7  8 -1 -1</clus>
<clus scale="   96.493">  5  6 -1 -1</clus>
<clus scale="  125.887">  2  7  1 -1</clus>
<clus scale="   32.918">  1  5  2 -1</clus>
</clustering>
</event>
<event>
 9    1  0.1464797E-005  0.1670780E+03  0.7546771E-02  0.1206136E+00
         -1   -1    0    0    0  501 -0.00000000000E+00  0.00000000000E+00  0.16138088644E+03  0.16138088644E+03  0.00000000000E+00 0.  1.
         21   -1    0    0  501  502  0.00000000000E+00 -0.00000000000E+00 -0.29037548752E+03  0.29037548752E+03  0.00000000000E+00 0. -1.
         23    2    1    2    0    0  0.14810531079E+02 -0.35315151703E+01  0.33978657063E+02  0.10188222648E+03  0.94834674601E+02 0.  0.
         23    2    1    2    0    0  0.60664198764E+02 -0.11888584688E+03 -0.10906420269E+03  0.19628823786E+03  0.93915293822E+02 0.  0.
        -11    1    4    4    0    0 -0.22272510977E+02 -0.94064858057E+01 -0.27210503824E+02  0.36399975808E+02  0.00000000000E+00 0.  1.
         11    1    4    4    0    0  0.82936709741E+02 -0.10947936107E+03 -0.81853698867E+02  0.15988826205E+03  0.00000000000E+00 0. -1.
        -13    1    3    3    0    0 -0.30127384874E+02  0.70342788062E+01  0.44822104036E+02  0.54462477063E+02  0.00000000000E+00 0.  1.
         13    1    3    3    0    0  0.44937915953E+02 -0.10565793977E+02 -0.10843446973E+02  0.47419749417E+02  0.00000000000E+00 0. -1.
         -1    1    1    2    0  502 -0.75474729843E+02  0.12241736205E+03 -0.53909055451E+02  0.15358590963E+03  0.00000000000E+00 0.  1.
<scales pt_clust_5="13000.00000" pt_clust_6="13000.00000" pt_clust_7="13000.00000" pt_clust_8="13000.00000" pt_clust_9="138.18458"></scales>
<clustering>
<clus scale="   93.915">  5  6 -1 -1</clus>
<clus scale="   94.835">  7  8 -1 -1</clus>
<clus scale="   96.049">  1  7  2 -1</clus>
<clus scale="  138.185">  2  9  1 -1</clus>
<clus scale="  138.185">  2  5  1 -1</clus>
</clustering>
</event>
<event>
 9    1  0.1464797E-005  0.1305558E+03  0.7546771E-02  0.1226986E+00
         21   -1    0    0  501  502  0.00000000000E+00  0.00000000000E+00  0.13512194930E+03  0.13512194930E+03  0.00000000000E+00 0.  1.
         -4   -1    0    0    0  501 -0.00000000000E+00 -0.00000000000E+00 -0.16808142306E+03  0.16808142306E+03  0.00000000000E+00 0.  1.
         23    2    1    2    0    0 -0.43254761217E+02 -0.73133376538E+02 -0.45876287587E+02  0.13382587963E+03  0.92656716780E+02 0.  0.
         23    2    1    2    0    0  0.69691797786E+02  0.79722514205E+02  0.19954037831E+02  0.14123755386E+03  0.91308581444E+02 0.  0.
        -11    1    3    3    0    0 -0.12801472288E+02 -0.85936392456E+02 -0.14161368773E+02  0.88031162702E+02  0.00000000000E+00 0.  1.
         11    1    3    3    0    0 -0.30453288929E+02  0.12803015919E+02 -0.31714918814E+02  0.45794716928E+02  0.00000000000E+00 0. -1.
        -11    1    4    4    0    0 -0.47879458480E+01  0.26716026993E+02 -0.27157954255E+02  0.38395637813E+02  0.00000000000E+00 0. -1.
         11    1    4    4    0    0  0.74479743634E+02  0.53006487212E+02  0.47111992086E+02  0.10284191605E+03  0.00000000000E+00 0.  1.
         -4    1    1    2    0  502 -0.26437036569E+02 -0.65891376672E+01 -0.70372240018E+01  0.28139938866E+02  0.00000000000E+00 0.  1.
<scales pt_clust_5="13000.00000" pt_clust_6="13000.00000" pt_clust_7="13000.00000" pt_clust_8="13000.00000" pt_clust_9="27.24581"></scales>
<clustering>
<clus scale="   27.246">  1  9  2 -1</clus>
<clus scale="   91.309">  7  8 -1 -1</clus>
<clus scale="   92.657">  5  6 -1 -1</clus>
<clus scale="  129.602">  1  7  2 -1</clus>
<clus scale="   27.246">  1  5  2 -1</clus>
</clustering>
</event>
<event>
 9    1  0.1464797E-005  0.1719141E+03  0.7546771E-02  0.1176003E+00
         21   -1    0    0  501  502  0.00000000000E+00  0.00000000000E+00  0.12477186132E+03  0.12477186132E+03  0.00000000000E+00 0. -1.
         -2   -1    0    0    0  501 -0.00000000000E+00 -0.00000000000E+00 -0.45111040850E+03  0.45111040850E+03  0.00000000000E+00 0.  1.
         23    2    1    2    0    0 -0.32620826033E+02 -0.12859871792E+03 -0.23469059184E+03  0.28515567610E+03  0.92910371719E+02 0.  0.
         23    2    1    2    0    0  0.70360051095E+02  0.15608247031E+03 -0.12701833080E+03  0.23215467881E+03  0.91923142937E+02 0.  0.
        -11    1    3    3    0    0 -0.49061591625E+02 -0.98178514453E+02 -0.10857125432E+03  0.15438192167E+03  0.00000000000E+00 0. -1.
         11    1    3    3    0    0  0.16440765592E+02 -0.30420203466E+02 -0.12611933752E+03  0.13077375444E+03  0.00000000000E+00 0.  1.
        -13    1    4    4    0    0  0.85008194542E+01  0.12285179257E+03 -0.69636637804E+02  0.14147115675E+03  0.00000000000E+00 0. -1.
         13    1    4    4    0    0  0.61859231641E+02  0.33230677748E+02 -0.57381692992E+02  0.90683522061E+02  0.00000000000E+00 0.  1.
         -2    1    1    2    0  502 -0.37739225063E+02 -0.27483752395E+02  0.35370375461E+02  0.58571914894E+02  0.00000000000E+00 0.  1.
<scales pt_clust_5="13000.00000" pt_clust_6="13000.00000" pt_clust_7="13000.00000" pt_clust_8="13000.00000" pt_clust_9="46.68625"></scales>
<clustering>
<clus scale="   46.686">  1  9  2 -1</clus>
<clus scale="   91.923">  7  8 -1 -1</clus>
<clus scale="   92.910">  5  6 -1 -1</clus>
<clus scale="  171.383">  1  7  2 -1</clus>
<clus scale="   46.686">  1  5  2 -1</clus>
</clustering>
</event>
<event>
 9    1  0.1464797E-005  0.1018740E+03  0.7546771E-02  0.1277464E+00
         21   -1    0    0  501  502  0.00000000000E+00  0.00000000000E+00  0.20114622004E+02  0.20114622004E+02  0.00000000000E+00 0.  1.
         -1   -1    0    0    0  501 -0.00000000000E+00 -0.00000000000E+00 -0.79513298184E+03  0.79513298184E+03  0.00000000000E+00 0.  1.
         23    2    1    2    0    0 -0.21411737803E+02  0.11367367913E+02 -0.35492416850E+03  0.36790152499E+03  0.93769329380E+02 0.  0.
         23    2    1    2    0    0  0.54718493662E+02 -0.20530912792E+02 -0.37576796089E+03  0.39114887923E+03  0.91543723773E+02 0.  0.
        -11    1    4    4    0    0  0.29187941685E+02 -0.55300208167E+02 -0.26501475980E+03  0.27229188727E+03  0.00000000000E+00 0.  1.
         11    1    4    4    0    0  0.25530551977E+02  0.34769295375E+02 -0.11075320109E+03  0.11885699196E+03  0.00000000000E+00 0. -1.
        -13    1    3    3    0    0 -0.58784757414E+02  0.79310228683E+01 -0.21906264753E+03  0.22695151987E+03  0.00000000000E+00 0.  1.
         13    1    3    3    0    0  0.37373019611E+02  0.34363450443E+01 -0.13586152097E+03  0.14095000512E+03  0.00000000000E+00 0. -1.
         -1    1    1    2    0  502 -0.33306755859E+02  0.91635448790E+01 -0.44326230445E+02  0.56197199628E+02  0.00000000000E+00 0.  1.
<scales pt_clust_5="13000.00000" pt_clust_6="13000.00000" pt_clust_7="13000.00000" pt_clust_8="13000.00000" pt_clust_9="34.54433"></scales>
<clustering>
<clus scale="   34.544">  1  9  2 -1</clus>
<clus scale="   91.544">  5  6 -1 -1</clus>
<clus scale="   93.769">  7  8 -1 -1</clus>
<clus scale="   99.829">  1  5  2 -1</clus>
<clus scale="   34.544">  1  5  2 -1</clus>
</clustering>
</event>
<event>
 9    1  0.1464797E-005  0.3373763E+03  0.7546771E-02  0.1068101E+00
         21   -1    0    0  501  502  0.00000000000E+00  0.00000000000E+00  0.20641595462E+03  0.20641595462E+03  0.00000000000E+00 0. -1.
          1   -1    0    0  502    0 -0.00000000000E+00 -0.00000000000E+00 -0.20279829974E+04  0.20279829974E+04  0.00000000000E+00 0. -1.
         23    2    1    2    0    0  0.38709204022E+02  0.27177215740E+03 -0.57794410023E+03  0.64638521576E+03  0.91847461319E+02 0.  0.
         23    2    1    2    0    0 -0.15338492334E+03 -0.52701065675E+03 -0.36195672524E+03  0.66300966550E+03  0.85451615377E+02 0.  0.
        -11    1    4    4    0    0  0.85335586838E+01 -0.58979146427E+02 -0.49140634557E+02  0.77240943170E+02  0.00000000000E+00 0.  1.
         11    1    4    4    0    0 -0.16191848202E+03 -0.46803151032E+03 -0.31281609068E+03  0.58576872233E+03  0.00000000000E+00 0. -1.
        -13    1    3    3    0    0  0.40522219096E+02  0.49333378100E+02 -0.92392445603E+02  0.11230403572E+03  0.00000000000E+00 0.  1.
         13    1    3    3    0    0 -0.18130150745E+01  0.22243877930E+03 -0.48555165462E+03  0.53408118003E+03  0.00000000000E+00 0. -1.
          1    1    1    2  501    0  0.11467571932E+03  0.25523849935E+03 -0.88166621734E+03  0.92500407078E+03  0.00000000000E+00 0. -1.
<scales pt_clust_5="13000.00000" pt_clust_6="13000.00000" pt_clust_7="13000.00000" pt_clust_8="13000.00000" pt_clust_9="279.81653"></scales>
<clustering>
<clus scale="   85.452">  5  6 -1 -1</clus>
<clus scale="   91.847">  7  8 -1 -1</clus>
<clus scale="  279.817">  1  9  2 -1</clus>
<clus scale="  335.692">  1  5  2 -1</clus>
<clus scale="  279.817">  1  5  2 -1</clus>
</clustering>
</event>
<event>
 9    1  0.1464797E-005  0.1174723E+03  0.7546771E-02  0.1250266E+00
          1   -1    0    0  502    0 -0.00000000000E+00  0.00000000000E+00  0.60577925927E+03  0.60577925927E+03  0.00000000000E+00 0. -1.
         21   -1    0    0  501  502  0.00000000000E+00 -0.00000000000E+00 -0.42726303948E+02  0.42726303948E+02  0.00000000000E+00 0.  1.
         23    2    1    2    0    0  0.16600055137E+02 -0.76527661835E+02  0.43767254185E+03  0.45548011168E+03  0.98857642022E+02 0.  0.
         23    2    1    2    0    0  0.30150986871E+01  0.29401149113E+02  0.86971182501E+02  0.12914328279E+03  0.90777103471E+02 0.  0.
        -13    1    4    4    0    0  0.37348408063E+02  0.36656765967E+02  0.25160753577E+02  0.58066217343E+02  0.00000000000E+00 0.  1.
         13    1    4    4    0    0 -0.34333309376E+02 -0.72556168535E+01  0.61810428924E+02  0.71077065446E+02  0.00000000000E+00 0. -1.
        -13    1    3    3    0    0 -0.23226318088E+02  0.13866679715E+02  0.10723497941E+03  0.11059424699E+03  0.00000000000E+00 0.  1.
         13    1    3    3    0    0  0.39826373226E+02 -0.90394341550E+02  0.33043756244E+03  0.34488586469E+03  0.00000000000E+00 0. -1.
          1    1    1    2  501    0 -0.19615153824E+02  0.47126512722E+02  0.38409230972E+02  0.63882168754E+02  0.00000000000E+00 0. -1.
<scales pt_clust_5="13000.00000" pt_clust_6="13000.00000" pt_clust_7="13000.00000" pt_clust_8="13000.00000" pt_clust_9="51.04569"></scales>
<clustering>
<clus scale="   51.046">  2  9  1 -1</clus>
<clus scale="   90.777">  5  6 -1 -1</clus>
<clus scale="   98.858">  7  8 -1 -1</clus>
<clus scale="  110.758">  2  5  1 -1</clus>
<clus scale="   51.046">  2  5  1 -1</clus>
</clustering>
</event>
<event>
 9    1  0.1464797E-005  0.9886132E+02  0.7546771E-02  0.1283042E+00
          1   -1    0    0  502    0 -0.00000000000E+00  0.00000000000E+00  0.14056571863E+03  0.14056571863E+03  0.00000000000E+00 0. -1.
         21   -1    0    0  501  502  0.00000000000E+00 -0.00000000000E+00 -0.11335725065E+03  0.11335725065E+03  0.00000000000E+00 0.  1.
         23    2    1    2    0    0  0.20424328916E+02  0.30293182645E+02  0.43885979885E+02  0.10739313962E+03  0.90953158717E+02 0.  0.
         23    2    1    2    0    0 -0.47789868750E+02 -0.46181372350E+01  0.43157641781E+01  0.10353217428E+03  0.91624704884E+02 0.  0.
        -13    1    3    3    0    0  0.27454839823E+02 -0.11337159989E+02 -0.16294887424E+02  0.33879533387E+02  0.00000000000E+00 0.  1.
         13    1    3    3    0    0 -0.70305109066E+01  0.41630342633E+02  0.60180867309E+02  0.73513606234E+02  0.00000000000E+00 0. -1.
        -13    1    4    4    0    0 -0.71496341556E+02 -0.17251237828E+02 -0.79982066853E+01  0.73981777301E+02  0.00000000000E+00 0.  1.
         13    1    4    4    0    0  0.23706472806E+02  0.12633100593E+02  0.12313970863E+02  0.29550396984E+02  0.00000000000E+00 0. -1.
          1    1    1    2  501    0  0.27365539833E+02 -0.25675045410E+02 -0.20993276085E+02  0.42997655378E+02  0.00000000000E+00 0. -1.
<scales pt_clust_5="13000.00000" pt_clust_6="13000.00000" pt_clust_7="13000.00000" pt_clust_8="13000.00000" pt_clust_9="37.52440"></scales>
<clustering>
<clus scale="   37.524">  2  9  1 -1</clus>
<clus scale="   90.953">  5  6 -1 -1</clus>
<clus scale="   91.625">  7  8 -1 -1</clus>
<clus scale="   98.239">  1  5  2 -1</clus>
<clus scale="   37.524">  2  5  1 -1</clus>
</clustering>
</event>
<event>
 9    1  0.1464797E-005  0.1008806E+03  0.7546771E-02  0.1278946E+00
         -3   -1    0    0    0  501 -0.00000000000E+00  0.00000000000E+00  0.44259067901E+03  0.44259067901E+03  0.00000000000E+00 0.  1.
         21   -1    0    0  501  502  0.00000000000E+00 -0.00000000000E+00 -0.43589977348E+02  0.43589977348E+02  0.00000000000E+00 0. -1.
         23    2    1    2    0    0 -0.17303479430E+02 -0.30594688526E+02  0.24358792415E+03  0.26273156964E+03  0.91963881633E+02 0.  0.
         23    2    1    2    0    0 -0.11287579994E+02  0.60620530203E+02  0.14267728904E+03  0.18007637049E+03  0.90930920234E+02 0.  0.
        -11    1    4    4    0    0  0.29209786454E+02 -0.70709214174E+01  0.50389787320E+02  0.58671460017E+02  0.00000000000E+00 0.  1.
         11    1    4    4    0    0 -0.40497366448E+02  0.67691451620E+02  0.92287501725E+02  0.12140491047E+03  0.00000000000E+00 0. -1.
        -13    1    3    3    0    0 -0.38524927608E+02 -0.51863907112E+02  0.19674274595E+03  0.20707907425E+03  0.00000000000E+00 0.  1.
         13    1    3    3    0    0  0.21221448179E+02  0.21269218586E+02  0.46845178201E+02  0.55652495386E+02  0.00000000000E+00 0. -1.
         -3    1    1    2    0  502  0.28591059423E+02 -0.30025841677E+02  0.12735488471E+02  0.43372716239E+02  0.00000000000E+00 0.  1.
<scales pt_clust_5="13000.00000" pt_clust_6="13000.00000" pt_clust_7="13000.00000" pt_clust_8="13000.00000" pt_clust_9="41.46082"></scales>
<clustering>
<clus scale="   41.461">  2  9  1 -1</clus>
<clus scale="   90.931">  5  6 -1 -1</clus>
<clus scale="   91.964">  7  8 -1 -1</clus>
<clus scale="   99.940">  2  5  1 -1</clus>
<clus scale="   41.461">  2  5  1 -1</clus>
</clustering>
</event>
<event>
 9    1  0.1464797E-005  0.1019214E+03  0.7546771E-02  0.1276357E+00
          1   -1    0    0  502    0 -0.00000000000E+00  0.00000000000E+00  0.49708501449E+03  0.49708501449E+03  0.00000000000E+00 0. -1.
         21   -1    0    0  501  502  0.00000000000E+00 -0.00000000000E+00 -0.18528628016E+03  0.18528628016E+03  0.00000000000E+00 0. -1.
         23    2    1    2    0    0  0.97672863744E+01  0.58571717888E+02  0.39831696572E+03  0.41162487994E+03  0.85162142926E+02 0.  0.
         23    2    1    2    0    0 -0.47435065540E+02 -0.29725103989E+02  0.58892936441E+02  0.11779087720E+03  0.85279807340E+02 0.  0.
        -11    1    3    3    0    0  0.46000710175E+02  0.41749232474E+02  0.27774421715E+03  0.28460659499E+03  0.00000000000E+00 0. -1.
         11    1    3    3    0    0 -0.36233423800E+02  0.16822485414E+02  0.12057274857E+03  0.12701828496E+03  0.00000000000E+00 0.  1.
        -13    1    4    4    0    0 -0.69503577720E+02 -0.25034746199E+02  0.60046230387E+02  0.95199976979E+02  0.00000000000E+00 0.  1.
         13    1    4    4    0    0  0.22068512180E+02 -0.46903577902E+01 -0.11532939461E+01  0.22590900225E+02  0.00000000000E+00 0. -1.
          1    1    1    2  501    0  0.37667779166E+02 -0.28846613899E+02 -0.14541116783E+03  0.15295553750E+03  0.00000000000E+00 0. -1.
<scales pt_clust_5="13000.00000" pt_clust_6="13000.00000" pt_clust_7="13000.00000" pt_clust_8="13000.00000" pt_clust_9="47.44459"></scales>
<clustering>
<clus scale="   47.445">  2  9  1 -1</clus>
<clus scale="   85.162">  5  6 -1 -1</clus>
<clus scale="   85.280">  7  8 -1 -1</clus>
<clus scale="  101.823">  1  5  2 -1</clus>
<clus scale="   47.445">  2  5  1 -1</clus>
</clustering>
</event>
<event>
 9    1  0.1464797E-005  0.1178737E+03  0.7546771E-02  0.1248090E+00
         -1   -1    0    0    0  501 -0.00000000000E+00  0.00000000000E+00  0.82810740082E+03  0.82810740082E+03  0.00000000000E+00 0.  1.
         21   -1    0    0  501  502  0.00000000000E+00 -0.00000000000E+00 -0.62065896706E+02  0.62065896706E+02  0.00000000000E+00 0.  1.
         23    2    1    2    0    0 -0.11687730348E+02 -0.85443260712E+02  0.45886375266E+03  0.47629736180E+03  0.94159861429E+02 0.  0.
         23    2    1    2    0    0 -0.66952130602E+02  0.43417603396E+02  0.30143923830E+03  0.32452654213E+03  0.89912101993E+02 0.  0.
        -13    1    4    4    0    0  0.69021547082E+01  0.42172457350E+02  0.74704583235E+02  0.86063526856E+02  0.00000000000E+00 0. -1.
         13    1    4    4    0    0 -0.73854285310E+02  0.12451460461E+01  0.22673465506E+03  0.23846301527E+03  0.00000000000E+00 0.  1.
        -13    1    3    3    0    0 -0.42768741591E+02 -0.40676590205E+02  0.34560371608E+03  0.35060758522E+03  0.00000000000E+00 0.  1.
         13    1    3    3    0    0  0.31081011243E+02 -0.44766670507E+02  0.11326003658E+03  0.12568977657E+03  0.00000000000E+00 0. -1.
         -1    1    1    2    0  502  0.78639860949E+02  0.42025657316E+02  0.57385131502E+01  0.89349393597E+02  0.00000000000E+00 0.  1.
<scales pt_clust_5="13000.00000" pt_clust_6="13000.00000" pt_clust_7="13000.00000" pt_clust_8="13000.00000" pt_clust_9="89.16492"></scales>
<clustering>
<clus scale="   89.165">  2  9  1 -1</clus>
<clus scale="   89.912">  5  6 -1 -1</clus>
<clus scale="   94.160">  7  8 -1 -1</clus>
<clus scale="  114.509">  2  5  1 -1</clus>
<clus scale="   89.165">  2  5  1 -1</clus>
</clustering>
</event>
<event>
 9    1  0.1464797E-005  0.1028067E+03  0.7546771E-02  0.1274723E+00
          1   -1    0    0  502    0 -0.00000000000E+00  0.00000000000E+00  0.36119939450E+03  0.36119939450E+03  0.00000000000E+00 0. -1.
         21   -1    0    0  501  502  0.00000000000E+00 -0.00000000000E+00 -0.60985273255E+02  0.60985273255E+02  0.00000000000E+00 0.  1.
         23    2    1    2    0    0 -0.42185872184E+02 -0.43575053424E+02  0.25608649100E+03  0.27477905737E+03  0.79024087493E+02 0.  0.
         23    2    1    2    0    0  0.60185242876E+02  0.59599378672E+02  0.40247828329E+02  0.12299640704E+03  0.79585671200E+02 0.  0.
        -11    1    3    3    0    0 -0.93829727423E+01  0.22713638132E+02  0.82767023435E+02  0.86338460160E+02  0.00000000000E+00 0. -1.
         11    1    3    3    0    0 -0.32802899442E+02 -0.66288691555E+02  0.17331946757E+03  0.18844059721E+03  0.00000000000E+00 0.  1.
        -13    1    4    4    0    0  0.19168822946E+02  0.13380841786E+02 -0.24243756894E+02  0.33678634895E+02  0.00000000000E+00 0.  1.
         13    1    4    4    0    0  0.41016419930E+02  0.46218536886E+02  0.64491585222E+02  0.89317772141E+02  0.00000000000E+00 0. -1.
          1    1    1    2  501    0 -0.17999370693E+02 -0.16024325248E+02  0.38798019115E+01  0.24409203343E+02  0.00000000000E+00 0. -1.
<scales pt_clust_5="13000.00000" pt_clust_6="13000.00000" pt_clust_7="13000.00000" pt_clust_8="13000.00000" pt_clust_9="24.09889"></scales>
<clustering>
<clus scale="   24.099">  2  9  1 -1</clus>
<clus scale="   79.024">  5  6 -1 -1</clus>
<clus scale="   79.586">  7  8 -1 -1</clus>
<clus scale="  102.373">  1  5  2 -1</clus>
<clus scale="   24.099">  2  5  1 -1</clus>
</clustering>
</event>
<event>
 9    1  0.1464797E-005  0.2130815E+03  0.7546771E-02  0.1175611E+00
          2   -1    0    0  502    0 -0.00000000000E+00  0.00000000000E+00  0.28005809863E+03  0.28005809863E+03  0.00000000000E+00 0. -1.
         21   -1    0    0  501  502  0.00000000000E+00 -0.00000000000E+00 -0.28948872573E+03  0.28948872573E+03  0.00000000000E+00 0.  1.
         23    2    1    2    0    0 -0.21124880395E+01  0.33724157844E+01  0.99247395795E+02  0.13452058893E+03  0.90718837516E+02 0.  0.
         23    2    1    2    0    0 -0.43885737754E+02 -0.18905990483E+03  0.53520865195E+00  0.21474638999E+03  0.91902774571E+02 0.  0.
        -11    1    4    4    0    0  0.19700661975E+02 -0.30703945545E+02 -0.22028464545E+02  0.42615743622E+02  0.00000000000E+00 0. -1.
         11    1    4    4    0    0 -0.63586399730E+02 -0.15835595928E+03  0.22563673197E+02  0.17213064637E+03  0.00000000000E+00 0.  1.
        -13    1    3    3    0    0 -0.42359647844E+02 -0.17024582866E+02  0.51718285000E+02  0.68985195445E+02  0.00000000000E+00 0.  1.
         13    1    3    3    0    0  0.40247159805E+02  0.20396998651E+02  0.47529110795E+02  0.65535393485E+02  0.00000000000E+00 0. -1.
          2    1    1    2  501    0  0.45998225794E+02  0.18568748904E+03 -0.10921323155E+03  0.22027984544E+03  0.00000000000E+00 0. -1.
<scales pt_clust_5="13000.00000" pt_clust_6="13000.00000" pt_clust_7="13000.00000" pt_clust_8="13000.00000" pt_clust_9="192.24364"></scales>
<clustering>
<clus scale="   90.719">  7  8 -1 -1</clus>
<clus scale="   90.806">  1  7  2 -1</clus>
<clus scale="   91.903">  5  6 -1 -1</clus>
<clus scale="  192.244">  2  9  1 -1</clus>
<clus scale="  192.244">  2  5  1 -1</clus>
</clustering>
</event>
<event>
 9    1  0.1582905E-005  0.1219006E+03  0.7546771E-02  0.1240577E+00
         21   -1    0    0  501  502  0.00000000000E+00  0.00000000000E+00  0.86581320245E+02  0.86581320245E+02  0.00000000000E+00 0.  1.
          2   -1    0    0  502    0 -0.00000000000E+00 -0.00000000000E+00 -0.63979831094E+03  0.63979831094E+03  0.00000000000E+00 0. -1.
         23    2    1    2    0    0  0.14667939836E+02 -0.78209697815E+02 -0.54481050874E+03  0.55774080999E+03  0.89019185555E+02 0.  0.
         23    2    1    2    0    0  0.44771124148E+01  0.96598346063E+02 -0.27966330107E+02  0.13566514882E+03  0.90948512843E+02 0.  0.
        -11    1    4    4    0    0  0.31185680525E+02  0.91774102966E+02 -0.41379116810E+02  0.10539100509E+03  0.00000000000E+00 0.  1.
         11    1    4    4    0    0 -0.26708568111E+02  0.48242430964E+01  0.13412786703E+02  0.30274143739E+02  0.00000000000E+00 0. -1.
        -11    1    3    3    0    0 -0.14423250810E+02  0.15549824113E+02 -0.10092561797E+03  0.10313005166E+03  0.00000000000E+00 0.  1.
         11    1    3    3    0    0  0.29091190647E+02 -0.93759521928E+02 -0.44388489077E+03  0.45461075832E+03  0.00000000000E+00 0. -1.
          2    1    1    2  501    0 -0.19145052251E+02 -0.18388648247E+02  0.19559848154E+02  0.32973672375E+02  0.00000000000E+00 0. -1.
<scales pt_clust_5="13000.00000" pt_clust_6="13000.00000" pt_clust_7="13000.00000" pt_clust_8="13000.00000" pt_clust_9="26.54572"></scales>
<clustering>
<clus scale="   26.546">  1  9  2 -1</clus>
<clus scale="   89.019">  7  8 -1 -1</clus>
<clus scale="   90.949">  5  6 -1 -1</clus>
<clus scale="  120.468">  2  7  1 -1</clus>
<clus scale="   26.546">  1  5  2 -1</clus>
</clustering>
</event>
<event>
 9    1  0.1464797E-005  0.1256420E+03  0.7546771E-02  0.1234558E+00
          3   -1    0    0  502    0 -0.00000000000E+00  0.00000000000E+00  0.62546063988E+02  0.62546063988E+02  0.00000000000E+00 0. -1.
         21   -1    0    0  501  502  0.00000000000E+00 -0.00000000000E+00 -0.36779627679E+03  0.36779627679E+03  0.00000000000E+00 0.  1.
         23    2    1    2    0    0  0.10600956885E+03 -0.10822415993E+02 -0.94548310551E+02  0.16896437089E+03  0.90853850925E+02 0.  0.
         23    2    1    2    0    0 -0.63725475409E+02  0.85407600602E+01 -0.12983570726E+03  0.17009548523E+03  0.89113873325E+02 0.  0.
        -13    1    3    3    0    0  0.18869429903E+02  0.36233021319E+02 -0.31194686998E+02  0.51400347427E+02  0.00000000000E+00 0.  1.
         13    1    3    3    0    0  0.87140138944E+02 -0.47055437312E+02 -0.63353623553E+02  0.11756402346E+03  0.00000000000E+00 0. -1.
        -13    1    4    4    0    0 -0.72490306758E+02  0.30726161837E+02 -0.12159227545E+03  0.14485725058E+03  0.00000000000E+00 0.  1.
         13    1    4    4    0    0  0.87648313484E+01 -0.22185401777E+02 -0.82434318031E+01  0.25238234654E+02  0.00000000000E+00 0. -1.
          3    1    1    2  501    0 -0.42284093437E+02  0.22816559329E+01 -0.80866194995E+02  0.91282484654E+02  0.00000000000E+00 0. -1.
<scales pt_clust_5="13000.00000" pt_clust_6="13000.00000" pt_clust_7="13000.00000" pt_clust_8="13000.00000" pt_clust_9="42.34561"></scales>
<clustering>
<clus scale="   42.346">  2  9  1 -1</clus>
<clus scale="   89.114">  7  8 -1 -1</clus>
<clus scale="   90.854">  5  6 -1 -1</clus>
<clus scale="  124.390">  2  7  1 -1</clus>
<clus scale="   42.346">  2  5  1 -1</clus>
</clustering>
</event>
<event>
 9    1  0.1464797E-005  0.1294275E+03  0.7546771E-02  0.1242836E+00
          2   -1    0    0  502    0 -0.00000000000E+00  0.00000000000E+00  0.51525005228E+03  0.51525005228E+03  0.00000000000E+00 0. -1.
         21   -1    0    0  501  502  0.00000000000E+00 -0.00000000000E+00 -0.31285204612E+02  0.31285204612E+02  0.00000000000E+00 0.  1.
         23    2    1    2    0    0 -0.12767501051E+02 -0.24204394187E+02  0.30760107308E+03  0.33335387737E+03  0.12552898319E+03 0.  0.
         23    2    1    2    0    0 -0.18484861107E+01  0.39001523648E+02  0.14246669749E+03  0.17341212057E+03  0.90832086403E+02 0.  0.
        -11    1    4    4    0    0  0.18312935429E+02  0.62238445155E+02  0.74383997401E+02  0.98701401858E+02  0.00000000000E+00 0.  1.
         11    1    4    4    0    0 -0.20161421540E+02 -0.23236921507E+02  0.68082700087E+02  0.74710718714E+02  0.00000000000E+00 0. -1.
        -11    1    3    3    0    0 -0.40253179945E+02  0.40747937183E+02  0.12109634882E+03  0.13395909293E+03  0.00000000000E+00 0.  1.
         11    1    3    3    0    0  0.27485678894E+02 -0.64952331370E+02  0.18650472426E+03  0.19939478445E+03  0.00000000000E+00 0. -1.
          2    1    1    2  501    0  0.14615987161E+02 -0.14797129461E+02  0.33897077103E+02  0.39769258946E+02  0.00000000000E+00 0. -1.
<scales pt_clust_5="13000.00000" pt_clust_6="13000.00000" pt_clust_7="13000.00000" pt_clust_8="13000.00000" pt_clust_9="20.79861"></scales>
<clustering>
<clus scale="   20.799">  2  9  1 -1</clus>
<clus scale="   90.832">  5  6 -1 -1</clus>
<clus scale="   96.148">  2  5  1 -1</clus>
<clus scale="  125.529">  7  8 -1 -1</clus>
<clus scale="   20.799">  2  5  1 -1</clus>
</clustering>
</event>
<event>
 9    1  0.1464797E-005  0.1589506E+03  0.7546771E-02  0.1211149E+00
         21   -1    0    0  501  502  0.00000000000E+00  0.00000000000E+00  0.11800465911E+04  0.11800465911E+04  0.00000000000E+00 0.  1.
         -1   -1    0    0    0  501 -0.00000000000E+00 -0.00000000000E+00 -0.50520736192E+02  0.50520736192E+02  0.00000000000E+00 0.  1.
         23    2    1    2    0    0 -0.43780964534E+02  0.16141505970E+02  0.29503491442E+03  0.31158529707E+03  0.88670601385E+02 0.  0.
         23    2    1    2    0    0  0.15463726329E+03 -0.70715038205E+02  0.22162001830E+03  0.29377953770E+03  0.90981780788E+02 0.  0.
        -11    1    3    3    0    0 -0.26344951240E+02 -0.33954055626E+02  0.17761585497E+03  0.18274114557E+03  0.00000000000E+00 0. -1.
         11    1    3    3    0    0 -0.17436013294E+02  0.50095561596E+02  0.11741905946E+03  0.12884415150E+03  0.00000000000E+00 0.  1.
        -13    1    4    4    0    0  0.83055678869E+02 -0.55656544281E+02  0.60569448449E+02  0.11689548665E+03  0.00000000000E+00 0.  1.
         13    1    4    4    0    0  0.71581584422E+02 -0.15058493923E+02  0.16105056985E+03  0.17688405105E+03  0.00000000000E+00 0. -1.
         -1    1    1    2    0  502 -0.11085629876E+03  0.54573532235E+02  0.61287092217E+03  0.62520249251E+03  0.00000000000E+00 0.  1.
<scales pt_clust_5="13000.00000" pt_clust_6="13000.00000" pt_clust_7="13000.00000" pt_clust_8="13000.00000" pt_clust_9="130.33658"></scales>
<clustering>
<clus scale="   88.671">  5  6 -1 -1</clus>
<clus scale="   90.982">  7  8 -1 -1</clus>
<clus scale="  100.199">  2  5  1 -1</clus>
<clus scale="  130.337">  1  9  2 -1</clus>
<clus scale="  130.337">  1  5  2 -1</clus>
</clustering>
</event>
<event>
 9    1  0.1464797E-005  0.1053237E+03  0.7546771E-02  0.1272620E+00
         21   -1    0    0  501  502  0.00000000000E+00  0.00000000000E+00  0.26267707033E+03  0.26267707033E+03  0.00000000000E+00 0.  1.
         -1   -1    0    0    0  501 -0.00000000000E+00 -0.00000000000E+00 -0.16469077624E+03  0.16469077624E+03  0.00000000000E+00 0.  1.
         23    2    1    2    0    0  0.90486433596E+01  0.43438531250E+02 -0.74495565958E+02  0.13097560254E+03  0.98164327383E+02 0.  0.
         23    2    1    2    0    0 -0.40413792251E+02 -0.13470866954E+02 -0.16704405461E+02  0.10229619428E+03  0.91491722801E+02 0.  0.
        -11    1    4    4    0    0 -0.48415148635E+02 -0.43072087661E+02  0.45899917834E+01  0.64963831301E+02  0.00000000000E+00 0.  1.
         11    1    4    4    0    0  0.80013563839E+01  0.29601220707E+02 -0.21294397244E+02  0.37332362975E+02  0.00000000000E+00 0. -1.
        -13    1    3    3    0    0  0.40396031470E+02  0.43374863421E+02 -0.79570120070E+02  0.99220069257E+02  0.00000000000E+00 0. -1.
         13    1    3    3    0    0 -0.31347388111E+02  0.63667828596E-01  0.50745541113E+01  0.31755533288E+02  0.00000000000E+00 0.  1.
         -1    1    1    2    0  502  0.31365148891E+02 -0.29967664296E+02  0.18918626551E+03  0.19409604975E+03  0.00000000000E+00 0.  1.
<scales pt_clust_5="13000.00000" pt_clust_6="13000.00000" pt_clust_7="13000.00000" pt_clust_8="13000.00000" pt_clust_9="43.38010"></scales>
<clustering>
<clus scale="   43.380">  1  9  2 -1</clus>
<clus scale="   91.492">  5  6 -1 -1</clus>
<clus scale="   98.164">  7  8 -1 -1</clus>
<clus scale="   99.134">  1  5  2 -1</clus>
<clus scale="   43.380">  1  5  2 -1</clus>
</clustering>
</event>
<event>
 9    1  0.1464797E-005  0.1025172E+03  0.7546771E-02  0.1275660E+00
         21   -1    0    0  501  502  0.00000000000E+00  0.00000000000E+00  0.16457861927E+03  0.16457861927E+03  0.00000000000E+00 0.  1.
          2   -1    0    0  502    0 -0.00000000000E+00 -0.00000000000E+00 -0.12849882170E+03  0.12849882170E+03  0.00000000000E+00 0. -1.
         23    2    1    2    0    0 -0.32355787202E+02  0.12131479449E+02 -0.26897804163E+02  0.10164512792E+03  0.91728787208E+02 0.  0.
         23    2    1    2    0    0  0.30613616589E+02 -0.54454136477E+02 -0.41291410062E+01  0.11207516228E+03  0.92958838712E+02 0.  0.
        -11    1    4    4    0    0 -0.41909251358E+01 -0.64702259086E+02  0.20756092396E+02  0.68079083101E+02  0.00000000000E+00 0.  1.
         11    1    4    4    0    0  0.34804541725E+02  0.10248122609E+02 -0.24885233402E+02  0.43996079180E+02  0.00000000000E+00 0. -1.
        -13    1    3    3    0    0  0.27321185008E+01 -0.37250133960E+02 -0.12419318595E+02  0.39360848897E+02  0.00000000000E+00 0. -1.
         13    1    3    3    0    0 -0.35087905703E+02  0.49381613408E+02 -0.14478485568E+02  0.62284279026E+02  0.00000000000E+00 0.  1.
          2    1    1    2  501    0  0.17421706135E+01  0.42322657028E+02  0.67106742741E+02  0.79357150766E+02  0.00000000000E+00 0. -1.
<scales pt_clust_5="13000.00000" pt_clust_6="13000.00000" pt_clust_7="13000.00000" pt_clust_8="13000.00000" pt_clust_9="42.35850"></scales>
<clustering>
<clus scale="   42.358">  1  9  2 -1</clus>
<clus scale="   91.729">  7  8 -1 -1</clus>
<clus scale="   92.959">  5  6 -1 -1</clus>
<clus scale="  101.403">  2  7  1 -1</clus>
<clus scale="   42.358">  1  5  2 -1</clus>
</clustering>
</event>
<event>
 9    1  0.1464797E-005  0.1022925E+03  0.7546771E-02  0.1281512E+00
          1   -1    0    0  502    0 -0.00000000000E+00  0.00000000000E+00  0.56179998860E+02  0.56179998860E+02  0.00000000000E+00 0. -1.
         21   -1    0    0  501  502  0.00000000000E+00 -0.00000000000E+00 -0.22334355460E+03  0.22334355460E+03  0.00000000000E+00 0.  1.
         23    2    1    2    0    0  0.48569152188E+00  0.13841265419E+02 -0.42112198850E+02  0.10095880916E+03  0.90705167049E+02 0.  0.
         23    2    1    2    0    0  0.15779055038E+02 -0.19106945750E+00 -0.86244713774E+02  0.13432872527E+03  0.10176954698E+03 0.  0.
        -11    1    3    3    0    0  0.24662671243E+01 -0.38383517855E+02 -0.10463209579E+02  0.39860452470E+02  0.00000000000E+00 0.  1.
         11    1    3    3    0    0 -0.19805756024E+01  0.52224783274E+02 -0.31648989270E+02  0.61098356685E+02  0.00000000000E+00 0. -1.
        -13    1    4    4    0    0 -0.26664010306E+02 -0.37751323116E+02 -0.35935241052E+02  0.58544627354E+02  0.00000000000E+00 0.  1.
         13    1    4    4    0    0  0.42443065344E+02  0.37560253659E+02 -0.50309472722E+02  0.75784097912E+02  0.00000000000E+00 0. -1.
          1    1    1    2  501    0 -0.16264746560E+02 -0.13650195962E+02 -0.38806643111E+02  0.44236019034E+02  0.00000000000E+00 0. -1.
<scales pt_clust_5="13000.00000" pt_clust_6="13000.00000" pt_clust_7="13000.00000" pt_clust_8="13000.00000" pt_clust_9="21.23370"></scales>
<clustering>
<clus scale="   21.234">  2  9  1 -1</clus>
<clus scale="   90.705">  5  6 -1 -1</clus>
<clus scale="   91.292">  1  5  2 -1</clus>
<clus scale="  101.770">  7  8 -1 -1</clus>
<clus scale="   21.234">  2  5  1 -1</clus>
</clustering>
</event>
<event>
 9    1  0.1464797E-005  0.9435733E+02  0.7546771E-02  0.1294001E+00
         -1   -1    0    0    0  501 -0.00000000000E+00  0.00000000000E+00  0.43702474859E+03  0.43702474859E+03  0.00000000000E+00 0.  1.
         21   -1    0    0  501  502  0.00000000000E+00 -0.00000000000E+00 -0.45418549631E+02  0.45418549631E+02  0.00000000000E+00 0.  1.
         23    2    1    2    0    0  0.23890720945E+02  0.20088912945E+02  0.30743046510E+03  0.32206749213E+03  0.90772504884E+02 0.  0.
         23    2    1    2    0    0 -0.22456622086E+02  0.22065372345E+02  0.64808517761E+02  0.11396320579E+03  0.88296589778E+02 0.  0.
        -11    1    3    3    0    0  0.53440554091E+02  0.62401372206E+00  0.24041770226E+03  0.24628632479E+03  0.00000000000E+00 0. -1.
         11    1    3    3    0    0 -0.29549833146E+02  0.19464899223E+02  0.67012762840E+02  0.75781167345E+02  0.00000000000E+00 0.  1.
        -11    1    4    4    0    0  0.27641144191E+02  0.32150522335E+02  0.25350004031E+02  0.49399510554E+02  0.00000000000E+00 0. -1.
         11    1    4    4    0    0 -0.50097766277E+02 -0.10085149990E+02  0.39458513730E+02  0.64563695232E+02  0.00000000000E+00 0.  1.
         -1    1    1    2    0  502 -0.14340988589E+01 -0.42154285290E+02  0.19367216098E+02  0.46412600307E+02  0.00000000000E+00 0.  1.
<scales pt_clust_5="13000.00000" pt_clust_6="13000.00000" pt_clust_7="13000.00000" pt_clust_8="13000.00000" pt_clust_9="42.17867"></scales>
<clustering>
<clus scale="   42.179">  2  9  1 -1</clus>
<clus scale="   88.297">  7  8 -1 -1</clus>
<clus scale="   90.773">  5  6 -1 -1</clus>
<clus scale="   91.978">  2  7  1 -1</clus>
<clus scale="   42.179">  2  5  1 -1</clus>
</clustering>
</event>
<event>
 9    1  0.1464797E-005  0.9366227E+02  0.7546771E-02  0.1294231E+00
          3   -1    0    0  502    0 -0.00000000000E+00  0.00000000000E+00  0.18839693035E+03  0.18839693035E+03  0.00000000000E+00 0. -1.
         21   -1    0    0  501  502  0.00000000000E+00 -0.00000000000E+00 -0.13385764424E+03  0.13385764424E+03  0.00000000000E+00 0. -1.
         23    2    1    2    0    0  0.23057983828E+02  0.12182000305E+02  0.11591406151E+03  0.14870479917E+03  0.89425812217E+02 0.  0.
         23    2    1    2    0    0 -0.14943464213E+02 -0.34775990265E+02  0.10573229617E+02  0.97702235998E+02  0.89449746299E+02 0.  0.
        -11    1    3    3    0    0 -0.26402248454E+02  0.30054996576E+02  0.42140032298E+02  0.58104766282E+02  0.00000000000E+00 0.  1.
         11    1    3    3    0    0  0.49460232282E+02 -0.17872996271E+02  0.73774029213E+02  0.90600032889E+02  0.00000000000E+00 0. -1.
        -13    1    4    4    0    0 -0.23717501791E+02 -0.39796119109E+01  0.44790459920E+02  0.50838395943E+02  0.00000000000E+00 0. -1.
         13    1    4    4    0    0  0.87740375782E+01 -0.30796378354E+02 -0.34217230303E+02  0.46863840056E+02  0.00000000000E+00 0.  1.
          3    1    1    2  501    0 -0.81145196148E+01  0.22593989960E+02 -0.71948005021E+02  0.75847539428E+02  0.00000000000E+00 0. -1.
<scales pt_clust_5="13000.00000" pt_clust_6="13000.00000" pt_clust_7="13000.00000" pt_clust_8="13000.00000" pt_clust_9="24.00695"></scales>
<clustering>
<clus scale="   24.007">  2  9  1 -1</clus>
<clus scale="   89.426">  5  6 -1 -1</clus>
<clus scale="   89.450">  7  8 -1 -1</clus>
<clus scale="   93.639">  1  5  2 -1</clus>
<clus scale="   24.007">  2  5  1 -1</clus>
</clustering>
</event>
<event>
 9    1  0.1464797E-005  0.5266979E+03  0.7546771E-02  0.1007104E+00
         21   -1    0    0  501  502  0.00000000000E+00  0.00000000000E+00  0.14298038716E+03  0.14298038716E+03  0.00000000000E+00 0.  1.
          2   -1    0    0  502    0 -0.00000000000E+00 -0.00000000000E+00 -0.31221761593E+04  0.31221761593E+04  0.00000000000E+00 0. -1.
         23    2    1    2    0    0 -0.45908166705E+03  0.25526790110E+03 -0.21627315110E+04  0.22276232933E+04  0.94764285408E+02 0.  0.
         23    2    1    2    0    0  0.42869910764E+03 -0.26266408938E+03 -0.85010863337E+03  0.99160126746E+03  0.88391381681E+02 0.  0.
        -11    1    3    3    0    0 -0.40648222831E+03  0.18722072860E+03 -0.17896340270E+04  0.18447409991E+04  0.00000000000E+00 0. -1.
         11    1    3    3    0    0 -0.52599438738E+02  0.68047172501E+02 -0.37309748401E+03  0.38288229420E+03  0.00000000000E+00 0.  1.
        -13    1    4    4    0    0  0.87921160684E+02 -0.14966389764E+02 -0.15010609547E+03  0.17460230015E+03  0.00000000000E+00 0. -1.
         13    1    4    4    0    0  0.34077794695E+03 -0.24769769961E+03 -0.70000253790E+03  0.81699896731E+03  0.00000000000E+00 0.  1.
          2    1    1    2  501    0  0.30382559413E+02  0.73961882766E+01  0.33644372296E+02  0.45931985639E+02  0.00000000000E+00 0. -1.
<scales pt_clust_5="13000.00000" pt_clust_6="13000.00000" pt_clust_7="13000.00000" pt_clust_8="13000.00000" pt_clust_9="31.26985"></scales>
<clustering>
<clus scale="   31.270">  1  9  2 -1</clus>
<clus scale="   88.391">  7  8 -1 -1</clus>
<clus scale="   94.764">  5  6 -1 -1</clus>
<clus scale="  525.589">  1  7  2 -1</clus>
<clus scale="   31.270">  1  5  2 -1</clus>
</clustering>
</event>
<event>
 9    1  0.1464797E-005  0.1007093E+03  0.7546771E-02  0.1278851E+00
         21   -1    0    0  501  502  0.00000000000E+00  0.00000000000E+00  0.15212069534E+03  0.15212069534E+03  0.00000000000E+00 0.  1.
         -4   -1    0    0    0  501 -0.00000000000E+00 -0.00000000000E+00 -0.18413673249E+03  0.18413673249E+03  0.00000000000E+00 0.  1.
         23    2    1    2    0    0 -0.23449974158E+02 -0.47938285027E+02 -0.60433196655E+02  0.12158823257E+03  0.91013991135E+02 0.  0.
         23    2    1    2    0    0 -0.31053221795E+02  0.37503683680E+02 -0.53031709095E+02  0.11611262535E+03  0.91098576959E+02 0.  0.
        -13    1    4    4    0    0 -0.16420922816E+02 -0.28003859199E+02 -0.32463401728E+02  0.45910078283E+02  0.00000000000E+00 0. -1.
         13    1    4    4    0    0 -0.14632298980E+02  0.65507542879E+02 -0.20568307366E+02  0.70202547072E+02  0.00000000000E+00 0.  1.
        -13    1    3    3    0    0 -0.55732254946E+01 -0.63670579621E+02 -0.85272732330E+01  0.64480368644E+02  0.00000000000E+00 0. -1.
         13    1    3    3    0    0 -0.17876748663E+02  0.15732294594E+02 -0.51905923422E+02  0.57107863926E+02  0.00000000000E+00 0.  1.
         -4    1    1    2    0  502  0.54503195953E+02  0.10434601348E+02  0.81448868603E+02  0.98556569904E+02  0.00000000000E+00 0.  1.
<scales pt_clust_5="13000.00000" pt_clust_6="13000.00000" pt_clust_7="13000.00000" pt_clust_8="13000.00000" pt_clust_9="55.49306"></scales>
<clustering>
<clus scale="   55.493">  1  9  2 -1</clus>
<clus scale="   91.014">  7  8 -1 -1</clus>
<clus scale="   91.099">  5  6 -1 -1</clus>
<clus scale="  100.633">  2  7  1 -1</clus>
<clus scale="   55.493">  1  5  2 -1</clus>
</clustering>
</event>
<event>
 9    1  0.1464797E-005  0.9188180E+02  0.7546771E-02  0.1301856E+00
          1   -1    0    0  502    0 -0.00000000000E+00  0.00000000000E+00  0.17515916807E+03  0.17515916807E+03  0.00000000000E+00 0. -1.
         21   -1    0    0  501  502  0.00000000000E+00 -0.00000000000E+00 -0.11471587133E+03  0.11471587133E+03  0.00000000000E+00 0. -1.
         23    2    1    2    0    0 -0.15822276509E+02  0.18110565514E+02  0.64786521660E+02  0.11477898878E+03  0.91643798799E+02 0.  0.
         23    2    1    2    0    0 -0.22895504997E+01  0.16587441399E+02  0.55475819085E+02  0.10360963242E+03  0.85889488144E+02 0.  0.
        -11    1    4    4    0    0  0.28211570326E+02  0.39595028113E+02  0.37428580732E+02  0.61355990801E+02  0.00000000000E+00 0.  1.
         11    1    4    4    0    0 -0.30501120826E+02 -0.23007586714E+02  0.18047238353E+02  0.42253641621E+02  0.00000000000E+00 0. -1.
        -13    1    3    3    0    0 -0.74132746609E+01 -0.36664829777E+02  0.15067301013E+02  0.40327285349E+02  0.00000000000E+00 0.  1.
         13    1    3    3    0    0 -0.84090018478E+01  0.54775395291E+02  0.49719220647E+02  0.74451703427E+02  0.00000000000E+00 0. -1.
          1    1    1    2  501    0  0.18111827008E+02 -0.34698006913E+02 -0.59819044008E+02  0.71486418202E+02  0.00000000000E+00 0. -1.
<scales pt_clust_5="13000.00000" pt_clust_6="13000.00000" pt_clust_7="13000.00000" pt_clust_8="13000.00000" pt_clust_9="39.14064"></scales>
<clustering>
<clus scale="   39.141">  2  9  1 -1</clus>
<clus scale="   85.889">  5  6 -1 -1</clus>
<clus scale="   86.143">  2  5  1 -1</clus>
<clus scale="   91.644">  7  8 -1 -1</clus>
<clus scale="   39.141">  2  5  1 -1</clus>
</clustering>
</event>
<event>
 9    1  0.1464797E-005  0.1031602E+03  0.7546771E-02  0.1274611E+00
         21   -1    0    0  501  502  0.00000000000E+00  0.00000000000E+00  0.68432543985E+03  0.68432543985E+03  0.00000000000E+00 0.  1.
         -1   -1    0    0    0  501 -0.00000000000E+00 -0.00000000000E+00 -0.32990870644E+02  0.32990870644E+02  0.00000000000E+00 0.  1.
         23    2    1    2    0    0  0.20042196858E+02 -0.39587774362E+02  0.76064933268E+02  0.12688567870E+03  0.91352174862E+02 0.  0.
         23    2    1    2    0    0 -0.36299003023E+02  0.52697187087E+02  0.43957790746E+03  0.45314120895E+03  0.89518754305E+02 0.  0.
        -11    1    3    3    0    0  0.71327641683E+01  0.21741659669E+02 -0.59717702806E+01  0.23648216215E+02  0.00000000000E+00 0. -1.
         11    1    3    3    0    0  0.12909432690E+02 -0.61329434031E+02  0.82036703549E+02  0.10323746248E+03  0.00000000000E+00 0.  1.
        -13    1    4    4    0    0  0.24148557598E+02 -0.41503900979E+01  0.14682328119E+03  0.14885380234E+03  0.00000000000E+00 0. -1.
         13    1    4    4    0    0 -0.60447560621E+02  0.56847577184E+02  0.29275462628E+03  0.30428740661E+03  0.00000000000E+00 0.  1.
         -1    1    1    2    0  502  0.16256806165E+02 -0.13109412725E+02  0.13569172848E+03  0.13728942285E+03  0.00000000000E+00 0.  1.
<scales pt_clust_5="13000.00000" pt_clust_6="13000.00000" pt_clust_7="13000.00000" pt_clust_8="13000.00000" pt_clust_9="20.88398"></scales>
<clustering>
<clus scale="   20.884">  1  9  2 -1</clus>
<clus scale="   89.519">  7  8 -1 -1</clus>
<clus scale="   91.352">  5  6 -1 -1</clus>
<clus scale="  101.540">  1  7  2 -1</clus>
<clus scale="   20.884">  1  5  2 -1</clus>
</clustering>
</event>
<event>
 9    1  0.1464797E-005  0.1017142E+03  0.7546771E-02  0.1276952E+00
         21   -1    0    0  501  502  0.00000000000E+00  0.00000000000E+00  0.35229288071E+03  0.35229288071E+03  0.00000000000E+00 0. -1.
         -4   -1    0    0    0  501 -0.00000000000E+00 -0.00000000000E+00 -0.53496583402E+02  0.53496583402E+02  0.00000000000E+00 0.  1.
         23    2    1    2    0    0 -0.32339571897E+02  0.37466484620E+02  0.34767770564E+02  0.11013816064E+03  0.92043637358E+02 0.  0.
         23    2    1    2    0    0  0.74092749456E+01 -0.27130892940E+02  0.14994237203E+03  0.17841651828E+03  0.92513546896E+02 0.  0.
        -13    1    3    3    0    0  0.50679099942E+00 -0.22042426386E+02 -0.14323351498E+02  0.26292276361E+02  0.00000000000E+00 0.  1.
         13    1    3    3    0    0 -0.32846362896E+02  0.59508911006E+02  0.49091122062E+02  0.83845884276E+02  0.00000000000E+00 0. -1.
        -13    1    4    4    0    0 -0.11391088348E+02  0.27897844593E+02  0.89961358297E+02  0.94874088208E+02  0.00000000000E+00 0.  1.
         13    1    4    4    0    0  0.18800363293E+02 -0.55028737533E+02  0.59981013732E+02  0.83542430074E+02  0.00000000000E+00 0. -1.
         -4    1    1    2    0  502  0.24930296951E+02 -0.10335591680E+02  0.11408615472E+03  0.11723478520E+03  0.00000000000E+00 0.  1.
<scales pt_clust_5="13000.00000" pt_clust_6="13000.00000" pt_clust_7="13000.00000" pt_clust_8="13000.00000" pt_clust_9="26.98785"></scales>
<clustering>
<clus scale="   26.988">  1  9  2 -1</clus>
<clus scale="   92.044">  5  6 -1 -1</clus>
<clus scale="   92.514">  7  8 -1 -1</clus>
<clus scale="  101.287">  2  5  1 -1</clus>
<clus scale="   26.988">  1  5  2 -1</clus>
</clustering>
</event>
<event>
 9    1  0.1464797E-005  0.1143918E+03  0.7546771E-02  0.1253134E+00
         21   -1    0    0  501  502  0.00000000000E+00  0.00000000000E+00  0.21925306109E+03  0.21925306109E+03  0.00000000000E+00 0. -1.
          1   -1    0    0  502    0 -0.00000000000E+00 -0.00000000000E+00 -0.16484757149E+03  0.16484757149E+03  0.00000000000E+00 0. -1.
         23    2    1    2    0    0  0.32550341777E+02 -0.61169104007E+02 -0.11322520664E+03  0.16057674481E+03  0.90353525220E+02 0.  0.
         23    2    1    2    0    0 -0.12715367882E+02  0.79044897788E+02  0.14826864309E+03  0.19054117570E+03  0.88952642840E+02 0.  0.
        -11    1    3    3    0    0  0.26730896501E+02 -0.90405630600E+01  0.72873998217E+01  0.29144104110E+02  0.00000000000E+00 0.  1.
         11    1    3    3    0    0  0.58194452760E+01 -0.52128540947E+02 -0.12051260647E+03  0.13143264070E+03  0.00000000000E+00 0. -1.
        -11    1    4    4    0    0 -0.36510706565E+02 -0.31002646288E+00  0.39107290924E+02  0.53502411288E+02  0.00000000000E+00 0.  1.
         11    1    4    4    0    0  0.23795338682E+02  0.79354924251E+02  0.10916135217E+03  0.13703876441E+03  0.00000000000E+00 0. -1.
          1    1    1    2  501    0 -0.19834973895E+02 -0.17875793781E+02  0.19362053161E+02  0.32982712067E+02  0.00000000000E+00 0. -1.
<scales pt_clust_5="13000.00000" pt_clust_6="13000.00000" pt_clust_7="13000.00000" pt_clust_8="13000.00000" pt_clust_9="26.70150"></scales>
<clustering>
<clus scale="   26.702">  1  9  2 -1</clus>
<clus scale="   88.953">  7  8 -1 -1</clus>
<clus scale="   90.354">  5  6 -1 -1</clus>
<clus scale="  113.289">  1  7  2 -1</clus>
<clus scale="   26.702">  1  5  2 -1</clus>
</clustering>
</event>
<event>
 9    1  0.1464797E-005  0.1529553E+03  0.7546771E-02  0.1197143E+00
          1   -1    0    0  502    0 -0.00000000000E+00  0.00000000000E+00  0.28642236405E+02  0.28642236405E+02  0.00000000000E+00 0. -1.
         21   -1    0    0  501  502  0.00000000000E+00 -0.00000000000E+00 -0.10242560362E+04  0.10242560362E+04  0.00000000000E+00 0.  1.
         23    2    1    2    0    0 -0.93030279917E+02  0.68262069426E+02 -0.31350762756E+03  0.34636664453E+03  0.91479379105E+02 0.  0.
         23    2    1    2    0    0  0.11235524899E+03 -0.76613668077E+02 -0.60151107369E+03  0.62323232712E+03  0.90053349106E+02 0.  0.
        -11    1    3    3    0    0 -0.54049658703E+02  0.77855526733E+02 -0.27446278558E+03  0.29036643972E+03  0.00000000000E+00 0.  1.
         11    1    3    3    0    0 -0.38980621214E+02 -0.95934573069E+01 -0.39044841980E+02  0.56000204808E+02  0.00000000000E+00 0. -1.
        -13    1    4    4    0    0  0.11474303518E+03 -0.46408563214E+02 -0.54737068804E+03  0.56119015404E+03  0.00000000000E+00 0.  1.
         13    1    4    4    0    0 -0.23877861890E+01 -0.30205104863E+02 -0.54140385643E+02  0.62042173079E+02  0.00000000000E+00 0. -1.
          1    1    1    2  501    0 -0.19324969074E+02  0.83515986514E+01 -0.80595098516E+02  0.83299300924E+02  0.00000000000E+00 0. -1.
<scales pt_clust_5="13000.00000" pt_clust_6="13000.00000" pt_clust_7="13000.00000" pt_clust_8="13000.00000" pt_clust_9="21.05240"></scales>
<clustering>
<clus scale="   21.052">  2  9  1 -1</clus>
<clus scale="   90.053">  7  8 -1 -1</clus>
<clus scale="   91.479">  5  6 -1 -1</clus>
<clus scale="  152.107">  2  7  1 -1</clus>
<clus scale="   21.052">  2  5  1 -1</clus>
</clustering>
</event>
<event>
 9    1  0.1464797E-005  0.1387252E+03  0.7546771E-02  0.1215971E+00
          1   -1    0    0  502    0 -0.00000000000E+00  0.00000000000E+00  0.69298441586E+03  0.69298441586E+03  0.00000000000E+00 0. -1.
         21   -1    0    0  501  502  0.00000000000E+00 -0.00000000000E+00 -0.91536528349E+02  0.91536528349E+02  0.00000000000E+00 0.  1.
         23    2    1    2    0    0  0.98579687241E+02 -0.89958528058E+01  0.58688799598E+03  0.60208459975E+03  0.90936600532E+02 0.  0.
         23    2    1    2    0    0 -0.12309823113E+03 -0.22952170531E+00  0.91428794025E+01  0.15568544635E+03  0.94874331480E+02 0.  0.
        -11    1    3    3    0    0  0.10423471581E+03  0.14565440106E+02  0.52833716498E+03  0.53871809690E+03  0.00000000000E+00 0. -1.
         11    1    3    3    0    0 -0.56550285727E+01 -0.23561292912E+02  0.58550831003E+02  0.63366502847E+02  0.00000000000E+00 0.  1.
        -11    1    4    4    0    0 -0.55065016703E+02  0.45302738025E+02 -0.88936021645E+01  0.71858126169E+02  0.00000000000E+00 0. -1.
         11    1    4    4    0    0 -0.68033214429E+02 -0.45532259730E+02  0.18036481567E+02  0.83827320183E+02  0.00000000000E+00 0.  1.
          1    1    1    2  501    0  0.24518543892E+02  0.92253745111E+01  0.54170121235E+01  0.26750898112E+02  0.00000000000E+00 0. -1.
<scales pt_clust_5="13000.00000" pt_clust_6="13000.00000" pt_clust_7="13000.00000" pt_clust_8="13000.00000" pt_clust_9="26.19669"></scales>
<clustering>
<clus scale="   26.197">  2  9  1 -1</clus>
<clus scale="   90.937">  5  6 -1 -1</clus>
<clus scale="   94.874">  7  8 -1 -1</clus>
<clus scale="  136.063">  1  5  2 -1</clus>
<clus scale="   26.197">  2  5  1 -1</clus>
</clustering>
</event>
<event>
 9    1  0.1464797E-005  0.1429799E+03  0.7546771E-02  0.1209579E+00
         21   -1    0    0  501  502  0.00000000000E+00  0.00000000000E+00  0.14241991623E+03  0.14241991623E+03  0.00000000000E+00 0.  1.
          3   -1    0    0  502    0 -0.00000000000E+00 -0.00000000000E+00 -0.39490540482E+03  0.39490540482E+03  0.00000000000E+00 0. -1.
         23    2    1    2    0    0  0.85155965299E+02 -0.83663006343E+02 -0.26942476915E+03  0.30799334376E+03  0.89549743238E+02 0.  0.
         23    2    1    2    0    0 -0.35338729844E+02  0.90067682113E+02 -0.53433398841E+02  0.14287336969E+03  0.90535398977E+02 0.  0.
        -13    1    3    3    0    0  0.38317048378E+02  0.66668079258E+01 -0.34538181251E+02  0.52014694928E+02  0.00000000000E+00 0.  1.
         13    1    3    3    0    0  0.46838916921E+02 -0.90329814269E+02 -0.23488658790E+03  0.25597864884E+03  0.00000000000E+00 0. -1.
        -13    1    4    4    0    0 -0.11518616258E+02  0.60705632773E+02  0.15987928054E+02  0.63823712007E+02  0.00000000000E+00 0.  1.
         13    1    4    4    0    0 -0.23820113586E+02  0.29362049341E+02 -0.69421326895E+02  0.79049657688E+02  0.00000000000E+00 0. -1.
          3    1    1    2  501    0 -0.49817235455E+02 -0.64046757706E+01  0.70372679405E+02  0.86458607592E+02  0.00000000000E+00 0. -1.
<scales pt_clust_5="13000.00000" pt_clust_6="13000.00000" pt_clust_7="13000.00000" pt_clust_8="13000.00000" pt_clust_9="50.22725"></scales>
<clustering>
<clus scale="   50.227">  1  9  2 -1</clus>
<clus scale="   89.550">  5  6 -1 -1</clus>
<clus scale="   90.535">  7  8 -1 -1</clus>
<clus scale="  142.358">  2  5  1 -1</clus>
<clus scale="   50.227">  1  5  2 -1</clus>
</clustering>
</event>
<event>
 9    1  0.1464797E-005  0.1433540E+03  0.7546771E-02  0.1228464E+00
         -1   -1    0    0    0  501 -0.00000000000E+00  0.00000000000E+00  0.14792138131E+03  0.14792138131E+03  0.00000000000E+00 0.  1.
         21   -1    0    0  501  502  0.00000000000E+00 -0.00000000000E+00 -0.24796347936E+03  0.24796347936E+03  0.00000000000E+00 0. -1.
         23    2    1    2    0    0  0.17561346795E+02 -0.30083529796E+02  0.27236458420E+02  0.98774705506E+02  0.88324391389E+02 0.  0.
         23    2    1    2    0    0 -0.52722849301E+01  0.13576374836E+03 -0.57442482932E+02  0.16984505074E+03  0.84190914349E+02 0.  0.
        -11    1    4    4    0    0 -0.41114913130E+02  0.98271219126E+02 -0.49149878978E+02  0.11731742920E+03  0.00000000000E+00 0. -1.
         11    1    4    4    0    0  0.35842628200E+02  0.37492529234E+02 -0.82926039544E+01  0.52527621543E+02  0.00000000000E+00 0.  1.
        -13    1    3    3    0    0 -0.10442640284E+02 -0.19313488268E+02  0.54173245568E+02  0.58453401104E+02  0.00000000000E+00 0.  1.
         13    1    3    3    0    0  0.28003987079E+02 -0.10770041528E+02 -0.26936787148E+02  0.40321304402E+02  0.00000000000E+00 0. -1.
         -1    1    1    2    0  502 -0.12289061865E+02 -0.10568021856E+03 -0.69836073540E+02  0.12726510443E+03  0.00000000000E+00 0.  1.
<scales pt_clust_5="13000.00000" pt_clust_6="13000.00000" pt_clust_7="13000.00000" pt_clust_8="13000.00000" pt_clust_9="116.02698"></scales>
<clustering>
<clus scale="   84.191">  5  6 -1 -1</clus>
<clus scale="   88.324">  7  8 -1 -1</clus>
<clus scale="   94.945">  1  7  2 -1</clus>
<clus scale="  116.027">  2  9  1 -1</clus>
<clus scale="  116.027">  2  5  1 -1</clus>
</clustering>
</event>
<event>
 9    1  0.1464797E-005  0.1112940E+03  0.7546771E-02  0.1258396E+00
          1   -1    0    0  502    0 -0.00000000000E+00  0.00000000000E+00  0.43966301406E+03  0.43966301406E+03  0.00000000000E+00 0. -1.
         21   -1    0    0  501  502  0.00000000000E+00 -0.00000000000E+00 -0.16901603008E+03  0.16901603008E+03  0.00000000000E+00 0. -1.
         23    2    1    2    0    0  0.33265732774E+02  0.58974904197E+02  0.39377841136E+03  0.40995825099E+03  0.91758825188E+02 0.  0.
         23    2    1    2    0    0 -0.26016542414E+02 -0.33810096959E+01 -0.52250595817E+02  0.10834754407E+03  0.91218275780E+02 0.  0.
        -13    1    3    3    0    0  0.65313646349E+02  0.35753258707E+02  0.25778965467E+03  0.26832754976E+03  0.00000000000E+00 0.  1.
         13    1    3    3    0    0 -0.32047913575E+02  0.23221645489E+02  0.13598875669E+03  0.14163070123E+03  0.00000000000E+00 0. -1.
        -13    1    4    4    0    0  0.22859720780E+02  0.39457910160E+01  0.12922703702E+02  0.26554328684E+02  0.00000000000E+00 0. -1.
         13    1    4    4    0    0 -0.48876263194E+02 -0.73268007119E+01 -0.65173299519E+02  0.81793215383E+02  0.00000000000E+00 0.  1.
          1    1    1    2  501    0 -0.72491903601E+01 -0.55593894501E+02 -0.70880831562E+02  0.90373249081E+02  0.00000000000E+00 0. -1.
<scales pt_clust_5="13000.00000" pt_clust_6="13000.00000" pt_clust_7="13000.00000" pt_clust_8="13000.00000" pt_clust_9="56.06453"></scales>
<clustering>
<clus scale="   56.065">  2  9  1 -1</clus>
<clus scale="   91.218">  7  8 -1 -1</clus>
<clus scale="   91.759">  5  6 -1 -1</clus>
<clus scale="  110.849">  2  7  1 -1</clus>
<clus scale="   56.065">  2  5  1 -1</clus>
</clustering>
</event>
<event>
 9    1  0.1464797E-005  0.1279911E+03  0.7546771E-02  0.1231827E+00
         21   -1    0    0  501  502  0.00000000000E+00  0.00000000000E+00  0.47739532998E+02  0.47739532998E+02  0.00000000000E+00 0.  1.
          1   -1    0    0  502    0 -0.00000000000E+00 -0.00000000000E+00 -0.47335722593E+03  0.47335722593E+03  0.00000000000E+00 0. -1.
         23    2    1    2    0    0 -0.72037955307E+02  0.34568861544E+02 -0.25747837923E+03  0.28455953754E+03  0.91074373131E+02 0.  0.
         23    2    1    2    0    0  0.73693323002E+02 -0.60888196264E+02 -0.15854294466E+03  0.20847411534E+03  0.95851516237E+02 0.  0.
        -11    1    3    3    0    0 -0.62404798698E+02  0.62132987003E+02 -0.15798996817E+03  0.18087481034E+03  0.00000000000E+00 0.  1.
         11    1    3    3    0    0 -0.96331566086E+01 -0.27564125460E+02 -0.99488411060E+02  0.10368472720E+03  0.00000000000E+00 0. -1.
        -13    1    4    4    0    0  0.25944378179E+02  0.22482062597E+02 -0.19545620535E+02  0.39504242555E+02  0.00000000000E+00 0. -1.
         13    1    4    4    0    0  0.47748944822E+02 -0.83370258861E+02 -0.13899732413E+03  0.16896987278E+03  0.00000000000E+00 0.  1.
          1    1    1    2  501    0 -0.16553676947E+01  0.26319334720E+02 -0.95963690405E+01  0.28063106048E+02  0.00000000000E+00 0. -1.
<scales pt_clust_5="13000.00000" pt_clust_6="13000.00000" pt_clust_7="13000.00000" pt_clust_8="13000.00000" pt_clust_9="26.37134"></scales>
<clustering>
<clus scale="   26.371">  1  9  2 -1</clus>
<clus scale="   91.074">  5  6 -1 -1</clus>
<clus scale="   95.852">  7  8 -1 -1</clus>
<clus scale="  124.454">  2  5  1 -1</clus>
<clus scale="   26.371">  1  5  2 -1</clus>
</clustering>
</event>
<event>
 9    1  0.1464797E-005  0.3269315E+03  0.7546771E-02  0.1085232E+00
         -1   -1    0    0    0  501 -0.00000000000E+00  0.00000000000E+00  0.70201125366E+03  0.70201125366E+03  0.00000000000E+00 0.  1.
         21   -1    0    0  501  502  0.00000000000E+00 -0.00000000000E+00 -0.55444919371E+03  0.55444919371E+03  0.00000000000E+00 0. -1.
         23    2    1    2    0    0 -0.51505861441E+02 -0.20749921236E+03  0.45533132383E+03  0.51096141610E+03  0.89700487140E+02 0.  0.
         23    2    1    2    0    0  0.33938612144E+03  0.16476914788E+03 -0.18510060964E+03  0.42966917005E+03  0.89563097790E+02 0.  0.
        -11    1    4    4    0    0  0.16046224727E+03  0.12606534170E+03 -0.10979546110E+03  0.23172321087E+03  0.00000000000E+00 0. -1.
         11    1    4    4    0    0  0.17892387417E+03  0.38703806178E+02 -0.75305148539E+02  0.19794595919E+03  0.00000000000E+00 0.  1.
        -13    1    3    3    0    0 -0.71583380921E+02 -0.18318108484E+03  0.41894362471E+03  0.46281016729E+03  0.00000000000E+00 0.  1.
         13    1    3    3    0    0  0.20077519480E+02 -0.24318127516E+02  0.36387699119E+02  0.48151248805E+02  0.00000000000E+00 0. -1.
         -1    1    1    2    0  502 -0.28788026000E+03  0.42730064479E+02 -0.12266865424E+03  0.31582986123E+03  0.00000000000E+00 0.  1.
<scales pt_clust_5="13000.00000" pt_clust_6="13000.00000" pt_clust_7="13000.00000" pt_clust_8="13000.00000" pt_clust_9="314.42433"></scales>
<clustering>
<clus scale="   89.563">  5  6 -1 -1</clus>
<clus scale="   89.700">  7  8 -1 -1</clus>
<clus scale="  231.851">  1  7  2 -1</clus>
<clus scale="  314.424">  2  9  1 -1</clus>
<clus scale="  314.424">  2  5  1 -1</clus>
</clustering>
</event>
<event>
 9    1  0.1464797E-005  0.9296898E+02  0.7546771E-02  0.1297297E+00
         -2   -1    0    0    0  501 -0.00000000000E+00  0.00000000000E+00  0.10480261220E+03  0.10480261220E+03  0.00000000000E+00 0.  1.
         21   -1    0    0  501  502  0.00000000000E+00 -0.00000000000E+00 -0.20212268782E+03  0.20212268782E+03  0.00000000000E+00 0. -1.
         23    2    1    2    0    0 -0.27031972554E+01 -0.19809769339E+02  0.51896148500E+02  0.10715592747E+03  0.91593931707E+02 0.  0.
         23    2    1    2    0    0  0.17226902825E+02 -0.16555409093E+01 -0.64827379082E+02  0.11149041279E+03  0.89039407399E+02 0.  0.
        -11    1    3    3    0    0  0.16279454629E+02 -0.46036805008E+02  0.56250608120E+02  0.74488515707E+02  0.00000000000E+00 0.  1.
         11    1    3    3    0    0 -0.18982651884E+02  0.26227035669E+02 -0.43544596198E+01  0.32667411760E+02  0.00000000000E+00 0. -1.
        -13    1    4    4    0    0 -0.69837173284E+01 -0.31167216390E+02  0.45918322485E+01  0.32268446021E+02  0.00000000000E+00 0.  1.
         13    1    4    4    0    0  0.24210620154E+02  0.29511675480E+02 -0.69419211330E+02  0.79221966774E+02  0.00000000000E+00 0. -1.
         -2    1    1    2    0  502 -0.14523705570E+02  0.21465310248E+02 -0.84388845048E+02  0.88278959758E+02  0.00000000000E+00 0.  1.
<scales pt_clust_5="13000.00000" pt_clust_6="13000.00000" pt_clust_7="13000.00000" pt_clust_8="13000.00000" pt_clust_9="25.91713"></scales>
<clustering>
<clus scale="   25.917">  2  9  1 -1</clus>
<clus scale="   89.039">  7  8 -1 -1</clus>
<clus scale="   90.453">  2  7  1 -1</clus>
<clus scale="   91.594">  5  6 -1 -1</clus>
<clus scale="   25.917">  2  5  1 -1</clus>
</clustering>
</event>
<event>
 9    1  0.1464797E-005  0.2125541E+03  0.7546771E-02  0.1139651E+00
          2   -1    0    0  502    0 -0.00000000000E+00  0.00000000000E+00  0.86608199818E+03  0.86608199818E+03  0.00000000000E+00 0. -1.
         21   -1    0    0  501  502  0.00000000000E+00 -0.00000000000E+00 -0.88456031584E+02  0.88456031584E+02  0.00000000000E+00 0.  1.
         23    2    1    2    0    0  0.72518546357E+02 -0.17226298746E+03  0.62569754550E+03  0.65945860934E+03  0.91949782868E+02 0.  0.
         23    2    1    2    0    0 -0.87474041575E+02  0.18994569524E+03  0.14734165568E+03  0.27147045161E+03  0.90860153602E+02 0.  0.
        -11    1    4    4    0    0  0.98000148437E+01  0.39726101432E+02  0.59237051550E+02  0.71994664401E+02  0.00000000000E+00 0. -1.
         11    1    4    4    0    0 -0.97274056419E+02  0.15021959381E+03  0.88104604127E+02  0.19947578721E+03  0.00000000000E+00 0.  1.
        -11    1    3    3    0    0  0.17199911907E+02 -0.14004537730E+03  0.48020511306E+03  0.50050524001E+03  0.00000000000E+00 0. -1.
         11    1    3    3    0    0  0.55318634449E+02 -0.32217610161E+02  0.14549243244E+03  0.15895336932E+03  0.00000000000E+00 0.  1.
          2    1    1    2  501    0  0.14955495219E+02 -0.17682707774E+02  0.45867654221E+01  0.23608968815E+02  0.00000000000E+00 0. -1.
<scales pt_clust_5="13000.00000" pt_clust_6="13000.00000" pt_clust_7="13000.00000" pt_clust_8="13000.00000" pt_clust_9="23.15912"></scales>
<clustering>
<clus scale="   23.159">  2  9  1 -1</clus>
<clus scale="   90.860">  5  6 -1 -1</clus>
<clus scale="   91.950">  7  8 -1 -1</clus>
<clus scale="  212.085">  2  5  1 -1</clus>
<clus scale="   23.159">  2  5  1 -1</clus>
</clustering>
</event>
<event>
 9    1  0.1464797E-005  0.2925377E+03  0.7546771E-02  0.1089057E+00
         -3   -1    0    0    0  501 -0.00000000000E+00  0.00000000000E+00  0.29083026430E+04  0.29083026430E+04  0.00000000000E+00 0.  1.
         21   -1    0    0  501  502  0.00000000000E+00 -0.00000000000E+00 -0.75578603332E+02  0.75578603332E+02  0.00000000000E+00 0.  1.
         23    2    1    2    0    0  0.16422014939E+01  0.27477296162E+03  0.15653186071E+04  0.15918455931E+04  0.90813947571E+02 0.  0.
         23    2    1    2    0    0 -0.26101143561E+02 -0.28159884354E+03  0.13095832716E+04  0.13428035233E+04  0.90187463235E+02 0.  0.
        -11    1    3    3    0    0 -0.31818060210E+02  0.23402440305E+03  0.13138487327E+04  0.13349076008E+04  0.00000000000E+00 0. -1.
         11    1    3    3    0    0  0.33460261704E+02  0.40748558573E+02  0.25146987442E+03  0.25693799229E+03  0.00000000000E+00 0.  1.
        -13    1    4    4    0    0 -0.34367437701E+02 -0.24175023553E+03  0.12229293215E+04  0.12470687321E+04  0.00000000000E+00 0.  1.
         13    1    4    4    0    0  0.82662941396E+01 -0.39848608005E+02  0.86653950061E+02  0.95734791168E+02  0.00000000000E+00 0. -1.
         -3    1    1    2    0  502  0.24458942067E+02  0.68258819140E+01 -0.42177839080E+02  0.49232129960E+02  0.00000000000E+00 0.  1.
<scales pt_clust_5="13000.00000" pt_clust_6="13000.00000" pt_clust_7="13000.00000" pt_clust_8="13000.00000" pt_clust_9="25.39355"></scales>
<clustering>
<clus scale="   25.394">  2  9  1 -1</clus>
<clus scale="   90.187">  7  8 -1 -1</clus>
<clus scale="   90.814">  5  6 -1 -1</clus>
<clus scale="  292.344">  2  7  1 -1</clus>
<clus scale="   25.394">  2  5  1 -1</clus>
</clustering>
</event>
<event>
 9    1  0.1464797E-005  0.1284463E+03  0.7546771E-02  0.1230094E+00
          1   -1    0    0  502    0 -0.00000000000E+00  0.00000000000E+00  0.38927090675E+03  0.38927090675E+03  0.00000000000E+00 0. -1.
         21   -1    0    0  501  502  0.00000000000E+00 -0.00000000000E+00 -0.15367664591E+03  0.15367664591E+03  0.00000000000E+00 0. -1.
         23    2    1    2    0    0 -0.88468684124E+02  0.67532287188E+02  0.26116195687E+03  0.29801774198E+03  0.90673529387E+02 0.  0.
         23    2    1    2    0    0  0.57675068020E+02 -0.13215991716E+02  0.70740832793E+02  0.13015246331E+03  0.91838566916E+02 0.  0.
        -11    1    4    4    0    0  0.81364208295E+02 -0.11869878668E+02  0.40338983449E+02  0.91587455455E+02  0.00000000000E+00 0.  1.
         11    1    4    4    0    0 -0.23689140275E+02 -0.13461130482E+01  0.30401849345E+02  0.38565007855E+02  0.00000000000E+00 0. -1.
        -13    1    3    3    0    0 -0.10536600023E+03  0.47224695627E+02  0.22843654973E+03  0.25595980766E+03  0.00000000000E+00 0. -1.
         13    1    3    3    0    0  0.16897316109E+02  0.20307591561E+02  0.32725407140E+02  0.42057934319E+02  0.00000000000E+00 0.  1.
          1    1    1    2  501    0  0.30793616104E+02 -0.54316295471E+02 -0.96308528819E+02  0.11477734737E+03  0.00000000000E+00 0. -1.
<scales pt_clust_5="13000.00000" pt_clust_6="13000.00000" pt_clust_7="13000.00000" pt_clust_8="13000.00000" pt_clust_9="62.43802"></scales>
<clustering>
<clus scale="   62.438">  2  9  1 -1</clus>
<clus scale="   90.674">  7  8 -1 -1</clus>
<clus scale="   91.839">  5  6 -1 -1</clus>
<clus scale="  127.616">  1  7  2 -1</clus>
<clus scale="   62.438">  2  5  1 -1</clus>
</clustering>
</event>
<event>
 9    1  0.1464797E-005  0.1557220E+03  0.7546771E-02  0.1211613E+00
          3   -1    0    0  502    0 -0.00000000000E+00  0.00000000000E+00  0.26962007795E+03  0.26962007795E+03  0.00000000000E+00 0. -1.
         21   -1    0    0  501  502  0.00000000000E+00 -0.00000000000E+00 -0.41062654461E+03  0.41062654461E+03  0.00000000000E+00 0. -1.
         23    2    1    2    0    0 -0.34660939017E+02 -0.35594699041E+02 -0.10405040568E+03  0.14818826392E+03  0.93085505574E+02 0.  0.
         23    2    1    2    0    0 -0.10151001632E+02  0.15215814958E+03  0.19796121148E+03  0.26601085738E+03  0.91203013517E+02 0.  0.
        -11    1    4    4    0    0 -0.17376152686E+02  0.67813633197E+02  0.26613697869E+02  0.74892646126E+02  0.00000000000E+00 0.  1.
         11    1    4    4    0    0  0.72251510536E+01  0.84344516388E+02  0.17134751361E+03  0.19111821125E+03  0.00000000000E+00 0. -1.
        -13    1    3    3    0    0  0.52515743938E+01 -0.52861556854E+02 -0.86042334654E+02  0.10111976355E+03  0.00000000000E+00 0.  1.
         13    1    3    3    0    0 -0.39912513411E+02  0.17266857813E+02 -0.18008071028E+02  0.47068500376E+02  0.00000000000E+00 0. -1.
          3    1    1    2  501    0  0.44811940650E+02 -0.11656345054E+03 -0.23491727245E+03  0.26604750126E+03  0.00000000000E+00 0. -1.
<scales pt_clust_5="13000.00000" pt_clust_6="13000.00000" pt_clust_7="13000.00000" pt_clust_8="13000.00000" pt_clust_9="126.21940"></scales>
<clustering>
<clus scale="   91.203">  5  6 -1 -1</clus>
<clus scale="   93.086">  7  8 -1 -1</clus>
<clus scale="  105.514">  1  7  2 -1</clus>
<clus scale="  126.219">  2  9  1 -1</clus>
<clus scale="  126.219">  2  5  1 -1</clus>
</clustering>
</event>
<event>
 9    1  0.1464797E-005  0.1234460E+03  0.7546771E-02  0.1239100E+00
          3   -1    0    0  502    0 -0.00000000000E+00  0.00000000000E+00  0.11880839426E+03  0.11880839426E+03  0.00000000000E+00 0. -1.
         21   -1    0    0  501  502  0.00000000000E+00 -0.00000000000E+00 -0.38789733773E+03  0.38789733773E+03  0.00000000000E+00 0. -1.
         23    2    1    2    0    0 -0.56900214335E+02  0.59773316721E+02  0.67579704736E+02  0.14213409424E+03  0.93939344640E+02 0.  0.
         23    2    1    2    0    0  0.41582317502E+02 -0.41780259186E+02 -0.31494383638E+03  0.33247248617E+03  0.88733617076E+02 0.  0.
        -11    1    3    3    0    0 -0.27320287777E+02 -0.52470150743E+01  0.64945431311E+02  0.70652942894E+02  0.00000000000E+00 0.  1.
         11    1    3    3    0    0 -0.29579926558E+02  0.65020331796E+02  0.26342734251E+01  0.71481151351E+02  0.00000000000E+00 0. -1.
        -13    1    4    4    0    0  0.14421583101E+02 -0.67246121581E+02 -0.18817963869E+03  0.20035368562E+03  0.00000000000E+00 0.  1.
         13    1    4    4    0    0  0.27160734401E+02  0.25465862395E+02 -0.12676419769E+03  0.13211880054E+03  0.00000000000E+00 0. -1.
          3    1    1    2  501    0  0.15317896832E+02 -0.17993057536E+02 -0.21724811831E+02  0.32099151577E+02  0.00000000000E+00 0. -1.
<scales pt_clust_5="13000.00000" pt_clust_6="13000.00000" pt_clust_7="13000.00000" pt_clust_8="13000.00000" pt_clust_9="23.63024"></scales>
<clustering>
<clus scale="   23.630">  2  9  1 -1</clus>
<clus scale="   88.734">  7  8 -1 -1</clus>
<clus scale="   93.939">  5  6 -1 -1</clus>
<clus scale="  119.532">  2  7  1 -1</clus>
<clus scale="   23.630">  2  5  1 -1</clus>
</clustering>
</event>
<event>
 9    1  0.1464797E-005  0.1538386E+03  0.7546771E-02  0.1196301E+00
         21   -1    0    0  501  502  0.00000000000E+00  0.00000000000E+00  0.71116662511E+02  0.71116662511E+02  0.00000000000E+00 0. -1.
         -1   -1    0    0    0  501 -0.00000000000E+00 -0.00000000000E+00 -0.48140789002E+03  0.48140789002E+03  0.00000000000E+00 0.  1.
         23    2    1    2    0    0 -0.70102132217E+02 -0.11128901437E+03 -0.30765371165E+03  0.34692919610E+03  0.91703364987E+02 0.  0.
         23    2    1    2    0    0  0.56278855985E+02  0.94175696114E+02 -0.11332644019E+03  0.18113719357E+03  0.89058573310E+02 0.  0.
        -11    1    4    4    0    0  0.18837160856E+02  0.62053208438E+02 -0.11472450708E+03  0.13178449010E+03  0.00000000000E+00 0.  1.
         11    1    4    4    0    0  0.37441695128E+02  0.32122487676E+02  0.13980668955E+01  0.49352703468E+02  0.00000000000E+00 0. -1.
        -11    1    3    3    0    0 -0.30270686976E+02  0.58551682249E+01 -0.10552551980E+03  0.10993740407E+03  0.00000000000E+00 0.  1.
         11    1    3    3    0    0 -0.39831445240E+02 -0.11714418260E+03 -0.20212819186E+03  0.23699179203E+03  0.00000000000E+00 0. -1.
         -1    1    1    2    0  502  0.13823276232E+02  0.17113318257E+02  0.10688924326E+02  0.24458162866E+02  0.00000000000E+00 0.  1.
<scales pt_clust_5="13000.00000" pt_clust_6="13000.00000" pt_clust_7="13000.00000" pt_clust_8="13000.00000" pt_clust_9="21.99883"></scales>
<clustering>
<clus scale="   21.999">  1  9  2 -1</clus>
<clus scale="   89.059">  5  6 -1 -1</clus>
<clus scale="   91.703">  7  8 -1 -1</clus>
<clus scale="  152.277">  1  5  2 -1</clus>
<clus scale="   21.999">  1  5  2 -1</clus>
</clustering>
</event>
<event>
 9    1  0.1464797E-005  0.9381023E+02  0.7546771E-02  0.1299523E+00
          2   -1    0    0  502    0 -0.00000000000E+00  0.00000000000E+00  0.19523614585E+03  0.19523614585E+03  0.00000000000E+00 0. -1.
         21   -1    0    0  501  502  0.00000000000E+00 -0.00000000000E+00 -0.12248136952E+03  0.12248136952E+03  0.00000000000E+00 0.  1.
         23    2    1    2    0    0  0.13232004841E+02  0.76672647870E+01  0.14604952519E+03  0.16858255553E+03  0.82799404099E+02 0.  0.
         23    2    1    2    0    0 -0.11235669260E+02 -0.29225392722E+02 -0.32113743025E+02  0.10260955305E+03  0.92287940934E+02 0.  0.
        -11    1    3    3    0    0  0.46288391383E+02 -0.62525864162E+01  0.65910514148E+02  0.80783079224E+02  0.00000000000E+00 0.  1.
         11    1    3    3    0    0 -0.33056386541E+02  0.13919851203E+02  0.80139011038E+02  0.87799476302E+02  0.00000000000E+00 0. -1.
        -13    1    4    4    0    0 -0.26882146451E+02  0.14818329985E+02  0.16768370272E+02  0.34977291818E+02  0.00000000000E+00 0. -1.
         13    1    4    4    0    0  0.15646477192E+02 -0.44043722706E+02 -0.48882113297E+02  0.67632261228E+02  0.00000000000E+00 0.  1.
          2    1    1    2  501    0 -0.19963355819E+01  0.21558127935E+02 -0.41181005836E+02  0.46525406795E+02  0.00000000000E+00 0. -1.
<scales pt_clust_5="13000.00000" pt_clust_6="13000.00000" pt_clust_7="13000.00000" pt_clust_8="13000.00000" pt_clust_9="21.65036"></scales>
<clustering>
<clus scale="   21.650">  2  9  1 -1</clus>
<clus scale="   82.799">  5  6 -1 -1</clus>
<clus scale="   84.493">  1  5  2 -1</clus>
<clus scale="   92.288">  7  8 -1 -1</clus>
<clus scale="   21.650">  2  5  1 -1</clus>
</clustering>
</event>
<event>
 9    1  0.1464797E-005  0.9410329E+02  0.7546771E-02  0.1295232E+00
          2   -1    0    0  502    0 -0.00000000000E+00  0.00000000000E+00  0.16666679012E+03  0.16666679012E+03  0.00000000000E+00 0. -1.
         21   -1    0    0  501  502  0.00000000000E+00 -0.00000000000E+00 -0.15212716873E+03  0.15212716873E+03  0.00000000000E+00 0. -1.
         23    2    1    2    0    0 -0.17963525803E+02 -0.85804582825E+01  0.89595528402E+02  0.13035480513E+03  0.92567294367E+02 0.  0.
         23    2    1    2    0    0  0.12922544665E+02 -0.32235239293E+02  0.78580326783E+01  0.95886174011E+02  0.89029808918E+02 0.  0.
        -11    1    3    3    0    0 -0.44178687707E+02  0.25654008633E+02  0.55065860085E+02  0.75114136841E+02  0.00000000000E+00 0.  1.
         11    1    3    3    0    0  0.26215161903E+02 -0.34234466915E+02  0.34529668317E+02  0.55240668286E+02  0.00000000000E+00 0. -1.
        -13    1    4    4    0    0  0.42585814551E+02 -0.17935419632E+02 -0.22232333910E+02  0.51278724140E+02  0.00000000000E+00 0.  1.
         13    1    4    4    0    0 -0.29663269885E+02 -0.14299819661E+02  0.30090366588E+02  0.44607449871E+02  0.00000000000E+00 0. -1.
          2    1    1    2  501    0  0.50409811380E+01  0.40815697575E+02 -0.82913939689E+02  0.92552979715E+02  0.00000000000E+00 0. -1.
<scales pt_clust_5="13000.00000" pt_clust_6="13000.00000" pt_clust_7="13000.00000" pt_clust_8="13000.00000" pt_clust_9="41.12581"></scales>
<clustering>
<clus scale="   41.126">  2  9  1 -1</clus>
<clus scale="   89.030">  7  8 -1 -1</clus>
<clus scale="   90.626">  2  7  1 -1</clus>
<clus scale="   92.567">  5  6 -1 -1</clus>
<clus scale="   41.126">  2  5  1 -1</clus>
</clustering>
</event>
<event>
 9    1  0.1464797E-005  0.1601419E+03  0.7546771E-02  0.1188723E+00
         21   -1    0    0  501  502  0.00000000000E+00  0.00000000000E+00  0.10778968635E+03  0.10778968635E+03  0.00000000000E+00 0.  1.
         -1   -1    0    0    0  501 -0.00000000000E+00 -0.00000000000E+00 -0.29415067154E+03  0.29415067154E+03  0.00000000000E+00 0.  1.
         23    2    1    2    0    0  0.76234682271E+02  0.10834733324E+03 -0.13046599135E+03  0.20758074061E+03  0.92290398060E+02 0.  0.
         23    2    1    2    0    0 -0.94962201091E+02 -0.88842855970E+02 -0.43739402466E+02  0.16471331909E+03  0.91139834673E+02 0.  0.
        -13    1    3    3    0    0  0.83910177687E+02  0.41509911317E+02 -0.84390714310E+02  0.12603881671E+03  0.00000000000E+00 0.  1.
         13    1    3    3    0    0 -0.76754954158E+01  0.66837421920E+02 -0.46075277039E+02  0.81541923898E+02  0.00000000000E+00 0. -1.
        -13    1    4    4    0    0 -0.24685457857E+02  0.95030628056E+01 -0.34517411100E+02  0.43487144093E+02  0.00000000000E+00 0.  1.
         13    1    4    4    0    0 -0.70276743233E+02 -0.98345918775E+02 -0.92219913656E+01  0.12122617500E+03  0.00000000000E+00 0. -1.
         -1    1    1    2    0  502  0.18727518820E+02 -0.19504477268E+02 -0.12155591380E+02  0.29646298191E+02  0.00000000000E+00 0.  1.
<scales pt_clust_5="13000.00000" pt_clust_6="13000.00000" pt_clust_7="13000.00000" pt_clust_8="13000.00000" pt_clust_9="27.03969"></scales>
<clustering>
<clus scale="   27.040">  1  9  2 -1</clus>
<clus scale="   91.140">  7  8 -1 -1</clus>
<clus scale="   92.290">  5  6 -1 -1</clus>
<clus scale="  159.482">  1  7  2 -1</clus>
<clus scale="   27.040">  1  5  2 -1</clus>
</clustering>
</event>
<event>
 9    1  0.1464797E-005  0.1360086E+03  0.7546771E-02  0.1220712E+00
         21   -1    0    0  501  502  0.00000000000E+00  0.00000000000E+00  0.42865744385E+03  0.42865744385E+03  0.00000000000E+00 0.  1.
          1   -1    0    0  502    0 -0.00000000000E+00 -0.00000000000E+00 -0.11329495432E+03  0.11329495432E+03  0.00000000000E+00 0. -1.
         23    2    1    2    0    0  0.59213141092E+02 -0.50235510572E+02  0.11946682038E+03  0.16919600026E+03  0.91242329712E+02 0.  0.
         23    2    1    2    0    0 -0.14144435313E+03 -0.23960016203E+02  0.19573674774E+03  0.26200002706E+03  0.98744885216E+02 0.  0.
        -11    1    3    3    0    0  0.16176595478E+02 -0.27641266251E+02 -0.77997882090E+01  0.32962987384E+02  0.00000000000E+00 0.  1.
         11    1    3    3    0    0  0.43036545615E+02 -0.22594244321E+02  0.12726660859E+03  0.13623301287E+03  0.00000000000E+00 0. -1.
        -13    1    4    4    0    0 -0.13905395280E+03 -0.49595071927E+02  0.17489438578E+03  0.22887489841E+03  0.00000000000E+00 0.  1.
         13    1    4    4    0    0 -0.23904003319E+01  0.25635055725E+02  0.20842361965E+02  0.33125128649E+02  0.00000000000E+00 0. -1.
          1    1    1    2  501    0  0.82231212035E+02  0.74195526774E+02  0.15892140778E+00  0.11075637084E+03  0.00000000000E+00 0. -1.
<scales pt_clust_5="13000.00000" pt_clust_6="13000.00000" pt_clust_7="13000.00000" pt_clust_8="13000.00000" pt_clust_9="110.75631"></scales>
<clustering>
<clus scale="   91.242">  5  6 -1 -1</clus>
<clus scale="   98.745">  7  8 -1 -1</clus>
<clus scale="  110.756">  1  9  2 -1</clus>
<clus scale="  130.664">  2  5  1 -1</clus>
<clus scale="  110.756">  1  5  2 -1</clus>
</clustering>
</event>
<event>
 9    1  0.1464797E-005  0.1254308E+03  0.7546771E-02  0.1235125E+00
         21   -1    0    0  501  502  0.00000000000E+00  0.00000000000E+00  0.71386103398E+02  0.71386103398E+02  0.00000000000E+00 0.  1.
         -4   -1    0    0    0  501 -0.00000000000E+00 -0.00000000000E+00 -0.41962941763E+03  0.41962941763E+03  0.00000000000E+00 0.  1.
         23    2    1    2    0    0  0.43149683297E+02 -0.60007324322E+02 -0.20029581885E+03  0.23217567557E+03  0.91237904047E+02 0.  0.
         23    2    1    2    0    0 -0.48577990919E+02  0.84157570040E+02 -0.17574441094E+03  0.22161929458E+03  0.93737377596E+02 0.  0.
        -11    1    3    3    0    0  0.41576364871E+02 -0.81129465834E+02 -0.13014577832E+03  0.15889779091E+03  0.00000000000E+00 0. -1.
         11    1    3    3    0    0  0.15733184261E+01  0.21122141511E+02 -0.70150040535E+02  0.73277884658E+02  0.00000000000E+00 0.  1.
        -13    1    4    4    0    0  0.68350407886E+01  0.63240825829E+02 -0.13642916906E+03  0.15052919319E+03  0.00000000000E+00 0.  1.
         13    1    4    4    0    0 -0.55413031708E+02  0.20916744211E+02 -0.39315241885E+02  0.71090101392E+02  0.00000000000E+00 0. -1.
         -4    1    1    2    0  502  0.54283076219E+01 -0.24150245718E+02  0.27796915568E+02  0.37220550868E+02  0.00000000000E+00 0.  1.
<scales pt_clust_5="13000.00000" pt_clust_6="13000.00000" pt_clust_7="13000.00000" pt_clust_8="13000.00000" pt_clust_9="24.75280"></scales>
<clustering>
<clus scale="   24.753">  1  9  2 -1</clus>
<clus scale="   91.238">  5  6 -1 -1</clus>
<clus scale="   93.737">  7  8 -1 -1</clus>
<clus scale="  123.574">  2  5  1 -1</clus>
<clus scale="   24.753">  1  5  2 -1</clus>
</clustering>
</event>
<event>
 9    1  0.1464797E-005  0.1212735E+03  0.7546771E-02  0.1241112E+00
         21   -1    0    0  501  502  0.00000000000E+00  0.00000000000E+00  0.28575831103E+02  0.28575831103E+02  0.00000000000E+00 0.  1.
          2   -1    0    0  502    0 -0.00000000000E+00 -0.00000000000E+00 -0.70621148049E+03  0.70621148049E+03  0.00000000000E+00 0. -1.
         23    2    1    2    0    0  0.77598743583E+02 -0.32367622925E+02 -0.35257554616E+03  0.37388654888E+03  0.91719178307E+02 0.  0.
         23    2    1    2    0    0 -0.74690688592E+02  0.12129141382E+02 -0.31776181534E+03  0.33919090493E+03  0.91389735000E+02 0.  0.
        -11    1    4    4    0    0 -0.42954188432E+02  0.48792796373E+02 -0.22898945643E+03  0.23803775002E+03  0.00000000000E+00 0.  1.
         11    1    4    4    0    0 -0.31736500161E+02 -0.36663654991E+02 -0.88772358914E+02  0.10115315490E+03  0.00000000000E+00 0. -1.
        -13    1    3    3    0    0  0.55210471479E+02  0.14234882747E+02 -0.92027757147E+02  0.10825865385E+03  0.00000000000E+00 0.  1.
         13    1    3    3    0    0  0.22388272104E+02 -0.46602505672E+02 -0.26054778901E+03  0.26562789503E+03  0.00000000000E+00 0. -1.
          2    1    1    2  501    0 -0.29080549904E+01  0.20238481543E+02 -0.72982878955E+01  0.21709857788E+02  0.00000000000E+00 0. -1.
<scales pt_clust_5="13000.00000" pt_clust_6="13000.00000" pt_clust_7="13000.00000" pt_clust_8="13000.00000" pt_clust_9="20.44634"></scales>
<clustering>
<clus scale="   20.446">  1  9  2 -1</clus>
<clus scale="   91.390">  5  6 -1 -1</clus>
<clus scale="   91.719">  7  8 -1 -1</clus>
<clus scale="  121.025">  1  5  2 -1</clus>
<clus scale="   20.446">  1  5  2 -1</clus>
</clustering>
</event>
<event>
 9    1  0.1464797E-005  0.9509833E+02  0.7546771E-02  0.1292307E+00
         21   -1    0    0  501  502  0.00000000000E+00  0.00000000000E+00  0.30136294468E+03  0.30136294468E+03  0.00000000000E+00 0. -1.
          2   -1    0    0  502    0 -0.00000000000E+00 -0.00000000000E+00 -0.11916182266E+03  0.11916182266E+03  0.00000000000E+00 0. -1.
         23    2    1    2    0    0  0.13322606839E+02 -0.12801568530E+02 -0.63300345953E+02  0.11209652736E+03  0.90649465741E+02 0.  0.
         23    2    1    2    0    0  0.22839209642E+02  0.41148941483E+02  0.66662659744E+02  0.12378109037E+03  0.93075148391E+02 0.  0.
        -11    1    3    3    0    0  0.12969327587E+02 -0.50724574696E+02 -0.48556509493E+02  0.71406726226E+02  0.00000000000E+00 0. -1.
         11    1    3    3    0    0  0.35327925257E+00  0.37923006167E+02 -0.14743836460E+02  0.40689801136E+02  0.00000000000E+00 0.  1.
        -13    1    4    4    0    0 -0.63508492020E+01  0.23721967175E+02 -0.19368591075E+02  0.31276306248E+02  0.00000000000E+00 0. -1.
         13    1    4    4    0    0  0.29190058844E+02  0.17426974307E+02  0.86031250819E+02  0.92504784127E+02  0.00000000000E+00 0.  1.
          2    1    1    2  501    0 -0.36161816481E+02 -0.28347372953E+02  0.17883880823E+03  0.18464714960E+03  0.00000000000E+00 0. -1.
<scales pt_clust_5="13000.00000" pt_clust_6="13000.00000" pt_clust_7="13000.00000" pt_clust_8="13000.00000" pt_clust_9="45.94835"></scales>
<clustering>
<clus scale="   45.948">  1  9  2 -1</clus>
<clus scale="   90.649">  5  6 -1 -1</clus>
<clus scale="   92.726">  2  5  1 -1</clus>
<clus scale="   93.075">  7  8 -1 -1</clus>
<clus scale="   45.948">  1  5  2 -1</clus>
</clustering>
</event>
<event>
 9    1  0.1464797E-005  0.9142275E+02  0.7546771E-02  0.1305418E+00
          2   -1    0    0  502    0 -0.00000000000E+00  0.00000000000E+00  0.31547618141E+03  0.31547618141E+03  0.00000000000E+00 0. -1.
         21   -1    0    0  501  502  0.00000000000E+00 -0.00000000000E+00 -0.10070052623E+03  0.10070052623E+03  0.00000000000E+00 0. -1.
         23    2    1    2    0    0 -0.24267120073E+01 -0.68697722493E+01  0.26346623881E+03  0.27886837730E+03  0.91104501328E+02 0.  0.
         23    2    1    2    0    0  0.35380345467E+02 -0.12989062575E+02 -0.32185044732E+02  0.95442495908E+02  0.81565362310E+02 0.  0.
        -11    1    4    4    0    0  0.50135544583E+02 -0.35660148130E+02 -0.29585564458E+02  0.68268035124E+02  0.00000000000E+00 0. -1.
         11    1    4    4    0    0 -0.14755199116E+02  0.22671085555E+02 -0.25994802742E+01  0.27174460784E+02  0.00000000000E+00 0.  1.
        -11    1    3    3    0    0 -0.25527242437E+02  0.34724062545E+02  0.14276792549E+03  0.14913108722E+03  0.00000000000E+00 0.  1.
         11    1    3    3    0    0  0.23100530429E+02 -0.41593834794E+02  0.12069831332E+03  0.12973729008E+03  0.00000000000E+00 0. -1.
          2    1    1    2  501    0 -0.32953633459E+02  0.19858834824E+02 -0.16505538890E+02  0.41865834433E+02  0.00000000000E+00 0. -1.
<scales pt_clust_5="13000.00000" pt_clust_6="13000.00000" pt_clust_7="13000.00000" pt_clust_8="13000.00000" pt_clust_9="38.47487"></scales>
<clustering>
<clus scale="   38.475">  2  9  1 -1</clus>
<clus scale="   81.565">  5  6 -1 -1</clus>
<clus scale="   81.921">  2  5  1 -1</clus>
<clus scale="   91.105">  7  8 -1 -1</clus>
<clus scale="   38.475">  2  5  1 -1</clus>
</clustering>
</event>
<event>
 9    1  0.1464797E-005  0.1532838E+03  0.7546771E-02  0.1196856E+00
         -1   -1    0    0    0  501 -0.00000000000E+00  0.00000000000E+00  0.28162700216E+03  0.28162700216E+03  0.00000000000E+00 0.  1.
         21   -1    0    0  501  502  0.00000000000E+00 -0.00000000000E+00 -0.10594083620E+03  0.10594083620E+03  0.00000000000E+00 0. -1.
         23    2    1    2    0    0 -0.45241559212E+02  0.11912782783E+03  0.13112218486E+03  0.20373566407E+03  0.89871883302E+02 0.  0.
         23    2    1    2    0    0  0.25795884465E+02 -0.11386734017E+03  0.58131022166E+02  0.15954490189E+03  0.91892117012E+02 0.  0.
        -13    1    3    3    0    0 -0.13032470255E+02  0.83761124059E+02  0.13083901527E+03  0.15589938775E+03  0.00000000000E+00 0.  1.
         13    1    3    3    0    0 -0.32209088957E+02  0.35366703774E+02  0.28316959143E+00  0.47836276321E+02  0.00000000000E+00 0. -1.
        -13    1    4    4    0    0 -0.21969802448E+02 -0.17267756393E+01  0.24807329690E+02  0.33182187693E+02  0.00000000000E+00 0.  1.
         13    1    4    4    0    0  0.47765686913E+02 -0.11214056453E+03  0.33323692476E+02  0.12636271420E+03  0.00000000000E+00 0. -1.
         -1    1    1    2    0  502  0.19445674747E+02 -0.52604876626E+01 -0.13567041070E+02  0.24287272391E+02  0.00000000000E+00 0.  1.
<scales pt_clust_5="13000.00000" pt_clust_6="13000.00000" pt_clust_7="13000.00000" pt_clust_8="13000.00000" pt_clust_9="20.14465"></scales>
<clustering>
<clus scale="   20.145">  2  9  1 -1</clus>
<clus scale="   89.872">  5  6 -1 -1</clus>
<clus scale="   91.892">  7  8 -1 -1</clus>
<clus scale="  152.081">  1  5  2 -1</clus>
<clus scale="   20.145">  2  5  1 -1</clus>
</clustering>
</event>
<event>
 9    1  0.1464797E-005  0.1018135E+03  0.7546771E-02  0.1276888E+00
          1   -1    0    0  502    0 -0.00000000000E+00  0.00000000000E+00  0.29104985728E+03  0.29104985728E+03  0.00000000000E+00 0. -1.
         21   -1    0    0  501  502  0.00000000000E+00 -0.00000000000E+00 -0.53489105558E+02  0.53489105558E+02  0.00000000000E+00 0.  1.
         23    2    1    2    0    0  0.37003189296E+02  0.14300306632E+02  0.16269689320E+03  0.19061541030E+03  0.91050649629E+02 0.  0.
         23    2    1    2    0    0 -0.57741642672E+02 -0.19051718416E+02  0.46225620980E+02  0.11824711758E+03  0.90269083893E+02 0.  0.
        -13    1    4    4    0    0 -0.78093186438E+02 -0.28809069063E+02  0.47139396376E+02  0.95658930158E+02  0.00000000000E+00 0.  1.
         13    1    4    4    0    0  0.20351543766E+02  0.97573506471E+01 -0.91377539654E+00  0.22588187417E+02  0.00000000000E+00 0. -1.
        -13    1    3    3    0    0  0.45329407000E+02  0.45343647105E+02  0.12896182382E+03  0.14402067030E+03  0.00000000000E+00 0. -1.
         13    1    3    3    0    0 -0.83262177041E+01 -0.31043340473E+02  0.33735069385E+02  0.46594739997E+02  0.00000000000E+00 0.  1.
          1    1    1    2  501    0  0.20738453376E+02  0.47514117839E+01  0.28638237542E+02  0.35676434966E+02  0.00000000000E+00 0. -1.
<scales pt_clust_5="13000.00000" pt_clust_6="13000.00000" pt_clust_7="13000.00000" pt_clust_8="13000.00000" pt_clust_9="21.27580"></scales>
<clustering>
<clus scale="   21.276">  2  9  1 -1</clus>
<clus scale="   90.269">  5  6 -1 -1</clus>
<clus scale="   91.051">  7  8 -1 -1</clus>
<clus scale="  101.115">  2  5  1 -1</clus>
<clus scale="   21.276">  2  5  1 -1</clus>
</clustering>
</event>
<event>
 9    1  0.1464797E-005  0.1204340E+03  0.7546771E-02  0.1242481E+00
         -1   -1    0    0    0  501 -0.00000000000E+00  0.00000000000E+00  0.33189759944E+03  0.33189759944E+03  0.00000000000E+00 0.  1.
         21   -1    0    0  501  502  0.00000000000E+00 -0.00000000000E+00 -0.10001040391E+03  0.10001040391E+03  0.00000000000E+00 0.  1.
         23    2    1    2    0    0 -0.13992392497E+02 -0.77367704874E+02  0.25402992275E+03  0.28139644644E+03  0.92039174349E+02 0.  0.
         23    2    1    2    0    0  0.40055693936E+02  0.63870686463E+02 -0.13890814937E+02  0.12002288287E+03  0.92350497927E+02 0.  0.
        -13    1    4    4    0    0  0.69358156373E+02  0.52018876591E+02 -0.16693347171E+02  0.88290346115E+02  0.00000000000E+00 0.  1.
         13    1    4    4    0    0 -0.29302462437E+02  0.11851809872E+02  0.28025322333E+01  0.31732536757E+02  0.00000000000E+00 0. -1.
        -13    1    3    3    0    0  0.22862522253E+02  0.83343380563E+01  0.29398185902E+02  0.38162932919E+02  0.00000000000E+00 0. -1.
         13    1    3    3    0    0 -0.36854914751E+02 -0.85702042930E+02  0.22463173685E+03  0.24323351353E+03  0.00000000000E+00 0.  1.
         -1    1    1    2    0  502 -0.26063301438E+02  0.13497018411E+02 -0.82519122789E+01  0.30488674030E+02  0.00000000000E+00 0.  1.
<scales pt_clust_5="13000.00000" pt_clust_6="13000.00000" pt_clust_7="13000.00000" pt_clust_8="13000.00000" pt_clust_9="29.35073"></scales>
<clustering>
<clus scale="   29.351">  2  9  1 -1</clus>
<clus scale="   92.039">  7  8 -1 -1</clus>
<clus scale="   92.350">  5  6 -1 -1</clus>
<clus scale="  120.195">  1  7  2 -1</clus>
<clus scale="   29.351">  2  5  1 -1</clus>
</clustering>
</event>
<event>
 9    1  0.1464797E-005  0.9297865E+02  0.7546771E-02  0.1296491E+00
         -1   -1    0    0    0  501 -0.00000000000E+00  0.00000000000E+00  0.20508309961E+03  0.20508309961E+03  0.00000000000E+00 0.  1.
         21   -1    0    0  501  502  0.00000000000E+00 -0.00000000000E+00 -0.11829255725E+03  0.11829255725E+03  0.00000000000E+00 0.  1.
         23    2    1    2    0    0 -0.57322426737E+01 -0.23509501500E+02  0.16094603193E+03  0.18617617192E+03  0.90401252920E+02 0.  0.
         23    2    1    2    0    0 -0.10235344621E+02  0.98571409981E+01 -0.43999995877E+02  0.10044755179E+03  0.89172784605E+02 0.  0.
        -11    1    3    3    0    0  0.13158304791E+02 -0.54883827674E+02  0.87819638266E+02  0.10439187895E+03  0.00000000000E+00 0.  1.
         11    1    3    3    0    0 -0.18890547465E+02  0.31374326175E+02  0.73126393666E+02  0.81784292973E+02  0.00000000000E+00 0. -1.
        -13    1    4    4    0    0  0.31685207718E+02 -0.11384044213E-01  0.82450064764E+01  0.32740382550E+02  0.00000000000E+00 0. -1.
         13    1    4    4    0    0 -0.41920552339E+02  0.98685250424E+01 -0.52245002354E+02  0.67707169235E+02  0.00000000000E+00 0.  1.
         -1    1    1    2    0  502  0.15967587294E+02  0.13652360502E+02 -0.30155493694E+02  0.36751933163E+02  0.00000000000E+00 0.  1.
<scales pt_clust_5="13000.00000" pt_clust_6="13000.00000" pt_clust_7="13000.00000" pt_clust_8="13000.00000" pt_clust_9="21.00835"></scales>
<clustering>
<clus scale="   21.008">  2  9  1 -1</clus>
<clus scale="   89.173">  7  8 -1 -1</clus>
<clus scale="   90.401">  5  6 -1 -1</clus>
<clus scale="   91.785">  2  7  1 -1</clus>
<clus scale="   21.008">  2  5  1 -1</clus>
</clustering>
</event>
<event>
 9    1  0.1464797E-005  0.1081227E+03  0.7546771E-02  0.1266619E+00
         21   -1    0    0  501  502  0.00000000000E+00  0.00000000000E+00  0.12158550922E+03  0.12158550922E+03  0.00000000000E+00 0.  1.
          1   -1    0    0  502    0 -0.00000000000E+00 -0.00000000000E+00 -0.12696090182E+03  0.12696090182E+03  0.00000000000E+00 0. -1.
         23    2    1    2    0    0 -0.36592043136E+01  0.51993911900E+02 -0.40307549218E+02  0.11572786737E+03  0.95139287953E+02 0.  0.
         23    2    1    2    0    0  0.26323461707E+02 -0.46441492877E+02  0.22362262753E+02  0.10631382423E+03  0.89178593456E+02 0.  0.
        -11    1    3    3    0    0 -0.18520392807E+02  0.76288150906E+02 -0.37822988813E+02  0.87140492317E+02  0.00000000000E+00 0. -1.
         11    1    3    3    0    0  0.14861188493E+02 -0.24294239006E+02 -0.24845604045E+01  0.28587375058E+02  0.00000000000E+00 0.  1.
        -11    1    4    4    0    0  0.56415393173E+02 -0.47539708412E+02  0.17351052216E+02  0.75787726419E+02  0.00000000000E+00 0.  1.
         11    1    4    4    0    0 -0.30091931466E+02  0.10982155351E+01  0.50112105369E+01  0.30526097814E+02  0.00000000000E+00 0. -1.
          1    1    1    2  501    0 -0.22664257394E+02 -0.55524190233E+01  0.12569893861E+02  0.26504719427E+02  0.00000000000E+00 0. -1.
<scales pt_clust_5="13000.00000" pt_clust_6="13000.00000" pt_clust_7="13000.00000" pt_clust_8="13000.00000" pt_clust_9="23.33448"></scales>
<clustering>
<clus scale="   23.334">  1  9  2 -1</clus>
<clus scale="   89.179">  7  8 -1 -1</clus>
<clus scale="   95.139">  5  6 -1 -1</clus>
<clus scale="  102.917">  1  7  2 -1</clus>
<clus scale="   23.334">  1  5  2 -1</clus>
</clustering>
</event>
<event>
 9    1  0.1464797E-005  0.1029953E+03  0.7546771E-02  0.1274573E+00
          3   -1    0    0  502    0 -0.00000000000E+00  0.00000000000E+00  0.16609597176E+03  0.16609597176E+03  0.00000000000E+00 0. -1.
         21   -1    0    0  501  502  0.00000000000E+00 -0.00000000000E+00 -0.21149122297E+03  0.21149122297E+03  0.00000000000E+00 0. -1.
         23    2    1    2    0    0  0.41546534595E+02 -0.38836086827E+02  0.49285150000E+02  0.11871094630E+03  0.91809076800E+02 0.  0.
         23    2    1    2    0    0  0.38782316907E+02  0.55880740109E+02  0.22617942596E+02  0.11569054367E+03  0.90807518128E+02 0.  0.
        -11    1    4    4    0    0  0.12709381856E+02  0.47483608041E+02 -0.29131305688E+02  0.57138904354E+02  0.00000000000E+00 0.  1.
         11    1    4    4    0    0  0.26072935051E+02  0.83971320684E+01  0.51749248284E+02  0.58551639320E+02  0.00000000000E+00 0. -1.
        -13    1    3    3    0    0 -0.10390937126E+02  0.22652446140E+02  0.23339351338E+02  0.34144255906E+02  0.00000000000E+00 0.  1.
         13    1    3    3    0    0  0.51937471722E+02 -0.61488532967E+02  0.25945798662E+02  0.84566690390E+02  0.00000000000E+00 0. -1.
          3    1    1    2  501    0 -0.80328851502E+02 -0.17044653282E+02 -0.11729834380E+03  0.14318570476E+03  0.00000000000E+00 0. -1.
<scales pt_clust_5="13000.00000" pt_clust_6="13000.00000" pt_clust_7="13000.00000" pt_clust_8="13000.00000" pt_clust_9="82.11726"></scales>
<clustering>
<clus scale="   82.117">  2  9  1 -1</clus>
<clus scale="   90.808">  5  6 -1 -1</clus>
<clus scale="   91.809">  7  8 -1 -1</clus>
<clus scale="  102.104">  2  5  1 -1</clus>
<clus scale="   82.117">  2  5  1 -1</clus>
</clustering>
</event>
<event>
 9    1  0.1464797E-005  0.1487596E+03  0.7546771E-02  0.1209235E+00
         -1   -1    0    0    0  501 -0.00000000000E+00  0.00000000000E+00  0.58521239101E+03  0.58521239101E+03  0.00000000000E+00 0.  1.
         21   -1    0    0  501  502  0.00000000000E+00 -0.00000000000E+00 -0.45931235470E+02  0.45931235470E+02  0.00000000000E+00 0. -1.
         23    2    1    2    0    0 -0.30252720363E+02 -0.90523889348E+02  0.31779576722E+03  0.35321309964E+03  0.12106007790E+03 0.  0.
         23    2    1    2    0    0 -0.57210158755E+01  0.77610800075E+02  0.12626707877E+03  0.17532748573E+03  0.93488960618E+02 0.  0.
        -11    1    3    3    0    0  0.38403723859E+02 -0.52991780642E+02  0.21035346446E+03  0.22029878536E+03  0.00000000000E+00 0.  1.
         11    1    3    3    0    0 -0.68656444223E+02 -0.37532108706E+02  0.10744230276E+03  0.13291431428E+03  0.00000000000E+00 0. -1.
        -11    1    4    4    0    0  0.39434505381E+02  0.35539077183E+02  0.30002527644E+02  0.60977519519E+02  0.00000000000E+00 0.  1.
         11    1    4    4    0    0 -0.45155521256E+02  0.42071722893E+02  0.96264551130E+02  0.11434996621E+03  0.00000000000E+00 0. -1.
         -1    1    1    2    0  502  0.35973736239E+02  0.12913089273E+02  0.95218309545E+02  0.10260304112E+03  0.00000000000E+00 0.  1.
<scales pt_clust_5="13000.00000" pt_clust_6="13000.00000" pt_clust_7="13000.00000" pt_clust_8="13000.00000" pt_clust_9="38.22119"></scales>
<clustering>
<clus scale="   38.221">  2  9  1 -1</clus>
<clus scale="   93.489">  7  8 -1 -1</clus>
<clus scale="  121.060">  5  6 -1 -1</clus>
<clus scale="  127.334">  2  7  1 -1</clus>
<clus scale="   38.221">  2  5  1 -1</clus>
</clustering>
</event>
<event>
 9    1  0.1464797E-005  0.9391155E+02  0.7546771E-02  0.1294400E+00
          1   -1    0    0  502    0 -0.00000000000E+00  0.00000000000E+00  0.62879962408E+03  0.62879962408E+03  0.00000000000E+00 0. -1.
         21   -1    0    0  501  502  0.00000000000E+00 -0.00000000000E+00 -0.20119370233E+02  0.20119370233E+02  0.00000000000E+00 0.  1.
         23    2    1    2    0    0  0.12861253283E+02  0.10235150656E+02  0.38489858095E+03  0.39641890583E+03  0.93439077125E+02 0.  0.
         23    2    1    2    0    0  0.10021093503E+02 -0.37732937580E+01  0.18637951210E+03  0.20817990098E+03  0.92124310460E+02 0.  0.
        -11    1    4    4    0    0 -0.39782056084E+02  0.79464491932E+01  0.97902127646E+02  0.10597445276E+03  0.00000000000E+00 0.  1.
         11    1    4    4    0    0  0.49803149588E+02 -0.11719742951E+02  0.88477384458E+02  0.10220544821E+03  0.00000000000E+00 0. -1.
        -13    1    3    3    0    0 -0.12760474309E+02  0.45613475389E+02  0.25530605449E+03  0.25966247380E+03  0.00000000000E+00 0.  1.
         13    1    3    3    0    0  0.25621727592E+02 -0.35378324733E+02  0.12959252646E+03  0.13675643203E+03  0.00000000000E+00 0. -1.
          1    1    1    2  501    0 -0.22882346787E+02 -0.64618568984E+01  0.37402160797E+02  0.44320187514E+02  0.00000000000E+00 0. -1.
<scales pt_clust_5="13000.00000" pt_clust_6="13000.00000" pt_clust_7="13000.00000" pt_clust_8="13000.00000" pt_clust_9="23.77725"></scales>
<clustering>
<clus scale="   23.777">  2  9  1 -1</clus>
<clus scale="   92.124">  5  6 -1 -1</clus>
<clus scale="   92.603">  2  5  1 -1</clus>
<clus scale="   93.439">  7  8 -1 -1</clus>
<clus scale="   23.777">  2  5  1 -1</clus>
</clustering>
</event>
<event>
 9    1  0.1464797E-005  0.1052215E+03  0.7546771E-02  0.1270750E+00
         21   -1    0    0  501  502  0.00000000000E+00  0.00000000000E+00  0.25358723244E+03  0.25358723244E+03  0.00000000000E+00 0.  1.
          2   -1    0    0  502    0 -0.00000000000E+00 -0.00000000000E+00 -0.96732326116E+02  0.96732326116E+02  0.00000000000E+00 0. -1.
         23    2    1    2    0    0 -0.81134102546E+01 -0.49996496452E+02 -0.24091948103E+02  0.10748484630E+03  0.91690201974E+02 0.  0.
         23    2    1    2    0    0 -0.20783948759E+02  0.55452339981E+02  0.69706049198E+02  0.12777237987E+03  0.89218345795E+02 0.  0.
        -11    1    3    3    0    0 -0.33066838006E+02 -0.64527451114E+02 -0.46132329676E+01  0.72653214942E+02  0.00000000000E+00 0.  1.
         11    1    3    3    0    0  0.24953427752E+02  0.14530954662E+02 -0.19478715135E+02  0.34831631361E+02  0.00000000000E+00 0. -1.
        -11    1    4    4    0    0 -0.44169564904E+02  0.60595455791E+02  0.71696122552E+02  0.10374533105E+03  0.00000000000E+00 0.  1.
         11    1    4    4    0    0  0.23385616144E+02 -0.51431158104E+01 -0.19900733536E+01  0.24027048813E+02  0.00000000000E+00 0. -1.
          2    1    1    2  501    0  0.28897359014E+02 -0.54558435288E+01  0.11124080523E+03  0.11506233239E+03  0.00000000000E+00 0. -1.
<scales pt_clust_5="13000.00000" pt_clust_6="13000.00000" pt_clust_7="13000.00000" pt_clust_8="13000.00000" pt_clust_9="29.40788"></scales>
<clustering>
<clus scale="   29.408">  1  9  2 -1</clus>
<clus scale="   89.218">  7  8 -1 -1</clus>
<clus scale="   91.690">  5  6 -1 -1</clus>
<clus scale="  103.075">  1  7  2 -1</clus>
<clus scale="   29.408">  1  5  2 -1</clus>
</clustering>
</event>
<event>
 9    1  0.1464797E-005  0.1136676E+03  0.7546771E-02  0.1254090E+00
          3   -1    0    0  502    0 -0.00000000000E+00  0.00000000000E+00  0.70395931482E+03  0.70395931482E+03  0.00000000000E+00 0. -1.
         21   -1    0    0  501  502  0.00000000000E+00 -0.00000000000E+00 -0.25818721800E+02  0.25818721800E+02  0.00000000000E+00 0.  1.
         23    2    1    2    0    0 -0.41477285222E+02  0.56895323970E+02  0.36897668317E+03  0.38626637757E+03  0.90002659055E+02 0.  0.
         23    2    1    2    0    0  0.19812885362E+02 -0.65444970570E+02  0.18354675921E+03  0.21575364086E+03  0.90468923547E+02 0.  0.
        -11    1    4    4    0    0  0.50054442095E+02 -0.24365191555E+02  0.13187925397E+03  0.14314764183E+03  0.00000000000E+00 0.  1.
         11    1    4    4    0    0 -0.30241556733E+02 -0.41079779014E+02  0.51667505240E+02  0.72605999031E+02  0.00000000000E+00 0. -1.
        -13    1    3    3    0    0 -0.55348375442E+02  0.20434475946E+02  0.30993762656E+03  0.31550331666E+03  0.00000000000E+00 0. -1.
         13    1    3    3    0    0  0.13871090220E+02  0.36460848024E+02  0.59039056615E+02  0.70763060904E+02  0.00000000000E+00 0.  1.
          3    1    1    2  501    0  0.21664399860E+02  0.85496465994E+01  0.12561715063E+03  0.12775801819E+03  0.00000000000E+00 0. -1.
<scales pt_clust_5="13000.00000" pt_clust_6="13000.00000" pt_clust_7="13000.00000" pt_clust_8="13000.00000" pt_clust_9="23.29041"></scales>
<clustering>
<clus scale="   23.290">  2  9  1 -1</clus>
<clus scale="   90.003">  7  8 -1 -1</clus>
<clus scale="   90.469">  5  6 -1 -1</clus>
<clus scale="  113.297">  1  7  2 -1</clus>
<clus scale="   23.290">  2  5  1 -1</clus>
</clustering>
</event>
<event>
 9    1  0.1464797E-005  0.1267658E+03  0.7546771E-02  0.1232856E+00
         21   -1    0    0  501  502  0.00000000000E+00  0.00000000000E+00  0.11908202439E+03  0.11908202439E+03  0.00000000000E+00 0.  1.
         -3   -1    0    0    0  501 -0.00000000000E+00 -0.00000000000E+00 -0.27919311113E+03  0.27919311113E+03  0.00000000000E+00 0.  1.
         23    2    1    2    0    0 -0.82892243393E+02 -0.12888248931E+02 -0.16433729244E+03  0.20634850610E+03  0.92389010751E+02 0.  0.
         23    2    1    2    0    0  0.87734153144E+02  0.37308098266E+02 -0.43181206237E+02  0.13838005308E+03  0.90527601829E+02 0.  0.
        -11    1    4    4    0    0 -0.62192237611E+01  0.23755571319E+02 -0.35471052535E+02  0.43141644392E+02  0.00000000000E+00 0.  1.
         11    1    4    4    0    0  0.93953376905E+02  0.13552526947E+02 -0.77101537018E+01  0.95238408683E+02  0.00000000000E+00 0. -1.
        -13    1    3    3    0    0 -0.94385638694E+02 -0.33971696767E+02 -0.12517320401E+03  0.16040902710E+03  0.00000000000E+00 0.  1.
         13    1    3    3    0    0  0.11493395301E+02  0.21083447836E+02 -0.39164088429E+02  0.45939478999E+02  0.00000000000E+00 0. -1.
         -3    1    1    2    0  502 -0.48419097507E+01 -0.24419849335E+02  0.47407411941E+02  0.53546576347E+02  0.00000000000E+00 0.  1.
<scales pt_clust_5="13000.00000" pt_clust_6="13000.00000" pt_clust_7="13000.00000" pt_clust_8="13000.00000" pt_clust_9="24.89524"></scales>
<clustering>
<clus scale="   24.895">  1  9  2 -1</clus>
<clus scale="   90.528">  5  6 -1 -1</clus>
<clus scale="   92.389">  7  8 -1 -1</clus>
<clus scale="  125.416">  1  5  2 -1</clus>
<clus scale="   24.895">  1  5  2 -1</clus>
</clustering>
</event>
<event>
 9    1  0.1464797E-005  0.9659214E+02  0.7546771E-02  0.1288065E+00
         21   -1    0    0  501  502  0.00000000000E+00  0.00000000000E+00  0.54605559112E+02  0.54605559112E+02  0.00000000000E+00 0. -1.
          2   -1    0    0  502    0 -0.00000000000E+00 -0.00000000000E+00 -0.58667378609E+03  0.58667378609E+03  0.00000000000E+00 0. -1.
         23    2    1    2    0    0 -0.49071363438E+02 -0.70930328877E+01 -0.37476890411E+03  0.38896118804E+03  0.91546515446E+02 0.  0.
         23    2    1    2    0    0 -0.68409711422E+01 -0.81617951650E+01 -0.16928166712E+03  0.19313644114E+03  0.92368762517E+02 0.  0.
        -13    1    3    3    0    0  0.12628813581E+02 -0.23016904984E+02 -0.37816606477E+02  0.46036513475E+02  0.00000000000E+00 0.  1.
         13    1    3    3    0    0 -0.61700177019E+02  0.15923872096E+02 -0.33695229763E+03  0.34292467457E+03  0.00000000000E+00 0. -1.
        -13    1    4    4    0    0  0.33479090564E+01  0.41394297569E+02 -0.89496787494E+02  0.98662917746E+02  0.00000000000E+00 0. -1.
         13    1    4    4    0    0 -0.10188880199E+02 -0.49556092734E+02 -0.79784879621E+02  0.94473523396E+02  0.00000000000E+00 0.  1.
          2    1    1    2  501    0  0.55912334580E+02  0.15254828053E+02  0.11982344249E+02  0.59181716018E+02  0.00000000000E+00 0. -1.
<scales pt_clust_5="13000.00000" pt_clust_6="13000.00000" pt_clust_7="13000.00000" pt_clust_8="13000.00000" pt_clust_9="57.95601"></scales>
<clustering>
<clus scale="   57.956">  1  9  2 -1</clus>
<clus scale="   91.547">  5  6 -1 -1</clus>
<clus scale="   92.369">  7  8 -1 -1</clus>
<clus scale="   95.806">  2  5  1 -1</clus>
<clus scale="   57.956">  1  5  2 -1</clus>
</clustering>
</event>
<event>
 9    1  0.1464797E-005  0.9445650E+02  0.7546771E-02  0.1293631E+00
         21   -1    0    0  501  502  0.00000000000E+00  0.00000000000E+00  0.85416472772E+02  0.85416472772E+02  0.00000000000E+00 0. -1.
          2   -1    0    0  502    0 -0.00000000000E+00 -0.00000000000E+00 -0.16929327918E+03  0.16929327918E+03  0.00000000000E+00 0. -1.
         23    2    1    2    0    0 -0.17292792775E+02 -0.10382564225E+02 -0.62197333657E+02  0.11200358298E+03  0.90936549112E+02 0.  0.
         23    2    1    2    0    0 -0.48686061834E+01  0.18835138319E+02 -0.48613945980E+02  0.10681690232E+03  0.93102465677E+02 0.  0.
        -11    1    4    4    0    0 -0.41355359584E+02  0.35962396962E+02 -0.27680111824E+02  0.61398276459E+02  0.00000000000E+00 0. -1.
         11    1    4    4    0    0  0.36486753400E+02 -0.17127258643E+02 -0.20933834157E+02  0.45418625858E+02  0.00000000000E+00 0.  1.
        -13    1    3    3    0    0  0.30915100855E+02  0.19378877026E+02 -0.24946260400E+02  0.44199550265E+02  0.00000000000E+00 0.  1.
         13    1    3    3    0    0 -0.48207893630E+02 -0.29761441251E+02 -0.37251073256E+02  0.67804032714E+02  0.00000000000E+00 0. -1.
          2    1    1    2  501    0  0.22161398959E+02 -0.84525740944E+01  0.26934473232E+02  0.35889266653E+02  0.00000000000E+00 0. -1.
<scales pt_clust_5="13000.00000" pt_clust_6="13000.00000" pt_clust_7="13000.00000" pt_clust_8="13000.00000" pt_clust_9="23.71863"></scales>
<clustering>
<clus scale="   23.719">  1  9  2 -1</clus>
<clus scale="   90.937">  7  8 -1 -1</clus>
<clus scale="   92.322">  2  7  1 -1</clus>
<clus scale="   93.102">  5  6 -1 -1</clus>
<clus scale="   23.719">  1  5  2 -1</clus>
</clustering>
</event>
<event>
 9    1  0.1464797E-005  0.1008010E+03  0.7546771E-02  0.1278766E+00
          1   -1    0    0  502    0 -0.00000000000E+00  0.00000000000E+00  0.29100922999E+03  0.29100922999E+03  0.00000000000E+00 0. -1.
         21   -1    0    0  501  502  0.00000000000E+00 -0.00000000000E+00 -0.84377654733E+02  0.84377654733E+02  0.00000000000E+00 0.  1.
         23    2    1    2    0    0  0.66213088049E+01 -0.44519866338E+02  0.22014107074E+03  0.24276056928E+03  0.91895281381E+02 0.  0.
         23    2    1    2    0    0  0.11469290116E+02  0.25840185639E+02  0.10784792007E+02  0.97039623482E+02  0.92201502033E+02 0.  0.
        -11    1    4    4    0    0  0.28601911581E+01 -0.34222371775E+02  0.11922894106E+02  0.36352535362E+02  0.00000000000E+00 0. -1.
         11    1    4    4    0    0  0.86090989577E+01  0.60062557415E+02 -0.11381020994E+01  0.60687088120E+02  0.00000000000E+00 0.  1.
        -13    1    3    3    0    0  0.25227648682E+02 -0.14901106870E+02  0.11935847844E+02  0.31637662804E+02  0.00000000000E+00 0.  1.
         13    1    3    3    0    0 -0.18606339877E+02 -0.29618759468E+02  0.20820522290E+03  0.21112290647E+03  0.00000000000E+00 0. -1.
          1    1    1    2  501    0 -0.18090598921E+02  0.18679680698E+02 -0.24294287490E+02  0.35586691964E+02  0.00000000000E+00 0. -1.
<scales pt_clust_5="13000.00000" pt_clust_6="13000.00000" pt_clust_7="13000.00000" pt_clust_8="13000.00000" pt_clust_9="26.00385"></scales>
<clustering>
<clus scale="   26.004">  2  9  1 -1</clus>
<clus scale="   91.895">  7  8 -1 -1</clus>
<clus scale="   92.202">  5  6 -1 -1</clus>
<clus scale="  100.521">  1  7  2 -1</clus>
<clus scale="   26.004">  2  5  1 -1</clus>
</clustering>
</event>
<event>
 9    1  0.1464797E-005  0.1184484E+03  0.7546771E-02  0.1246630E+00
         21   -1    0    0  501  502  0.00000000000E+00  0.00000000000E+00  0.68283429436E+02  0.68283429436E+02  0.00000000000E+00 0.  1.
          1   -1    0    0  502    0 -0.00000000000E+00 -0.00000000000E+00 -0.39700601692E+03  0.39700601692E+03  0.00000000000E+00 0. -1.
         23    2    1    2    0    0  0.77613099130E+02 -0.21626950268E+02 -0.28611071744E+03  0.31083193860E+03  0.90915528318E+02 0.  0.
         23    2    1    2    0    0 -0.49158407975E+02 -0.94792058867E+01 -0.29679958333E+02  0.11036105959E+03  0.93767047139E+02 0.  0.
        -11    1    3    3    0    0 -0.20801634407E+02 -0.44282524854E+01 -0.42292808324E+02  0.47339191480E+02  0.00000000000E+00 0.  1.
         11    1    3    3    0    0  0.98414733536E+02 -0.17198697783E+02 -0.24381790911E+03  0.26349274712E+03  0.00000000000E+00 0. -1.
        -11    1    4    4    0    0 -0.63771937147E+02 -0.28844615084E+02  0.25288338571E+01  0.70037609808E+02  0.00000000000E+00 0.  1.
         11    1    4    4    0    0  0.14613529173E+02  0.19365409198E+02 -0.32208792190E+02  0.40323449786E+02  0.00000000000E+00 0. -1.
          1    1    1    2  501    0 -0.28454691155E+02  0.31106156155E+02 -0.12931911711E+02  0.44096448156E+02  0.00000000000E+00 0. -1.
<scales pt_clust_5="13000.00000" pt_clust_6="13000.00000" pt_clust_7="13000.00000" pt_clust_8="13000.00000" pt_clust_9="42.15759"></scales>
<clustering>
<clus scale="   42.158">  1  9  2 -1</clus>
<clus scale="   90.916">  5  6 -1 -1</clus>
<clus scale="   93.767">  7  8 -1 -1</clus>
<clus scale="  116.204">  2  5  1 -1</clus>
<clus scale="   42.158">  1  5  2 -1</clus>
</clustering>
</event>
<event>
 9    1  0.1464797E-005  0.1020000E+03  0.7546771E-02  0.1276466E+00
          1   -1    0    0  502    0 -0.00000000000E+00  0.00000000000E+00  0.35464045742E+03  0.35464045742E+03  0.00000000000E+00 0. -1.
         21   -1    0    0  501  502  0.00000000000E+00 -0.00000000000E+00 -0.11395633126E+03  0.11395633126E+03  0.00000000000E+00 0. -1.
         23    2    1    2    0    0  0.26826576818E+02  0.49037875279E+01  0.19168277262E+03  0.21428275731E+03  0.91821034664E+02 0.  0.
         23    2    1    2    0    0 -0.77708235888E+02 -0.13232730537E+02  0.11718461599E+03  0.16883144951E+03  0.92510264484E+02 0.  0.
        -11    1    3    3    0    0  0.36567675829E+02  0.37378107788E+02  0.66535997164E+02  0.84624800006E+02  0.00000000000E+00 0.  1.
         11    1    3    3    0    0 -0.97410990110E+01 -0.32474320261E+02  0.12514677545E+03  0.12965795731E+03  0.00000000000E+00 0. -1.
        -13    1    4    4    0    0 -0.49602048863E+02  0.55240397749E+01  0.32753410606E+01  0.50016058681E+02  0.00000000000E+00 0.  1.
         13    1    4    4    0    0 -0.28106187025E+02 -0.18756770312E+02  0.11390927493E+03  0.11881539083E+03  0.00000000000E+00 0. -1.
          1    1    1    2  501    0  0.50881659070E+02  0.83289430093E+01 -0.68183262459E+02  0.85482581857E+02  0.00000000000E+00 0. -1.
<scales pt_clust_5="13000.00000" pt_clust_6="13000.00000" pt_clust_7="13000.00000" pt_clust_8="13000.00000" pt_clust_9="51.55885"></scales>
<clustering>
<clus scale="   51.559">  2  9  1 -1</clus>
<clus scale="   91.821">  5  6 -1 -1</clus>
<clus scale="   92.510">  7  8 -1 -1</clus>
<clus scale="  101.375">  1  5  2 -1</clus>
<clus scale="   51.559">  2  5  1 -1</clus>
</clustering>
</event>
<event>
 9    1  0.1464797E-005  0.1710104E+03  0.7546771E-02  0.1177777E+00
          2   -1    0    0  502    0 -0.00000000000E+00  0.00000000000E+00  0.93228018272E+03  0.93228018272E+03  0.00000000000E+00 0. -1.
         21   -1    0    0  501  502  0.00000000000E+00 -0.00000000000E+00 -0.47338131490E+02  0.47338131490E+02  0.00000000000E+00 0. -1.
         23    2    1    2    0    0 -0.41627755359E+02 -0.14212747991E+03  0.54379483746E+03  0.57197069096E+03  0.97491309911E+02 0.  0.
         23    2    1    2    0    0  0.47004545927E+02  0.12270789608E+03  0.35069619446E+03  0.38534934652E+03  0.90772479051E+02 0.  0.
        -13    1    3    3    0    0 -0.18188479317E+02  0.89511841598E+01  0.11411766342E+03  0.11590420865E+03  0.00000000000E+00 0.  1.
         13    1    3    3    0    0 -0.23439276042E+02 -0.15107866407E+03  0.42967717404E+03  0.45606648231E+03  0.00000000000E+00 0. -1.
        -13    1    4    4    0    0  0.70996282207E+02  0.10356208682E+03  0.30930300360E+03  0.33381720440E+03  0.00000000000E+00 0.  1.
         13    1    4    4    0    0 -0.23991736280E+02  0.19145809261E+02  0.41393190856E+02  0.51532142118E+02  0.00000000000E+00 0. -1.
          2    1    1    2  501    0 -0.53767905675E+01  0.19419583833E+02 -0.95489806882E+01  0.22298276733E+02  0.00000000000E+00 0. -1.
<scales pt_clust_5="13000.00000" pt_clust_6="13000.00000" pt_clust_7="13000.00000" pt_clust_8="13000.00000" pt_clust_9="20.15019"></scales>
<clustering>
<clus scale="   20.150">  2  9  1 -1</clus>
<clus scale="   90.772">  7  8 -1 -1</clus>
<clus scale="   97.491">  5  6 -1 -1</clus>
<clus scale="  167.271">  2  7  1 -1</clus>
<clus scale="   20.150">  2  5  1 -1</clus>
</clustering>
</event>
<event>
 9    1  0.1464797E-005  0.1314929E+03  0.7546771E-02  0.1227628E+00
         21   -1    0    0  501  502  0.00000000000E+00  0.00000000000E+00  0.51597493485E+02  0.51597493485E+02  0.00000000000E+00 0.  1.
          1   -1    0    0  502    0 -0.00000000000E+00 -0.00000000000E+00 -0.50240884576E+03  0.50240884576E+03  0.00000000000E+00 0. -1.
         23    2    1    2    0    0  0.38037548163E+01  0.64543404215E+02 -0.25850270352E+03  0.28512677917E+03  0.10145596531E+03 0.  0.
         23    2    1    2    0    0 -0.84639616331E+01 -0.87287126446E+02 -0.20024555722E+03  0.24434409707E+03  0.10915618853E+03 0.  0.
        -13    1    4    4    0    0  0.26828411911E+02  0.11244542183E+02 -0.18072771646E+02  0.34246583619E+02  0.00000000000E+00 0. -1.
         13    1    4    4    0    0 -0.35292373544E+02 -0.98531668629E+02 -0.18217278558E+03  0.21009751345E+03  0.00000000000E+00 0.  1.
        -13    1    3    3    0    0 -0.29266779904E+02  0.56648757361E+02 -0.74730175054E+02  0.98235559652E+02  0.00000000000E+00 0.  1.
         13    1    3    3    0    0  0.33070534720E+02  0.78946468546E+01 -0.18377252847E+03  0.18689121952E+03  0.00000000000E+00 0. -1.
          1    1    1    2  501    0  0.46602068168E+01  0.22743722230E+02  0.79369084712E+01  0.24535462999E+02  0.00000000000E+00 0. -1.
<scales pt_clust_5="13000.00000" pt_clust_6="13000.00000" pt_clust_7="13000.00000" pt_clust_8="13000.00000" pt_clust_9="23.21625"></scales>
<clustering>
<clus scale="   23.216">  1  9  2 -1</clus>
<clus scale="  101.456">  7  8 -1 -1</clus>
<clus scale="  109.156">  5  6 -1 -1</clus>
<clus scale="  125.174">  2  7  1 -1</clus>
<clus scale="   23.216">  1  5  2 -1</clus>
</clustering>
</event>
<event>
 9    1  0.1464797E-005  0.2081689E+03  0.7546771E-02  0.1144507E+00
          2   -1    0    0  502    0 -0.00000000000E+00  0.00000000000E+00  0.34884423267E+03  0.34884423267E+03  0.00000000000E+00 0. -1.
         21   -1    0    0  501  502  0.00000000000E+00 -0.00000000000E+00 -0.19935590264E+03  0.19935590264E+03  0.00000000000E+00 0. -1.
         23    2    1    2    0    0  0.56229590546E+02 -0.18572262523E+03  0.21636486452E+03  0.30445531500E+03  0.90689711982E+02 0.  0.
         23    2    1    2    0    0 -0.57076345472E+02  0.12712327864E+03 -0.58801140419E+02  0.18458560798E+03  0.10581226477E+03 0.  0.
        -11    1    4    4    0    0  0.21441340551E+02  0.60721396014E+02 -0.49715579897E+02  0.81353905272E+02  0.00000000000E+00 0.  1.
         11    1    4    4    0    0 -0.78517686023E+02  0.66401882626E+02 -0.90855605217E+01  0.10323170271E+03  0.00000000000E+00 0. -1.
        -13    1    3    3    0    0  0.45476143826E+02 -0.12113472830E+03  0.77235336013E+02  0.15068841756E+03  0.00000000000E+00 0. -1.
         13    1    3    3    0    0  0.10753446720E+02 -0.64587896921E+02  0.13912952850E+03  0.15376689743E+03  0.00000000000E+00 0.  1.
          2    1    1    2  501    0  0.84675492613E+00  0.58599346586E+02 -0.80753940694E+01  0.59159212330E+02  0.00000000000E+00 0. -1.
<scales pt_clust_5="13000.00000" pt_clust_6="13000.00000" pt_clust_7="13000.00000" pt_clust_8="13000.00000" pt_clust_9="58.60546"></scales>
<clustering>
<clus scale="   58.605">  2  9  1 -1</clus>
<clus scale="   90.690">  7  8 -1 -1</clus>
<clus scale="  105.812">  5  6 -1 -1</clus>
<clus scale="  200.905">  1  7  2 -1</clus>
<clus scale="   58.605">  2  5  1 -1</clus>
</clustering>
</event>
<event>
 9    1  0.1464797E-005  0.9358598E+02  0.7546771E-02  0.1294989E+00
         21   -1    0    0  501  502  0.00000000000E+00  0.00000000000E+00  0.50543108734E+03  0.50543108734E+03  0.00000000000E+00 0.  1.
         -4   -1    0    0    0  501 -0.00000000000E+00 -0.00000000000E+00 -0.59393580969E+02  0.59393580969E+02  0.00000000000E+00 0.  1.
         23    2    1    2    0    0  0.34814449956E+02  0.76852709138E+01  0.28853417559E+02  0.10254738751E+03  0.91718796688E+02 0.  0.
         23    2    1    2    0    0  0.10379730368E+02  0.25321771600E+02  0.91044547588E+02  0.13137098116E+03  0.90665837697E+02 0.  0.
        -11    1    4    4    0    0  0.44843041758E+02 -0.86194472216E+01  0.36426281691E+02  0.58412903218E+02  0.00000000000E+00 0. -1.
         11    1    4    4    0    0 -0.34463311389E+02  0.33941218822E+02  0.54618265897E+02  0.72958077940E+02  0.00000000000E+00 0.  1.
        -13    1    3    3    0    0  0.11580545327E+02  0.18991222740E+02 -0.30537134846E+02  0.37779520588E+02  0.00000000000E+00 0.  1.
         13    1    3    3    0    0  0.23233904629E+02 -0.11305951826E+02  0.59390552405E+02  0.64767866925E+02  0.00000000000E+00 0. -1.
         -4    1    1    2    0  502 -0.45194180325E+02 -0.33007042514E+02  0.32613954123E+03  0.33090629964E+03  0.00000000000E+00 0.  1.
<scales pt_clust_5="13000.00000" pt_clust_6="13000.00000" pt_clust_7="13000.00000" pt_clust_8="13000.00000" pt_clust_9="55.96408"></scales>
<clustering>
<clus scale="   55.964">  1  9  2 -1</clus>
<clus scale="   90.666">  5  6 -1 -1</clus>
<clus scale="   91.719">  7  8 -1 -1</clus>
<clus scale="   92.554">  1  5  2 -1</clus>
<clus scale="   55.964">  1  5  2 -1</clus>
</clustering>
</event>
<event>
 9    1  0.1464797E-005  0.1304494E+03  0.7546771E-02  0.1230282E+00
          1   -1    0    0  502    0 -0.00000000000E+00  0.00000000000E+00  0.81521372988E+03  0.81521372988E+03  0.00000000000E+00 0. -1.
         21   -1    0    0  501  502  0.00000000000E+00 -0.00000000000E+00 -0.49091417031E+02  0.49091417031E+02  0.00000000000E+00 0. -1.
         23    2    1    2    0    0 -0.44943740532E+02  0.77572944956E+02  0.48591054700E+03  0.50250256767E+03  0.91445443956E+02 0.  0.
         23    2    1    2    0    0  0.62955746728E+01 -0.68830087072E+02  0.29454422332E+03  0.31966545042E+03  0.10321087904E+03 0.  0.
        -11    1    4    4    0    0  0.46526921084E+02 -0.22895683871E+02  0.70927326306E+02  0.87861552128E+02  0.00000000000E+00 0.  1.
         11    1    4    4    0    0 -0.40231346411E+02 -0.45934403201E+02  0.22361689702E+03  0.23180389829E+03  0.00000000000E+00 0. -1.
        -13    1    3    3    0    0  0.24571352039E+02  0.29731358267E+02  0.93921415696E+02  0.10153293718E+03  0.00000000000E+00 0.  1.
         13    1    3    3    0    0 -0.69515092571E+02  0.47841586689E+02  0.39198913131E+03  0.40096963049E+03  0.00000000000E+00 0. -1.
          1    1    1    2  501    0  0.38648165859E+02 -0.87428578843E+01 -0.14332457478E+02  0.42137128825E+02  0.00000000000E+00 0. -1.
<scales pt_clust_5="13000.00000" pt_clust_6="13000.00000" pt_clust_7="13000.00000" pt_clust_8="13000.00000" pt_clust_9="39.62472"></scales>
<clustering>
<clus scale="   39.625">  2  9  1 -1</clus>
<clus scale="   91.445">  7  8 -1 -1</clus>
<clus scale="  103.211">  5  6 -1 -1</clus>
<clus scale="  121.354">  1  7  2 -1</clus>
<clus scale="   39.625">  2  5  1 -1</clus>
</clustering>
</event>
<event>
 9    1  0.1464797E-005  0.1235797E+03  0.7546771E-02  0.1237920E+00
          2   -1    0    0  502    0 -0.00000000000E+00  0.00000000000E+00  0.27021133768E+03  0.27021133768E+03  0.00000000000E+00 0. -1.
         21   -1    0    0  501  502  0.00000000000E+00 -0.00000000000E+00 -0.91364621781E+02  0.91364621781E+02  0.00000000000E+00 0. -1.
         23    2    1    2    0    0  0.56070712062E+02 -0.46368969629E+02  0.12174931952E+03  0.16782415050E+03  0.89710883355E+02 0.  0.
         23    2    1    2    0    0 -0.84304796085E+02  0.53884852007E+02  0.79130856048E+02  0.15715774750E+03  0.91793187669E+02 0.  0.
        -11    1    3    3    0    0  0.68107522777E+02 -0.38018143221E+01  0.54414012746E+02  0.87258084062E+02  0.00000000000E+00 0.  1.
         11    1    3    3    0    0 -0.12036810715E+02 -0.42567155307E+02  0.67335306778E+02  0.80566066442E+02  0.00000000000E+00 0. -1.
        -13    1    4    4    0    0 -0.23032077117E+02  0.44299894172E+02 -0.76312636084E+01  0.50509339574E+02  0.00000000000E+00 0.  1.
         13    1    4    4    0    0 -0.61272718968E+02  0.95849578349E+01  0.86762119656E+02  0.10664840793E+03  0.00000000000E+00 0. -1.
          2    1    1    2  501    0  0.28234084023E+02 -0.75158823778E+01 -0.22033459673E+02  0.36594061454E+02  0.00000000000E+00 0. -1.
<scales pt_clust_5="13000.00000" pt_clust_6="13000.00000" pt_clust_7="13000.00000" pt_clust_8="13000.00000" pt_clust_9="29.21732"></scales>
<clustering>
<clus scale="   29.217">  2  9  1 -1</clus>
<clus scale="   89.711">  5  6 -1 -1</clus>
<clus scale="   91.793">  7  8 -1 -1</clus>
<clus scale="  122.041">  1  5  2 -1</clus>
<clus scale="   29.217">  2  5  1 -1</clus>
</clustering>
</event>
<event>
 9    1  0.1464797E-005  0.1083622E+03  0.7546771E-02  0.1267348E+00
          2   -1    0    0  502    0 -0.00000000000E+00  0.00000000000E+00  0.83103458851E+03  0.83103458851E+03  0.00000000000E+00 0. -1.
         21   -1    0    0  501  502  0.00000000000E+00 -0.00000000000E+00 -0.24485933833E+02  0.24485933833E+02  0.00000000000E+00 0. -1.
         23    2    1    2    0    0 -0.23006277600E+02  0.26071773295E+02  0.37933000138E+03  0.39183866877E+03  0.91854592830E+02 0.  0.
         23    2    1    2    0    0  0.62069455548E+02 -0.19192634078E+02  0.19896788307E+03  0.23201038676E+03  0.10009808467E+03 0.  0.
        -13    1    4    4    0    0 -0.24770915373E+02 -0.17229551911E+02  0.73069796118E+02  0.79054733016E+02  0.00000000000E+00 0.  1.
         13    1    4    4    0    0  0.86840370921E+02 -0.19630821670E+01  0.12589808695E+03  0.15295565374E+03  0.00000000000E+00 0. -1.
        -13    1    3    3    0    0  0.29080333396E+02 -0.10849818198E+02  0.80769258719E+02  0.86527784551E+02  0.00000000000E+00 0.  1.
         13    1    3    3    0    0 -0.52086610996E+02  0.36921591493E+02  0.29856074266E+03  0.30531088422E+03  0.00000000000E+00 0. -1.
          2    1    1    2  501    0 -0.39063177948E+02 -0.68791392167E+01  0.22825077023E+03  0.23167146682E+03  0.00000000000E+00 0. -1.
<scales pt_clust_5="13000.00000" pt_clust_6="13000.00000" pt_clust_7="13000.00000" pt_clust_8="13000.00000" pt_clust_9="39.66429"></scales>
<clustering>
<clus scale="   39.664">  2  9  1 -1</clus>
<clus scale="   91.855">  7  8 -1 -1</clus>
<clus scale="  100.098">  5  6 -1 -1</clus>
<clus scale="  100.797">  1  7  2 -1</clus>
<clus scale="   39.664">  2  5  1 -1</clus>
</clustering>
</event>
<event>
 9    1  0.1464797E-005  0.1390350E+03  0.7546771E-02  0.1217279E+00
         21   -1    0    0  501  502  0.00000000000E+00  0.00000000000E+00  0.43448817284E+03  0.43448817284E+03  0.00000000000E+00 0. -1.
         -4   -1    0    0    0  501 -0.00000000000E+00 -0.00000000000E+00 -0.11088210125E+03  0.11088210125E+03  0.00000000000E+00 0.  1.
         23    2    1    2    0    0  0.10745935779E+03 -0.21739171235E+02 -0.18141592835E+02  0.14328038892E+03  0.90443614015E+02 0.  0.
         23    2    1    2    0    0 -0.55177144103E+02  0.41316018542E+02  0.11281001335E+03  0.16644368661E+03  0.10112304920E+03 0.  0.
        -11    1    3    3    0    0  0.96592750094E+02 -0.44549527403E+02  0.83166589909E+01  0.10669576645E+03  0.00000000000E+00 0. -1.
         11    1    3    3    0    0  0.10866607695E+02  0.22810356168E+02 -0.26458251826E+02  0.36584622466E+02  0.00000000000E+00 0.  1.
        -11    1    4    4    0    0 -0.79833535744E+02  0.92545790416E+01  0.62015915045E+02  0.10151361673E+03  0.00000000000E+00 0.  1.
         11    1    4    4    0    0  0.24656391641E+02  0.32061439500E+02  0.50794098304E+02  0.64930069876E+02  0.00000000000E+00 0. -1.
         -4    1    1    2    0  502 -0.52282213686E+02 -0.19576847307E+02  0.22893765107E+03  0.23564619856E+03  0.00000000000E+00 0.  1.
<scales pt_clust_5="13000.00000" pt_clust_6="13000.00000" pt_clust_7="13000.00000" pt_clust_8="13000.00000" pt_clust_9="55.82726"></scales>
<clustering>
<clus scale="   55.827">  1  9  2 -1</clus>
<clus scale="   90.444">  5  6 -1 -1</clus>
<clus scale="  101.123">  7  8 -1 -1</clus>
<clus scale="  131.472">  2  5  1 -1</clus>
<clus scale="   55.827">  1  5  2 -1</clus>
</clustering>
</event>
<event>
 9    1  0.1464797E-005  0.9199833E+02  0.7546771E-02  0.1299666E+00
         21   -1    0    0  501  502  0.00000000000E+00  0.00000000000E+00  0.41453712091E+02  0.41453712091E+02  0.00000000000E+00 0.  1.
         -1   -1    0    0    0  501 -0.00000000000E+00 -0.00000000000E+00 -0.32669161805E+03  0.32669161805E+03  0.00000000000E+00 0.  1.
         23    2    1    2    0    0  0.60334952133E+01  0.11076364314E+02 -0.15848732922E+03  0.18234232092E+03  0.89282694649E+02 0.  0.
         23    2    1    2    0    0 -0.96134549186E-01  0.14770691068E+02 -0.12910341752E+03  0.15917861471E+03  0.91934522403E+02 0.  0.
        -13    1    4    4    0    0  0.19903863071E+02  0.48383149877E+02 -0.88455092050E+02  0.10276865411E+03  0.00000000000E+00 0.  1.
         13    1    4    4    0    0 -0.19999997620E+02 -0.33612458809E+02 -0.40648325475E+02  0.56409960609E+02  0.00000000000E+00 0. -1.
        -13    1    3    3    0    0  0.93110103965E+01 -0.35299553605E+02 -0.10657738924E+03  0.11265652798E+03  0.00000000000E+00 0. -1.
         13    1    3    3    0    0 -0.32775151833E+01  0.46375917919E+02 -0.51909939976E+02  0.69685792935E+02  0.00000000000E+00 0.  1.
         -1    1    1    2    0  502 -0.59373606641E+01 -0.25847055381E+02  0.23528407784E+01  0.26624394514E+02  0.00000000000E+00 0.  1.
<scales pt_clust_5="13000.00000" pt_clust_6="13000.00000" pt_clust_7="13000.00000" pt_clust_8="13000.00000" pt_clust_9="26.52023"></scales>
<clustering>
<clus scale="   26.520">  1  9  2 -1</clus>
<clus scale="   89.283">  7  8 -1 -1</clus>
<clus scale="   89.348">  2  7  1 -1</clus>
<clus scale="   91.935">  5  6 -1 -1</clus>
<clus scale="   26.520">  1  5  2 -1</clus>
</clustering>
</event>
<event>
 9    1  0.1464797E-005  0.2602961E+03  0.7546771E-02  0.1106968E+00
         21   -1    0    0  501  502  0.00000000000E+00  0.00000000000E+00  0.30015972340E+03  0.30015972340E+03  0.00000000000E+00 0. -1.
          3   -1    0    0  502    0 -0.00000000000E+00 -0.00000000000E+00 -0.49782855973E+03  0.49782855973E+03  0.00000000000E+00 0. -1.
         23    2    1    2    0    0  0.23122013429E+03  0.92799127148E+02 -0.38429239299E+03  0.46682227375E+03  0.90376786095E+02 0.  0.
         23    2    1    2    0    0 -0.20858356179E+03 -0.62925906851E+02  0.15650634079E+03  0.28308409596E+03  0.90419017227E+02 0.  0.
        -11    1    4    4    0    0 -0.11554551052E+03 -0.17703608105E+02  0.13287219788E+03  0.17697232470E+03  0.00000000000E+00 0. -1.
         11    1    4    4    0    0 -0.93038051277E+02 -0.45222298746E+02  0.23634142908E+02  0.10611177126E+03  0.00000000000E+00 0.  1.
        -13    1    3    3    0    0  0.21317026954E+02  0.44531919839E+02 -0.80287520674E+02  0.94252816927E+02  0.00000000000E+00 0.  1.
         13    1    3    3    0    0  0.20990310733E+03  0.48267207309E+02 -0.30400487231E+03  0.37256945683E+03  0.00000000000E+00 0. -1.
          3    1    1    2  501    0 -0.22636572494E+02 -0.29873220298E+02  0.30117215877E+02  0.48081913412E+02  0.00000000000E+00 0. -1.
<scales pt_clust_5="13000.00000" pt_clust_6="13000.00000" pt_clust_7="13000.00000" pt_clust_8="13000.00000" pt_clust_9="37.48098"></scales>
<clustering>
<clus scale="   37.481">  1  9  2 -1</clus>
<clus scale="   90.377">  7  8 -1 -1</clus>
<clus scale="   90.419">  5  6 -1 -1</clus>
<clus scale="  260.281">  2  7  1 -1</clus>
<clus scale="   37.481">  1  5  2 -1</clus>
</clustering>
</event>
<event>
 9    1  0.1464797E-005  0.3028817E+03  0.7546771E-02  0.1085390E+00
         21   -1    0    0  501  502  0.00000000000E+00  0.00000000000E+00  0.17799698304E+03  0.17799698304E+03  0.00000000000E+00 0.  1.
          2   -1    0    0  502    0 -0.00000000000E+00 -0.00000000000E+00 -0.87101999737E+03  0.87101999737E+03  0.00000000000E+00 0. -1.
         23    2    1    2    0    0 -0.10013578232E+03 -0.25415400328E+03 -0.43412641471E+03  0.52802517027E+03  0.12539299904E+03 0.  0.
         23    2    1    2    0    0  0.84032082591E+02  0.26610995723E+03 -0.33318047317E+03  0.44404788348E+03  0.91068078268E+02 0.  0.
        -13    1    4    4    0    0 -0.77201531326E+01  0.50030574908E+02 -0.10551653835E+03  0.11703161562E+03  0.00000000000E+00 0.  1.
         13    1    4    4    0    0  0.91752235724E+02  0.21607938233E+03 -0.22766393482E+03  0.32701626786E+03  0.00000000000E+00 0. -1.
        -13    1    3    3    0    0 -0.32970938369E+02 -0.39399384236E+02 -0.17063286406E+02  0.54134554567E+02  0.00000000000E+00 0.  1.
         13    1    3    3    0    0 -0.67164843951E+02 -0.21475461904E+03 -0.41706312830E+03  0.47389061571E+03  0.00000000000E+00 0. -1.
          2    1    1    2  501    0  0.16103699730E+02 -0.11955953955E+02  0.74283873551E+02  0.76943926659E+02  0.00000000000E+00 0. -1.
<scales pt_clust_5="13000.00000" pt_clust_6="13000.00000" pt_clust_7="13000.00000" pt_clust_8="13000.00000" pt_clust_9="20.05677"></scales>
<clustering>
<clus scale="   20.057">  1  9  2 -1</clus>
<clus scale="   91.068">  5  6 -1 -1</clus>
<clus scale="  125.393">  7  8 -1 -1</clus>
<clus scale="  290.357">  1  5  2 -1</clus>
<clus scale="   20.057">  1  5  2 -1</clus>
</clustering>
</event>
<event>
 9    1  0.1464797E-005  0.9724227E+02  0.7546771E-02  0.1286709E+00
         21   -1    0    0  501  502  0.00000000000E+00  0.00000000000E+00  0.25952544857E+03  0.25952544857E+03  0.00000000000E+00 0.  1.
         -1   -1    0    0    0  501 -0.00000000000E+00 -0.00000000000E+00 -0.13435713092E+03  0.13435713092E+03  0.00000000000E+00 0.  1.
         23    2    1    2    0    0 -0.26770862963E+02 -0.36619603508E+02 -0.76880235890E+02  0.12782112169E+03  0.91487671383E+02 0.  0.
         23    2    1    2    0    0 -0.13093977501E+02  0.41914282533E+01  0.47384465577E+02  0.10308363059E+03  0.90509264713E+02 0.  0.
        -11    1    4    4    0    0 -0.28102202218E+02 -0.37674089968E+02  0.22296831245E+02  0.52021337045E+02  0.00000000000E+00 0.  1.
         11    1    4    4    0    0  0.15008224717E+02  0.41865518222E+02  0.25087634332E+02  0.51062293540E+02  0.00000000000E+00 0. -1.
        -13    1    3    3    0    0 -0.56635640382E+02 -0.24039240723E+01 -0.41658208174E+02  0.70347572245E+02  0.00000000000E+00 0.  1.
         13    1    3    3    0    0  0.29864777419E+02 -0.34215679436E+02 -0.35222027716E+02  0.57473549447E+02  0.00000000000E+00 0. -1.
         -1    1    1    2    0  502  0.39864840464E+02  0.32428175255E+02  0.15466408797E+03  0.16297782721E+03  0.00000000000E+00 0.  1.
<scales pt_clust_5="13000.00000" pt_clust_6="13000.00000" pt_clust_7="13000.00000" pt_clust_8="13000.00000" pt_clust_9="51.38864"></scales>
<clustering>
<clus scale="   51.389">  1  9  2 -1</clus>
<clus scale="   90.509">  5  6 -1 -1</clus>
<clus scale="   91.488">  7  8 -1 -1</clus>
<clus scale="   96.322">  1  5  2 -1</clus>
<clus scale="   51.389">  1  5  2 -1</clus>
</clustering>
</event>
<event>
 9    1  0.1464797E-005  0.2090739E+03  0.7546771E-02  0.1143331E+00
         21   -1    0    0  501  502  0.00000000000E+00  0.00000000000E+00  0.13732549057E+03  0.13732549057E+03  0.00000000000E+00 0.  1.
          1   -1    0    0  502    0 -0.00000000000E+00 -0.00000000000E+00 -0.11463259069E+04  0.11463259069E+04  0.00000000000E+00 0. -1.
         23    2    1    2    0    0  0.49150629644E+02 -0.15889991887E+03 -0.67469307125E+03  0.70104840615E+03  0.92699292177E+02 0.  0.
         23    2    1    2    0    0 -0.15884764315E+03  0.23867209772E+03 -0.33330723617E+03  0.44696363303E+03  0.80534660888E+02 0.  0.
        -11    1    4    4    0    0 -0.99466397952E+02  0.84909585356E+02 -0.12088044368E+03  0.17808785380E+03  0.00000000000E+00 0.  1.
         11    1    4    4    0    0 -0.59381245202E+02  0.15376251236E+03 -0.21242679249E+03  0.26887577923E+03  0.00000000000E+00 0. -1.
        -11    1    3    3    0    0  0.47466814660E+02 -0.96350482442E+02 -0.56179105695E+03  0.57196652492E+03  0.00000000000E+00 0. -1.
         11    1    3    3    0    0  0.16838149836E+01 -0.62549436428E+02 -0.11290201430E+03  0.12908188124E+03  0.00000000000E+00 0.  1.
          1    1    1    2  501    0  0.10969701351E+03 -0.79772178845E+02 -0.10001088765E+01  0.13563935826E+03  0.00000000000E+00 0. -1.
<scales pt_clust_5="13000.00000" pt_clust_6="13000.00000" pt_clust_7="13000.00000" pt_clust_8="13000.00000" pt_clust_9="135.63567"></scales>
<clustering>
<clus scale="   80.535">  5  6 -1 -1</clus>
<clus scale="   92.699">  7  8 -1 -1</clus>
<clus scale="  135.636">  1  9  2 -1</clus>
<clus scale="  203.972">  1  5  2 -1</clus>
<clus scale="  135.636">  1  5  2 -1</clus>
</clustering>
</event>
<event>
 9    1  0.1464797E-005  0.1289132E+03  0.7546771E-02  0.1230711E+00
          4   -1    0    0  502    0 -0.00000000000E+00  0.00000000000E+00  0.49300213165E+03  0.49300213165E+03  0.00000000000E+00 0. -1.
         21   -1    0    0  501  502  0.00000000000E+00 -0.00000000000E+00 -0.77689312213E+02  0.77689312213E+02  0.00000000000E+00 0. -1.
         23    2    1    2    0    0 -0.32293337728E+02  0.87565330563E+02  0.35140908591E+03  0.37612294001E+03  0.96278624629E+02 0.  0.
         23    2    1    2    0    0 -0.20845858334E+01 -0.72368467756E+02  0.91741995783E+02  0.14779505933E+03  0.90472344660E+02 0.  0.
        -11    1    4    4    0    0  0.21123952349E+02 -0.85226668915E+02  0.59626818259E+02  0.10613747648E+03  0.00000000000E+00 0. -1.
         11    1    4    4    0    0 -0.23208538182E+02  0.12858201159E+02  0.32115177524E+02  0.41657582852E+02  0.00000000000E+00 0.  1.
        -11    1    3    3    0    0 -0.66416143772E+02  0.48671991801E+02  0.21373595952E+03  0.22904830786E+03  0.00000000000E+00 0. -1.
         11    1    3    3    0    0  0.34122806043E+02  0.38893338762E+02  0.13767312639E+03  0.14707463215E+03  0.00000000000E+00 0.  1.
          4    1    1    2  501    0  0.34377923562E+02 -0.15196862807E+02 -0.27838262256E+02  0.46773444528E+02  0.00000000000E+00 0. -1.
<scales pt_clust_5="13000.00000" pt_clust_6="13000.00000" pt_clust_7="13000.00000" pt_clust_8="13000.00000" pt_clust_9="37.58705"></scales>
<clustering>
<clus scale="   37.587">  2  9  1 -1</clus>
<clus scale="   90.472">  5  6 -1 -1</clus>
<clus scale="   96.279">  7  8 -1 -1</clus>
<clus scale="  124.637">  2  5  1 -1</clus>
<clus scale="   37.587">  2  5  1 -1</clus>
</clustering>
</event>
<event>
 9    1  0.1464797E-005  0.9739984E+02  0.7546771E-02  0.1287093E+00
         21   -1    0    0  501  502  0.00000000000E+00  0.00000000000E+00  0.25325952423E+03  0.25325952423E+03  0.00000000000E+00 0. -1.
          3   -1    0    0  502    0 -0.00000000000E+00 -0.00000000000E+00 -0.83689572818E+02  0.83689572818E+02  0.00000000000E+00 0. -1.
         23    2    1    2    0    0 -0.16182466834E+02 -0.64960140027E+01 -0.17290599249E+01  0.95241207400E+02  0.93615316631E+02 0.  0.
         23    2    1    2    0    0  0.45727885610E+02 -0.18342963880E+02  0.51443833641E+02  0.11579057466E+03  0.91287925347E+02 0.  0.
        -13    1    4    4    0    0  0.43599935928E+02  0.31336183684E+02  0.22178191752E+02  0.58092882612E+02  0.00000000000E+00 0.  1.
         13    1    4    4    0    0  0.21279496820E+01 -0.49679147564E+02  0.29265641889E+02  0.57697692048E+02  0.00000000000E+00 0. -1.
        -13    1    3    3    0    0  0.30665251415E+02 -0.18747523301E+02 -0.22658962096E+02  0.42488302361E+02  0.00000000000E+00 0. -1.
         13    1    3    3    0    0 -0.46847718249E+02  0.12251509298E+02  0.20929902171E+02  0.52752905039E+02  0.00000000000E+00 0.  1.
          3    1    1    2  501    0 -0.29545418776E+02  0.24838977883E+02  0.11985517770E+03  0.12591731499E+03  0.00000000000E+00 0. -1.
<scales pt_clust_5="13000.00000" pt_clust_6="13000.00000" pt_clust_7="13000.00000" pt_clust_8="13000.00000" pt_clust_9="38.59931"></scales>
<clustering>
<clus scale="   38.599">  1  9  2 -1</clus>
<clus scale="   91.288">  5  6 -1 -1</clus>
<clus scale="   93.615">  7  8 -1 -1</clus>
<clus scale="   95.165">  1  5  2 -1</clus>
<clus scale="   38.599">  1  5  2 -1</clus>
</clustering>
</event>
<event>
 9    1  0.1464797E-005  0.9664664E+02  0.7546771E-02  0.1287572E+00
          2   -1    0    0  502    0 -0.00000000000E+00  0.00000000000E+00  0.23350603028E+03  0.23350603028E+03  0.00000000000E+00 0. -1.
         21   -1    0    0  501  502  0.00000000000E+00 -0.00000000000E+00 -0.65091437698E+02  0.65091437698E+02  0.00000000000E+00 0.  1.
         23    2    1    2    0    0 -0.33892537092E+02 -0.19260816097E+02  0.14170925521E+03  0.17284349028E+03  0.90959749413E+02 0.  0.
         23    2    1    2    0    0  0.12537710811E+02  0.55467807142E+01  0.48017781927E+01  0.92229818098E+02  0.91078654491E+02 0.  0.
        -11    1    4    4    0    0 -0.12930484396E+02 -0.37503373498E+02  0.12563382498E+02  0.41611765526E+02  0.00000000000E+00 0.  1.
         11    1    4    4    0    0  0.25468195207E+02  0.43050154212E+02 -0.77616043049E+01  0.50618052572E+02  0.00000000000E+00 0. -1.
        -13    1    3    3    0    0 -0.62511856535E+02 -0.14781164494E+02  0.67494973539E+02  0.93176104684E+02  0.00000000000E+00 0.  1.
         13    1    3    3    0    0  0.28619319442E+02 -0.44796516030E+01  0.74214281672E+02  0.79667385598E+02  0.00000000000E+00 0. -1.
          2    1    1    2  501    0  0.21354826281E+02  0.13714035383E+02  0.21903559177E+02  0.33524159596E+02  0.00000000000E+00 0. -1.
<scales pt_clust_5="13000.00000" pt_clust_6="13000.00000" pt_clust_7="13000.00000" pt_clust_8="13000.00000" pt_clust_9="25.37920"></scales>
<clustering>
<clus scale="   25.379">  2  9  1 -1</clus>
<clus scale="   90.960">  7  8 -1 -1</clus>
<clus scale="   91.079">  5  6 -1 -1</clus>
<clus scale="   96.535">  1  7  2 -1</clus>
<clus scale="   25.379">  2  5  1 -1</clus>
</clustering>
</event>
<event>
 9    1  0.1464797E-005  0.1230382E+03  0.7546771E-02  0.1242013E+00
         21   -1    0    0  501  502  0.00000000000E+00  0.00000000000E+00  0.54302727741E+02  0.54302727741E+02  0.00000000000E+00 0.  1.
          2   -1    0    0  502    0 -0.00000000000E+00 -0.00000000000E+00 -0.35223538342E+03  0.35223538342E+03  0.00000000000E+00 0. -1.
         23    2    1    2    0    0 -0.32322378356E+02  0.42833994369E+02 -0.11409033086E+03  0.16445763777E+03  0.10559462017E+03 0.  0.
         23    2    1    2    0    0  0.16653529877E+02 -0.73285086927E+02 -0.12420280971E+03  0.17330799624E+03  0.94664035399E+02 0.  0.
        -11    1    3    3    0    0 -0.53901698509E+02  0.25056859819E+02 -0.12173552671E+03  0.13547242446E+03  0.00000000000E+00 0. -1.
         11    1    3    3    0    0  0.21579320153E+02  0.17777134550E+02  0.76451958482E+01  0.28985213310E+02  0.00000000000E+00 0.  1.
        -13    1    4    4    0    0  0.48678126873E+02 -0.70882902539E+02 -0.72646504132E+02  0.11256758179E+03  0.00000000000E+00 0.  1.
         13    1    4    4    0    0 -0.32024596995E+02 -0.24021843880E+01 -0.51556305573E+02  0.60740414445E+02  0.00000000000E+00 0. -1.
          2    1    1    2  501    0  0.15668848479E+02  0.30451092559E+02 -0.59639515111E+02  0.68772477150E+02  0.00000000000E+00 0. -1.
<scales pt_clust_5="13000.00000" pt_clust_6="13000.00000" pt_clust_7="13000.00000" pt_clust_8="13000.00000" pt_clust_9="34.24592"></scales>
<clustering>
<clus scale="   34.246">  1  9  2 -1</clus>
<clus scale="   94.664">  7  8 -1 -1</clus>
<clus scale="  105.595">  5  6 -1 -1</clus>
<clus scale="  113.796">  1  7  2 -1</clus>
<clus scale="   34.246">  1  5  2 -1</clus>
</clustering>
</event>
<event>
 9    1  0.1464797E-005  0.1240084E+03  0.7546771E-02  0.1237084E+00
          1   -1    0    0  502    0 -0.00000000000E+00  0.00000000000E+00  0.13151126089E+03  0.13151126089E+03  0.00000000000E+00 0. -1.
         21   -1    0    0  501  502  0.00000000000E+00 -0.00000000000E+00 -0.17583679605E+03  0.17583679605E+03  0.00000000000E+00 0. -1.
         23    2    1    2    0    0  0.32628875431E+02  0.61673400302E+02  0.10661078529E+02  0.11740822141E+03  0.93823131697E+02 0.  0.
         23    2    1    2    0    0 -0.72777317735E+02 -0.74501445737E+02 -0.48068514612E+02  0.14722782008E+03  0.92295425211E+02 0.  0.
        -13    1    4    4    0    0 -0.19750696914E+02  0.21605747726E+02 -0.12655399829E+02  0.31891339079E+02  0.00000000000E+00 0.  1.
         13    1    4    4    0    0 -0.53026620820E+02 -0.96107193463E+02 -0.35413114783E+02  0.11533648100E+03  0.00000000000E+00 0. -1.
        -13    1    3    3    0    0 -0.97702471933E+01  0.53396547917E+02 -0.26516903720E+02  0.60413535259E+02  0.00000000000E+00 0.  1.
         13    1    3    3    0    0  0.42399122624E+02  0.82768523853E+01  0.37177982250E+02  0.56994686146E+02  0.00000000000E+00 0. -1.
          1    1    1    2  501    0  0.40148442304E+02  0.12828045435E+02 -0.69180990830E+01  0.42712015453E+02  0.00000000000E+00 0. -1.
<scales pt_clust_5="13000.00000" pt_clust_6="13000.00000" pt_clust_7="13000.00000" pt_clust_8="13000.00000" pt_clust_9="42.14803"></scales>
<clustering>
<clus scale="   42.148">  2  9  1 -1</clus>
<clus scale="   92.295">  5  6 -1 -1</clus>
<clus scale="   93.823">  7  8 -1 -1</clus>
<clus scale="  122.857">  2  5  1 -1</clus>
<clus scale="   42.148">  2  5  1 -1</clus>
</clustering>
</event>
<event>
 9    1  0.1464797E-005  0.1995779E+03  0.7546771E-02  0.1150220E+00
          2   -1    0    0  502    0 -0.00000000000E+00  0.00000000000E+00  0.47884022199E+03  0.47884022199E+03  0.00000000000E+00 0. -1.
         21   -1    0    0  501  502  0.00000000000E+00 -0.00000000000E+00 -0.26765728433E+03  0.26765728433E+03  0.00000000000E+00 0. -1.
         23    2    1    2    0    0  0.10393571079E+03  0.16805992446E+03  0.32771563265E+03  0.39327314477E+03  0.90661239406E+02 0.  0.
         23    2    1    2    0    0 -0.80995094598E+02 -0.11304296057E+03  0.51863131568E+02  0.17458983916E+03  0.91939715238E+02 0.  0.
        -11    1    4    4    0    0 -0.80190582712E+02 -0.86244457293E+02  0.17760689052E+01  0.11777856507E+03  0.00000000000E+00 0.  1.
         11    1    4    4    0    0 -0.80451188576E+00 -0.26798503279E+02  0.50087062663E+02  0.56811274089E+02  0.00000000000E+00 0. -1.
        -13    1    3    3    0    0  0.74955462270E+01  0.96709490918E+02  0.13410104357E+03  0.16550528310E+03  0.00000000000E+00 0.  1.
         13    1    3    3    0    0  0.96440164566E+02  0.71350433540E+02  0.19361458908E+03  0.22776786168E+03  0.00000000000E+00 0. -1.
          2    1    1    2  501    0 -0.22940616194E+02 -0.55016963887E+02 -0.16839582655E+03  0.17863452238E+03  0.00000000000E+00 0. -1.
<scales pt_clust_5="13000.00000" pt_clust_6="13000.00000" pt_clust_7="13000.00000" pt_clust_8="13000.00000" pt_clust_9="59.60821"></scales>
<clustering>
<clus scale="   59.608">  2  9  1 -1</clus>
<clus scale="   90.661">  7  8 -1 -1</clus>
<clus scale="   91.940">  5  6 -1 -1</clus>
<clus scale="  198.992">  1  7  2 -1</clus>
<clus scale="   59.608">  2  5  1 -1</clus>
</clustering>
</event>
<event>
 9    1  0.1464797E-005  0.1663539E+03  0.7546771E-02  0.1181990E+00
         21   -1    0    0  501  502  0.00000000000E+00  0.00000000000E+00  0.34241959071E+03  0.34241959071E+03  0.00000000000E+00 0.  1.
          1   -1    0    0  502    0 -0.00000000000E+00 -0.00000000000E+00 -0.12664467003E+03  0.12664467003E+03  0.00000000000E+00 0. -1.
         23    2    1    2    0    0 -0.12641995781E+03 -0.26241648628E+02  0.21307408902E+02  0.15972210334E+03  0.91577916364E+02 0.  0.
         23    2    1    2    0    0  0.15270588039E+03  0.22891428837E+02  0.86917869573E+02  0.19857619134E+03  0.89636400497E+02 0.  0.
        -13    1    3    3    0    0 -0.54609372759E+02 -0.43336171190E+02  0.44068170007E+02  0.82475517182E+02  0.00000000000E+00 0. -1.
         13    1    3    3    0    0 -0.71810585048E+02  0.17094522563E+02 -0.22760761105E+02  0.77246586155E+02  0.00000000000E+00 0.  1.
        -13    1    4    4    0    0  0.24513176701E+02  0.22093933354E+02 -0.13578627080E+02  0.35684966532E+02  0.00000000000E+00 0. -1.
         13    1    4    4    0    0  0.12819270369E+03  0.79749548273E+00  0.10049649665E+03  0.16289122480E+03  0.00000000000E+00 0.  1.
          1    1    1    2  501    0 -0.26285922583E+02  0.33502197907E+01  0.10754964221E+03  0.11076596606E+03  0.00000000000E+00 0. -1.
<scales pt_clust_5="13000.00000" pt_clust_6="13000.00000" pt_clust_7="13000.00000" pt_clust_8="13000.00000" pt_clust_9="26.49856"></scales>
<clustering>
<clus scale="   26.499">  1  9  2 -1</clus>
<clus scale="   89.636">  7  8 -1 -1</clus>
<clus scale="   91.578">  5  6 -1 -1</clus>
<clus scale="  165.293">  1  7  2 -1</clus>
<clus scale="   26.499">  1  5  2 -1</clus>
</clustering>
</event>
<event>
 9    1  0.1464797E-005  0.1981582E+03  0.7546771E-02  0.1152810E+00
          1   -1    0    0  502    0 -0.00000000000E+00  0.00000000000E+00  0.10108467211E+04  0.10108467211E+04  0.00000000000E+00 0. -1.
         21   -1    0    0  501  502  0.00000000000E+00 -0.00000000000E+00 -0.78460109087E+02  0.78460109087E+02  0.00000000000E+00 0. -1.
         23    2    1    2    0    0 -0.17102858980E+03 -0.34198757037E+02  0.59509794527E+03  0.62653127871E+03  0.89328300228E+02 0.  0.
         23    2    1    2    0    0  0.15370383884E+03  0.50961332332E+02  0.37307606611E+03  0.41962617288E+03  0.10333656853E+03 0.  0.
        -11    1    4    4    0    0  0.99892291248E+02 -0.20152601442E+02  0.17738063811E+03  0.20456902985E+03  0.00000000000E+00 0. -1.
         11    1    4    4    0    0  0.53811547597E+02  0.71113933774E+02  0.19569542799E+03  0.21505714303E+03  0.00000000000E+00 0.  1.
        -13    1    3    3    0    0 -0.76591331217E+02  0.73171186508E+01  0.38330412086E+03  0.39094989616E+03  0.00000000000E+00 0. -1.
         13    1    3    3    0    0 -0.94437258578E+02 -0.41515875688E+02  0.21179382442E+03  0.23558138255E+03  0.00000000000E+00 0.  1.
          1    1    1    2  501    0  0.17324750951E+02 -0.16762575296E+02 -0.35787399328E+02  0.43149378636E+02  0.00000000000E+00 0. -1.
<scales pt_clust_5="13000.00000" pt_clust_6="13000.00000" pt_clust_7="13000.00000" pt_clust_8="13000.00000" pt_clust_9="24.10666"></scales>
<clustering>
<clus scale="   24.107">  2  9  1 -1</clus>
<clus scale="   89.328">  7  8 -1 -1</clus>
<clus scale="  103.337">  5  6 -1 -1</clus>
<clus scale="  191.227">  1  7  2 -1</clus>
<clus scale="   24.107">  2  5  1 -1</clus>
</clustering>
</event>
<event>
 9    1  0.1464797E-005  0.1053299E+03  0.7546771E-02  0.1270950E+00
         21   -1    0    0  501  502  0.00000000000E+00  0.00000000000E+00  0.66110871252E+03  0.66110871252E+03  0.00000000000E+00 0. -1.
         -1   -1    0    0    0  501 -0.00000000000E+00 -0.00000000000E+00 -0.50371429656E+02  0.50371429656E+02  0.00000000000E+00 0.  1.
         23    2    1    2    0    0  0.42783986086E+02 -0.28112783589E+02  0.19061450245E+02  0.10440295371E+03  0.88971005347E+02 0.  0.
         23    2    1    2    0    0 -0.24231416518E+02  0.46641140553E+02  0.41145797997E+03  0.42496191655E+03  0.92371011138E+02 0.  0.
        -11    1    4    4    0    0 -0.15101402065E+02  0.73297048368E+02  0.34023476097E+03  0.34836791215E+03  0.00000000000E+00 0. -1.
         11    1    4    4    0    0 -0.91300144534E+01 -0.26655907814E+02  0.71223219002E+02  0.76594004402E+02  0.00000000000E+00 0.  1.
        -13    1    3    3    0    0  0.69364946721E+01 -0.25825358069E+02 -0.32170517916E+02  0.41833076635E+02  0.00000000000E+00 0.  1.
         13    1    3    3    0    0  0.35847491414E+02 -0.22874255200E+01  0.51231968161E+02  0.62569877080E+02  0.00000000000E+00 0. -1.
         -1    1    1    2    0  502 -0.18552569568E+02 -0.18528356964E+02  0.18021785265E+03  0.18211527191E+03  0.00000000000E+00 0.  1.
<scales pt_clust_5="13000.00000" pt_clust_6="13000.00000" pt_clust_7="13000.00000" pt_clust_8="13000.00000" pt_clust_9="26.22018"></scales>
<clustering>
<clus scale="   26.220">  1  9  2 -1</clus>
<clus scale="   88.971">  7  8 -1 -1</clus>
<clus scale="   92.371">  5  6 -1 -1</clus>
<clus scale="  102.361">  2  7  1 -1</clus>
<clus scale="   26.220">  1  5  2 -1</clus>
</clustering>
</event>
<event>
 9    1  0.1464797E-005  0.1023391E+03  0.7546771E-02  0.1276661E+00
         21   -1    0    0  501  502  0.00000000000E+00  0.00000000000E+00  0.16544274430E+03  0.16544274430E+03  0.00000000000E+00 0. -1.
         -1   -1    0    0    0  501 -0.00000000000E+00 -0.00000000000E+00 -0.12391679795E+03  0.12391679795E+03  0.00000000000E+00 0.  1.
         23    2    1    2    0    0  0.36064713218E+02  0.22414793796E+02 -0.29056148729E+02  0.10563848885E+03  0.92261281295E+02 0.  0.
         23    2    1    2    0    0 -0.49393607229E+02 -0.36288369229E+01 -0.71226332903E+01  0.10267417561E+03  0.89656887850E+02 0.  0.
        -11    1    4    4    0    0  0.11918538136E+02  0.17072102864E+02 -0.27805371669E+02  0.34736823993E+02  0.00000000000E+00 0.  1.
         11    1    4    4    0    0 -0.61312145365E+02 -0.20700939787E+02  0.20682738378E+02  0.67937351613E+02  0.00000000000E+00 0. -1.
        -13    1    3    3    0    0  0.49218182203E+02 -0.56686367659E+00 -0.51271603614E+02  0.71074103096E+02  0.00000000000E+00 0.  1.
         13    1    3    3    0    0 -0.13153468985E+02  0.22981657473E+02  0.22215454884E+02  0.34564385750E+02  0.00000000000E+00 0. -1.
         -1    1    1    2    0  502  0.13328894011E+02 -0.18785956873E+02  0.77704728361E+02  0.81046877799E+02  0.00000000000E+00 0.  1.
<scales pt_clust_5="13000.00000" pt_clust_6="13000.00000" pt_clust_7="13000.00000" pt_clust_8="13000.00000" pt_clust_9="23.03414"></scales>
<clustering>
<clus scale="   23.034">  1  9  2 -1</clus>
<clus scale="   89.657">  5  6 -1 -1</clus>
<clus scale="   92.261">  7  8 -1 -1</clus>
<clus scale="   99.998">  1  5  2 -1</clus>
<clus scale="   23.034">  1  5  2 -1</clus>
</clustering>
</event>
<event>
 9    1  0.1464797E-005  0.1478690E+03  0.7546771E-02  0.1206052E+00
         21   -1    0    0  501  502  0.00000000000E+00  0.00000000000E+00  0.81200332898E+02  0.81200332898E+02  0.00000000000E+00 0.  1.
          2   -1    0    0  502    0 -0.00000000000E+00 -0.00000000000E+00 -0.33856280853E+03  0.33856280853E+03  0.00000000000E+00 0. -1.
         23    2    1    2    0    0  0.30960583744E+02 -0.92335832320E+02 -0.13072779088E+03  0.18687305808E+03  0.91363673584E+02 0.  0.
         23    2    1    2    0    0 -0.44417492667E+02  0.10889157582E+03 -0.69806112732E+02  0.17218862012E+03  0.10462188387E+03 0.  0.
        -11    1    4    4    0    0 -0.31711887440E+02  0.72304167716E+02 -0.96847509763E+02  0.12495189723E+03  0.00000000000E+00 0.  1.
         11    1    4    4    0    0 -0.12705605227E+02  0.36587408105E+02  0.27041397031E+02  0.47236722890E+02  0.00000000000E+00 0. -1.
        -13    1    3    3    0    0  0.54235030234E+00 -0.40041848275E+02 -0.11859170698E+03  0.12517043070E+03  0.00000000000E+00 0. -1.
         13    1    3    3    0    0  0.30418233441E+02 -0.52293984044E+02 -0.12136083902E+02  0.61702627378E+02  0.00000000000E+00 0.  1.
          2    1    1    2  501    0  0.13456908923E+02 -0.16555743501E+02 -0.56828572020E+02  0.60701463231E+02  0.00000000000E+00 0. -1.
<scales pt_clust_5="13000.00000" pt_clust_6="13000.00000" pt_clust_7="13000.00000" pt_clust_8="13000.00000" pt_clust_9="21.33498"></scales>
<clustering>
<clus scale="   21.335">  1  9  2 -1</clus>
<clus scale="   91.364">  7  8 -1 -1</clus>
<clus scale="  104.622">  5  6 -1 -1</clus>
<clus scale="  138.805">  2  7  1 -1</clus>
<clus scale="   21.335">  1  5  2 -1</clus>
</clustering>
</event>
<event>
 9    1  0.1464797E-005  0.1685744E+03  0.7546771E-02  0.1180271E+00
         21   -1    0    0  501  502  0.00000000000E+00  0.00000000000E+00  0.60033397731E+02  0.60033397731E+02  0.00000000000E+00 0.  1.
          1   -1    0    0  502    0 -0.00000000000E+00 -0.00000000000E+00 -0.85773587819E+03  0.85773587819E+03  0.00000000000E+00 0. -1.
         23    2    1    2    0    0  0.12213279020E+03 -0.63625433481E+02 -0.54179122918E+03  0.56510453977E+03  0.82709072256E+02 0.  0.
         23    2    1    2    0    0 -0.14884322545E+03  0.48728880100E+02 -0.26518274013E+03  0.32070671432E+03  0.89454465670E+02 0.  0.
        -11    1    4    4    0    0 -0.72426889518E+02  0.70261677987E+02 -0.15262453137E+03  0.18296613155E+03  0.00000000000E+00 0. -1.
         11    1    4    4    0    0 -0.76416335929E+02 -0.21532797887E+02 -0.11255820876E+03  0.13774058277E+03  0.00000000000E+00 0.  1.
        -13    1    3    3    0    0  0.44559020963E+02 -0.43195207605E+02 -0.11343171006E+03  0.12929843447E+03  0.00000000000E+00 0.  1.
         13    1    3    3    0    0  0.77573769236E+02 -0.20430225876E+02 -0.42835951912E+03  0.43580610530E+03  0.00000000000E+00 0. -1.
          1    1    1    2  501    0  0.26710435247E+02  0.14896553381E+02  0.92714888479E+01  0.31958021829E+02  0.00000000000E+00 0. -1.
<scales pt_clust_5="13000.00000" pt_clust_6="13000.00000" pt_clust_7="13000.00000" pt_clust_8="13000.00000" pt_clust_9="30.58357"></scales>
<clustering>
<clus scale="   30.584">  1  9  2 -1</clus>
<clus scale="   82.709">  7  8 -1 -1</clus>
<clus scale="   89.454">  5  6 -1 -1</clus>
<clus scale="  165.094">  2  7  1 -1</clus>
<clus scale="   30.584">  1  5  2 -1</clus>
</clustering>
</event>
<event>
 9    1  0.1464797E-005  0.9751582E+02  0.7546771E-02  0.1286275E+00
         21   -1    0    0  501  502  0.00000000000E+00  0.00000000000E+00  0.62671601346E+02  0.62671601346E+02  0.00000000000E+00 0.  1.
         -2   -1    0    0    0  501 -0.00000000000E+00 -0.00000000000E+00 -0.37596444140E+03  0.37596444140E+03  0.00000000000E+00 0.  1.
         23    2    1    2    0    0 -0.42929277263E+02 -0.45845463688E+02 -0.20698331789E+03  0.23503618481E+03  0.91952079345E+02 0.  0.
         23    2    1    2    0    0 -0.11095577922E+02 -0.29507423064E+00 -0.94775683588E+02  0.13162303077E+03  0.90658662635E+02 0.  0.
        -11    1    3    3    0    0 -0.39804883471E+02 -0.21645096226E+02 -0.20566774387E+03  0.21059952471E+03  0.00000000000E+00 0.  1.
         11    1    3    3    0    0 -0.31243937912E+01 -0.24200367462E+02 -0.13155740241E+01  0.24436660100E+02  0.00000000000E+00 0. -1.
        -11    1    4    4    0    0 -0.18623043470E+02  0.40496214480E+02 -0.26855598638E+02  0.52038296604E+02  0.00000000000E+00 0.  1.
         11    1    4    4    0    0  0.75274655475E+01 -0.40791288711E+02 -0.67920084950E+02  0.79584734164E+02  0.00000000000E+00 0. -1.
         -2    1    1    2    0  502  0.54024855185E+02  0.46140537919E+02 -0.11533838572E+02  0.71976827169E+02  0.00000000000E+00 0.  1.
<scales pt_clust_5="13000.00000" pt_clust_6="13000.00000" pt_clust_7="13000.00000" pt_clust_8="13000.00000" pt_clust_9="71.04670"></scales>
<clustering>
<clus scale="   71.047">  1  9  2 -1</clus>
<clus scale="   90.659">  7  8 -1 -1</clus>
<clus scale="   91.952">  5  6 -1 -1</clus>
<clus scale="   96.297">  1  7  2 -1</clus>
<clus scale="   71.047">  1  5  2 -1</clus>
</clustering>
</event>
<event>
 9    1  0.1464797E-005  0.1293800E+03  0.7546771E-02  0.1228953E+00
          1   -1    0    0  502    0 -0.00000000000E+00  0.00000000000E+00  0.24792057017E+03  0.24792057017E+03  0.00000000000E+00 0. -1.
         21   -1    0    0  501  502  0.00000000000E+00 -0.00000000000E+00 -0.11875163898E+03  0.11875163898E+03  0.00000000000E+00 0. -1.
         23    2    1    2    0    0 -0.59194323171E+02 -0.34801184463E+02  0.30242938195E+02  0.11597328376E+03  0.88431198679E+02 0.  0.
         23    2    1    2    0    0  0.64700683906E+02  0.10907278376E+03  0.67813566428E+02  0.16998601714E+03  0.90628447945E+02 0.  0.
        -11    1    3    3    0    0  0.25214695459E+00 -0.21402550726E+02 -0.25564851613E+02  0.33342081424E+02  0.00000000000E+00 0.  1.
         11    1    3    3    0    0 -0.59446470125E+02 -0.13398633737E+02  0.55807789808E+02  0.82631202337E+02  0.00000000000E+00 0. -1.
        -11    1    4    4    0    0 -0.22271857275E+01  0.23842866075E+02 -0.19450916152E+02  0.30850944201E+02  0.00000000000E+00 0.  1.
         11    1    4    4    0    0  0.66927869634E+02  0.85229917680E+02  0.87264482580E+02  0.13913507294E+03  0.00000000000E+00 0. -1.
          1    1    1    2  501    0 -0.55063607358E+01 -0.74271599292E+02  0.31112426567E+02  0.80712908242E+02  0.00000000000E+00 0. -1.
<scales pt_clust_5="13000.00000" pt_clust_6="13000.00000" pt_clust_7="13000.00000" pt_clust_8="13000.00000" pt_clust_9="74.47547"></scales>
<clustering>
<clus scale="   74.475">  2  9  1 -1</clus>
<clus scale="   88.431">  5  6 -1 -1</clus>
<clus scale="   90.628">  7  8 -1 -1</clus>
<clus scale="  127.851">  1  5  2 -1</clus>
<clus scale="   74.475">  2  5  1 -1</clus>
</clustering>
</event>
<event>
 9    1  0.1464797E-005  0.1081346E+03  0.7546771E-02  0.1264725E+00
          2   -1    0    0  502    0 -0.00000000000E+00  0.00000000000E+00  0.21596900739E+03  0.21596900739E+03  0.00000000000E+00 0. -1.
         21   -1    0    0  501  502  0.00000000000E+00 -0.00000000000E+00 -0.92496027177E+02  0.92496027177E+02  0.00000000000E+00 0.  1.
         23    2    1    2    0    0  0.12514515178E+02 -0.63886993108E+02  0.12541699733E+03  0.16786761943E+03  0.90619829269E+02 0.  0.
         23    2    1    2    0    0 -0.28514356886E+02  0.31569335026E+02  0.11233641323E+02  0.10220370940E+03  0.92248100551E+02 0.  0.
        -11    1    3    3    0    0  0.22315365967E+02 -0.81834830629E+02  0.74117477420E+02  0.11264242328E+03  0.00000000000E+00 0.  1.
         11    1    3    3    0    0 -0.98008507893E+01  0.17947837521E+02  0.51299519906E+02  0.55225196156E+02  0.00000000000E+00 0. -1.
        -13    1    4    4    0    0 -0.45158604192E+01  0.22181509526E+02 -0.39371558346E+02  0.45415107253E+02  0.00000000000E+00 0.  1.
         13    1    4    4    0    0 -0.23998496467E+02  0.93878255002E+01  0.50605199670E+02  0.56788602148E+02  0.00000000000E+00 0. -1.
          2    1    1    2  501    0  0.15999841709E+02  0.32317658081E+02 -0.13177658433E+02  0.38393705739E+02  0.00000000000E+00 0. -1.
<scales pt_clust_5="13000.00000" pt_clust_6="13000.00000" pt_clust_7="13000.00000" pt_clust_8="13000.00000" pt_clust_9="36.06142"></scales>
<clustering>
<clus scale="   36.061">  2  9  1 -1</clus>
<clus scale="   90.620">  5  6 -1 -1</clus>
<clus scale="   92.248">  7  8 -1 -1</clus>
<clus scale="  106.749">  1  5  2 -1</clus>
<clus scale="   36.061">  2  5  1 -1</clus>
</clustering>
</event>
<event>
 9    1  0.1464797E-005  0.1386573E+03  0.7546771E-02  0.1237834E+00
         21   -1    0    0  501  502  0.00000000000E+00  0.00000000000E+00  0.11099420074E+03  0.11099420074E+03  0.00000000000E+00 0.  1.
         -1   -1    0    0    0  501 -0.00000000000E+00 -0.00000000000E+00 -0.32314156259E+03  0.32314156259E+03  0.00000000000E+00 0.  1.
         23    2    1    2    0    0  0.15173565698E+01  0.66041290015E+01 -0.35325309890E+01  0.86625490832E+02  0.86287774313E+02 0.  0.
         23    2    1    2    0    0  0.94396377275E+02  0.40487933150E+02 -0.32465377362E+02  0.14148664126E+03  0.91730693639E+02 0.  0.
        -11    1    3    3    0    0  0.17259254333E+02  0.38891421625E+02  0.16334837431E+02  0.45576874070E+02  0.00000000000E+00 0.  1.
         11    1    3    3    0    0 -0.15741897763E+02 -0.32287292623E+02 -0.19867368420E+02  0.41048616762E+02  0.00000000000E+00 0. -1.
        -13    1    4    4    0    0  0.48336736626E+02  0.79567612411E+01 -0.61043340180E+02  0.78269020292E+02  0.00000000000E+00 0.  1.
         13    1    4    4    0    0  0.46059640649E+02  0.32531171909E+02  0.28577962819E+02  0.63217620972E+02  0.00000000000E+00 0. -1.
         -1    1    1    2    0  502 -0.95913733845E+02 -0.47092062152E+02 -0.17614945350E+03  0.20602363123E+03  0.00000000000E+00 0.  1.
<scales pt_clust_5="13000.00000" pt_clust_6="13000.00000" pt_clust_7="13000.00000" pt_clust_8="13000.00000" pt_clust_9="103.97755"></scales>
<clustering>
<clus scale="   86.288">  5  6 -1 -1</clus>
<clus scale="   86.553">  2  5  1 -1</clus>
<clus scale="   91.731">  7  8 -1 -1</clus>
<clus scale="  103.978">  1  9  2 -1</clus>
<clus scale="  103.978">  1  5  2 -1</clus>
</clustering>
</event>
<event>
 9    1  0.1464797E-005  0.1474071E+03  0.7546771E-02  0.1212406E+00
         -1   -1    0    0    0  501 -0.00000000000E+00  0.00000000000E+00  0.91438479274E+02  0.91438479274E+02  0.00000000000E+00 0.  1.
         21   -1    0    0  501  502  0.00000000000E+00 -0.00000000000E+00 -0.82118042082E+03  0.82118042082E+03  0.00000000000E+00 0.  1.
         23    2    1    2    0    0  0.15395035508E+02 -0.63146087749E+02 -0.55950188171E+02  0.14828303564E+03  0.12096693592E+03 0.  0.
         23    2    1    2    0    0  0.55369683980E+02  0.10895513276E+03 -0.92751863386E+02  0.17721282123E+03  0.88681751154E+02 0.  0.
        -13    1    4    4    0    0 -0.84444159341E+01  0.62218215217E+02 -0.11528645736E+02  0.63838265466E+02  0.00000000000E+00 0. -1.
         13    1    4    4    0    0  0.63814099914E+02  0.46736917546E+02 -0.81223217650E+02  0.11337455576E+03  0.00000000000E+00 0.  1.
        -13    1    3    3    0    0  0.40931142096E+02 -0.44565528982E+02  0.21837001547E+02  0.64329615289E+02  0.00000000000E+00 0.  1.
         13    1    3    3    0    0 -0.25536106588E+02 -0.18580558767E+02 -0.77787189719E+02  0.83953420348E+02  0.00000000000E+00 0. -1.
         -1    1    1    2    0  502 -0.70764719488E+02 -0.45809045014E+02 -0.58103988999E+03  0.58712304322E+03  0.00000000000E+00 0.  1.
<scales pt_clust_5="13000.00000" pt_clust_6="13000.00000" pt_clust_7="13000.00000" pt_clust_8="13000.00000" pt_clust_9="84.29777"></scales>
<clustering>
<clus scale="   84.298">  2  9  1 -1</clus>
<clus scale="   88.682">  5  6 -1 -1</clus>
<clus scale="  120.967">  7  8 -1 -1</clus>
<clus scale="  122.312">  2  5  1 -1</clus>
<clus scale="   84.298">  2  5  1 -1</clus>
</clustering>
</event>
<event>
 9    1  0.1464797E-005  0.1034373E+03  0.7546771E-02  0.1273667E+00
          1   -1    0    0  502    0 -0.00000000000E+00  0.00000000000E+00  0.15589582541E+03  0.15589582541E+03  0.00000000000E+00 0. -1.
         21   -1    0    0  501  502  0.00000000000E+00 -0.00000000000E+00 -0.16970799997E+03  0.16970799997E+03  0.00000000000E+00 0.  1.
         23    2    1    2    0    0  0.30298473003E+02 -0.25450321375E+02  0.10331869653E+03  0.14547567556E+03  0.94460059289E+02 0.  0.
         23    2    1    2    0    0 -0.12788480377E+02  0.48207072198E+02 -0.98385235440E+02  0.14583721215E+03  0.95401105107E+02 0.  0.
        -13    1    3    3    0    0  0.62415391444E+02 -0.20988522263E+02  0.87184309135E+02  0.10925796500E+03  0.00000000000E+00 0. -1.
         13    1    3    3    0    0 -0.32116918441E+02 -0.44617991121E+01  0.16134387400E+02  0.36217710561E+02  0.00000000000E+00 0.  1.
        -13    1    4    4    0    0  0.26458355827E+02  0.59844969456E+02 -0.71181429713E+02  0.96686404930E+02  0.00000000000E+00 0.  1.
         13    1    4    4    0    0 -0.39246836204E+02 -0.11637897258E+02 -0.27203805727E+02  0.49150807223E+02  0.00000000000E+00 0. -1.
          1    1    1    2  501    0 -0.17509992626E+02 -0.22756750823E+02 -0.18745635654E+02  0.34290937663E+02  0.00000000000E+00 0. -1.
<scales pt_clust_5="13000.00000" pt_clust_6="13000.00000" pt_clust_7="13000.00000" pt_clust_8="13000.00000" pt_clust_9="28.71358"></scales>
<clustering>
<clus scale="   28.714">  2  9  1 -1</clus>
<clus scale="   94.460">  5  6 -1 -1</clus>
<clus scale="   95.401">  7  8 -1 -1</clus>
<clus scale="  102.570">  1  5  2 -1</clus>
<clus scale="   28.714">  2  5  1 -1</clus>
</clustering>
</event>
<event>
 9    1  0.1464797E-005  0.1589397E+03  0.7546771E-02  0.1190158E+00
         21   -1    0    0  501  502  0.00000000000E+00  0.00000000000E+00  0.29688636077E+03  0.29688636077E+03  0.00000000000E+00 0.  1.
          1   -1    0    0  502    0 -0.00000000000E+00 -0.00000000000E+00 -0.15599801010E+03  0.15599801010E+03  0.00000000000E+00 0. -1.
         23    2    1    2    0    0 -0.11943901251E+03 -0.54786885982E+02 -0.47415970608E+02  0.16606496881E+03  0.89788746582E+02 0.  0.
         23    2    1    2    0    0  0.12540214352E+03  0.29466271772E+02  0.83134630473E+02  0.17848032186E+03  0.91377785791E+02 0.  0.
        -11    1    3    3    0    0 -0.78549260771E+02 -0.24605805299E+01  0.87720461800E+01  0.79075847251E+02  0.00000000000E+00 0.  1.
         11    1    3    3    0    0 -0.40889751744E+02 -0.52326305453E+02 -0.56188016788E+02  0.86989121564E+02  0.00000000000E+00 0. -1.
        -13    1    4    4    0    0  0.82253460825E+01  0.28414723134E+02  0.47575829494E+02  0.56022427303E+02  0.00000000000E+00 0.  1.
         13    1    4    4    0    0  0.11717679744E+03  0.10515486377E+01  0.35558800979E+02  0.12245789456E+03  0.00000000000E+00 0. -1.
          1    1    1    2  501    0 -0.59631310055E+01  0.25320614211E+02  0.10516969080E+03  0.10833908020E+03  0.00000000000E+00 0. -1.
<scales pt_clust_5="13000.00000" pt_clust_6="13000.00000" pt_clust_7="13000.00000" pt_clust_8="13000.00000" pt_clust_9="26.01331"></scales>
<clustering>
<clus scale="   26.013">  1  9  2 -1</clus>
<clus scale="   89.789">  5  6 -1 -1</clus>
<clus scale="   91.378">  7  8 -1 -1</clus>
<clus scale="  158.031">  2  5  1 -1</clus>
<clus scale="   26.013">  1  5  2 -1</clus>
</clustering>
</event>
<event>
 9    1  0.1464797E-005  0.9537585E+02  0.7546771E-02  0.1292020E+00
         21   -1    0    0  501  502  0.00000000000E+00  0.00000000000E+00  0.13768151534E+03  0.13768151534E+03  0.00000000000E+00 0. -1.
          2   -1    0    0  502    0 -0.00000000000E+00 -0.00000000000E+00 -0.34219165826E+03  0.34219165826E+03  0.00000000000E+00 0. -1.
         23    2    1    2    0    0  0.87067647714E+01 -0.13065568235E+01 -0.14189274154E+03  0.16812714520E+03  0.89753395526E+02 0.  0.
         23    2    1    2    0    0 -0.25422304326E+02 -0.30453156105E+02 -0.17045493103E+03  0.19809295354E+03  0.92802189931E+02 0.  0.
        -11    1    3    3    0    0  0.49314554140E+02  0.17107118168E+01 -0.82041559080E+02  0.95737501541E+02  0.00000000000E+00 0. -1.
         11    1    3    3    0    0 -0.40607789369E+02 -0.30172686403E+01 -0.59851182458E+02  0.72389643659E+02  0.00000000000E+00 0.  1.
        -13    1    4    4    0    0 -0.37337338913E+02 -0.56957590500E+02 -0.92268888376E+02  0.11468126157E+03  0.00000000000E+00 0.  1.
         13    1    4    4    0    0  0.11915034588E+02  0.26504434395E+02 -0.78186042649E+02  0.83411691968E+02  0.00000000000E+00 0. -1.
          2    1    1    2  501    0  0.16715539554E+02  0.31759712928E+02  0.10783752964E+03  0.11365307486E+03  0.00000000000E+00 0. -1.
<scales pt_clust_5="13000.00000" pt_clust_6="13000.00000" pt_clust_7="13000.00000" pt_clust_8="13000.00000" pt_clust_9="35.88995"></scales>
<clustering>
<clus scale="   35.890">  1  9  2 -1</clus>
<clus scale="   89.753">  5  6 -1 -1</clus>
<clus scale="   92.412">  2  5  1 -1</clus>
<clus scale="   92.802">  7  8 -1 -1</clus>
<clus scale="   35.890">  1  5  2 -1</clus>
</clustering>
</event>
<event>
 9    1  0.1464797E-005  0.1557049E+03  0.7546771E-02  0.1196827E+00
          3   -1    0    0  502    0 -0.00000000000E+00  0.00000000000E+00  0.67750952454E+03  0.67750952454E+03  0.00000000000E+00 0. -1.
         21   -1    0    0  501  502  0.00000000000E+00 -0.00000000000E+00 -0.10324482952E+03  0.10324482952E+03  0.00000000000E+00 0. -1.
         23    2    1    2    0    0  0.99734899454E+02 -0.28333632460E+02  0.39504646074E+03  0.42204851005E+03  0.10636443856E+03 0.  0.
         23    2    1    2    0    0 -0.10565248285E+03  0.10236743818E+03  0.21545741159E+03  0.27606626418E+03  0.90272623082E+02 0.  0.
        -11    1    4    4    0    0 -0.60868677967E+02  0.52748670232E+01  0.49432061147E+02  0.78589750278E+02  0.00000000000E+00 0.  1.
         11    1    4    4    0    0 -0.44783804883E+02  0.97092571155E+02  0.16602535044E+03  0.19747651390E+03  0.00000000000E+00 0. -1.
        -13    1    3    3    0    0  0.96742646773E+02  0.18210174205E+02  0.30721780650E+03  0.32260429443E+03  0.00000000000E+00 0. -1.
         13    1    3    3    0    0  0.29922526813E+01 -0.46543806665E+02  0.87828654238E+02  0.99444215620E+02  0.00000000000E+00 0.  1.
          3    1    1    2  501    0  0.59175833951E+01 -0.74033805719E+02 -0.36239177316E+02  0.82639579833E+02  0.00000000000E+00 0. -1.
<scales pt_clust_5="13000.00000" pt_clust_6="13000.00000" pt_clust_7="13000.00000" pt_clust_8="13000.00000" pt_clust_9="74.26993"></scales>
<clustering>
<clus scale="   74.270">  2  9  1 -1</clus>
<clus scale="   90.273">  5  6 -1 -1</clus>
<clus scale="  106.364">  7  8 -1 -1</clus>
<clus scale="  145.189">  2  5  1 -1</clus>
<clus scale="   74.270">  2  5  1 -1</clus>
</clustering>
</event>
<event>
 9    1  0.1464797E-005  0.9544331E+02  0.7546771E-02  0.1290335E+00
          1   -1    0    0  502    0 -0.00000000000E+00  0.00000000000E+00  0.33276878404E+03  0.33276878404E+03  0.00000000000E+00 0. -1.
         21   -1    0    0  501  502  0.00000000000E+00 -0.00000000000E+00 -0.37297747027E+02  0.37297747027E+02  0.00000000000E+00 0. -1.
         23    2    1    2    0    0  0.17530883869E+02 -0.82965701640E+00  0.13126884173E+03  0.16092568603E+03  0.91419622595E+02 0.  0.
         23    2    1    2    0    0 -0.37544872352E+02  0.17819438577E+02  0.10910242229E+03  0.14810644985E+03  0.91131948873E+02 0.  0.
        -11    1    3    3    0    0 -0.23093942217E+02  0.24807091104E+02  0.94611475325E+02  0.10049902089E+03  0.00000000000E+00 0. -1.
         11    1    3    3    0    0  0.40624826086E+02 -0.25636748121E+02  0.36657366408E+02  0.60426665146E+02  0.00000000000E+00 0.  1.
        -11    1    4    4    0    0  0.22581093749E+02  0.14030505514E+02  0.38922585691E+01  0.26868393265E+02  0.00000000000E+00 0.  1.
         11    1    4    4    0    0 -0.60125966101E+02  0.37889330627E+01  0.10521016372E+03  0.12123805658E+03  0.00000000000E+00 0. -1.
          1    1    1    2  501    0  0.20013988482E+02 -0.16989781561E+02  0.55099772994E+02  0.61034395192E+02  0.00000000000E+00 0. -1.
<scales pt_clust_5="13000.00000" pt_clust_6="13000.00000" pt_clust_7="13000.00000" pt_clust_8="13000.00000" pt_clust_9="26.25287"></scales>
<clustering>
<clus scale="   26.253">  2  9  1 -1</clus>
<clus scale="   91.132">  7  8 -1 -1</clus>
<clus scale="   91.420">  5  6 -1 -1</clus>
<clus scale="   95.168">  2  7  1 -1</clus>
<clus scale="   26.253">  2  5  1 -1</clus>
</clustering>
</event>
<event>
 9    1  0.1464797E-005  0.1932494E+03  0.7546771E-02  0.1155606E+00
         -2   -1    0    0    0  501 -0.00000000000E+00  0.00000000000E+00  0.53472731109E+03  0.53472731109E+03  0.00000000000E+00 0.  1.
         21   -1    0    0  501  502  0.00000000000E+00 -0.00000000000E+00 -0.20514478186E+03  0.20514478186E+03  0.00000000000E+00 0.  1.
         23    2    1    2    0    0 -0.15572946112E+03 -0.30409927336E+02  0.22598541709E+03  0.29086726690E+03  0.91421712286E+02 0.  0.
         23    2    1    2    0    0  0.15457234888E+03  0.12495557954E+03  0.21226945406E+03  0.30495658011E+03  0.91835106200E+02 0.  0.
        -13    1    3    3    0    0 -0.54216268350E+02 -0.53453891459E+02  0.70571413929E+02  0.10381255574E+03  0.00000000000E+00 0.  1.
         13    1    3    3    0    0 -0.10151319277E+03  0.23043964123E+02  0.15541400316E+03  0.18705471116E+03  0.00000000000E+00 0. -1.
        -13    1    4    4    0    0  0.14642385611E+03  0.73994089397E+02  0.13724528908E+03  0.21389562941E+03  0.00000000000E+00 0.  1.
         13    1    4    4    0    0  0.81484927622E+01  0.50961490145E+02  0.75024164984E+02  0.91060950707E+02  0.00000000000E+00 0. -1.
         -2    1    1    2    0  502  0.11571122472E+01 -0.94545652206E+02 -0.10867234192E+03  0.14404824594E+03  0.00000000000E+00 0.  1.
<scales pt_clust_5="13000.00000" pt_clust_6="13000.00000" pt_clust_7="13000.00000" pt_clust_8="13000.00000" pt_clust_9="94.55273"></scales>
<clustering>
<clus scale="   91.422">  5  6 -1 -1</clus>
<clus scale="   91.835">  7  8 -1 -1</clus>
<clus scale="   94.553">  2  9  1 -1</clus>
<clus scale="  193.053">  1  5  2 -1</clus>
<clus scale="   94.553">  2  5  1 -1</clus>
</clustering>
</event>
<event>
 9    1  0.1464797E-005  0.9712706E+02  0.7546771E-02  0.1286523E+00
          2   -1    0    0  502    0 -0.00000000000E+00  0.00000000000E+00  0.31221827427E+03  0.31221827427E+03  0.00000000000E+00 0. -1.
         21   -1    0    0  501  502  0.00000000000E+00 -0.00000000000E+00 -0.13747310906E+03  0.13747310906E+03  0.00000000000E+00 0.  1.
         23    2    1    2    0    0  0.23149143829E+02  0.16520778008E+02  0.24763067243E+03  0.26552968951E+03  0.91521839569E+02 0.  0.
         23    2    1    2    0    0 -0.58238572323E+02 -0.13617772832E+02 -0.72521683416E+01  0.10968061835E+03  0.91651890616E+02 0.  0.
        -13    1    3    3    0    0  0.22993124212E+02 -0.35897068774E+02  0.94339896830E+02  0.10352439056E+03  0.00000000000E+00 0. -1.
         13    1    3    3    0    0  0.15601961681E+00  0.52417846782E+02  0.15329077559E+03  0.16200529894E+03  0.00000000000E+00 0.  1.
        -13    1    4    4    0    0 -0.75168015013E+01 -0.40816756009E+02  0.19918390348E+02  0.46035335884E+02  0.00000000000E+00 0. -1.
         13    1    4    4    0    0 -0.50721770821E+02  0.27198983177E+02 -0.27170558689E+02  0.63645282469E+02  0.00000000000E+00 0.  1.
          2    1    1    2  501    0  0.35089428493E+02 -0.29030051764E+01 -0.65633338880E+02  0.74481075472E+02  0.00000000000E+00 0. -1.
<scales pt_clust_5="13000.00000" pt_clust_6="13000.00000" pt_clust_7="13000.00000" pt_clust_8="13000.00000" pt_clust_9="35.20931"></scales>
<clustering>
<clus scale="   35.209">  2  9  1 -1</clus>
<clus scale="   91.522">  5  6 -1 -1</clus>
<clus scale="   91.652">  7  8 -1 -1</clus>
<clus scale="   97.004">  1  5  2 -1</clus>
<clus scale="   35.209">  2  5  1 -1</clus>
</clustering>
</event>
<event>
 9    1  0.1464797E-005  0.1156463E+03  0.7546771E-02  0.1250724E+00
          2   -1    0    0  502    0 -0.00000000000E+00  0.00000000000E+00  0.45110619523E+03  0.45110619523E+03  0.00000000000E+00 0. -1.
         21   -1    0    0  501  502  0.00000000000E+00 -0.00000000000E+00 -0.40491506719E+02  0.40491506719E+02  0.00000000000E+00 0.  1.
         23    2    1    2    0    0 -0.60078724715E+02 -0.45600601197E+02  0.28844971735E+03  0.31246234971E+03  0.93491243203E+02 0.  0.
         23    2    1    2    0    0  0.38486674044E+02  0.36930657433E+02  0.92414329819E+02  0.14136651274E+03  0.92730712440E+02 0.  0.
        -11    1    4    4    0    0  0.37080079672E+02  0.66794500227E+01 -0.62208534813E+01  0.38186992276E+02  0.00000000000E+00 0.  1.
         11    1    4    4    0    0  0.14065943719E+01  0.30251207411E+02  0.98635183300E+02  0.10317952046E+03  0.00000000000E+00 0. -1.
        -13    1    3    3    0    0 -0.62144468988E+02  0.12691551591E+01  0.22576558931E+03  0.23416585382E+03  0.00000000000E+00 0. -1.
         13    1    3    3    0    0  0.20657442736E+01 -0.46869756356E+02  0.62684128042E+02  0.78296495890E+02  0.00000000000E+00 0.  1.
          2    1    1    2  501    0  0.21592050671E+02  0.86699437640E+01  0.29750641341E+02  0.37768839501E+02  0.00000000000E+00 0. -1.
<scales pt_clust_5="13000.00000" pt_clust_6="13000.00000" pt_clust_7="13000.00000" pt_clust_8="13000.00000" pt_clust_9="23.26767"></scales>
<clustering>
<clus scale="   23.268">  2  9  1 -1</clus>
<clus scale="   92.731">  5  6 -1 -1</clus>
<clus scale="   93.491">  7  8 -1 -1</clus>
<clus scale="  115.032">  2  5  1 -1</clus>
<clus scale="   23.268">  2  5  1 -1</clus>
</clustering>
</event>
<event>
 9    1  0.1464797E-005  0.9905484E+02  0.7546771E-02  0.1282353E+00
          3   -1    0    0  502    0 -0.00000000000E+00  0.00000000000E+00  0.42900538489E+03  0.42900538489E+03  0.00000000000E+00 0. -1.
         21   -1    0    0  501  502  0.00000000000E+00 -0.00000000000E+00 -0.63459935081E+02  0.63459935081E+02  0.00000000000E+00 0.  1.
         23    2    1    2    0    0 -0.27819361839E+02  0.19926565593E+02  0.29759734942E+03  0.31326134180E+03  0.91637879587E+02 0.  0.
         23    2    1    2    0    0  0.94932948530E+01 -0.66691088822E+02  0.59488931522E+02  0.12826948198E+03  0.91522145185E+02 0.  0.
        -13    1    3    3    0    0 -0.12450202283E+02 -0.36326002494E+02  0.95873975321E+02  0.10327828977E+03  0.00000000000E+00 0.  1.
         13    1    3    3    0    0 -0.15369159556E+02  0.56252568087E+02  0.20172337410E+03  0.20998305203E+03  0.00000000000E+00 0. -1.
        -13    1    4    4    0    0  0.43611264444E+02 -0.42563603080E+02  0.72434026968E+01  0.61368310847E+02  0.00000000000E+00 0.  1.
         13    1    4    4    0    0 -0.34117969591E+02 -0.24127485743E+02  0.52245528825E+02  0.66901171137E+02  0.00000000000E+00 0. -1.
          3    1    1    2  501    0  0.18326066986E+02  0.46764523230E+02  0.84591688689E+01  0.50934496189E+02  0.00000000000E+00 0. -1.
<scales pt_clust_5="13000.00000" pt_clust_6="13000.00000" pt_clust_7="13000.00000" pt_clust_8="13000.00000" pt_clust_9="50.22714"></scales>
<clustering>
<clus scale="   50.227">  2  9  1 -1</clus>
<clus scale="   91.522">  7  8 -1 -1</clus>
<clus scale="   91.638">  5  6 -1 -1</clus>
<clus scale="   98.948">  2  7  1 -1</clus>
<clus scale="   50.227">  2  5  1 -1</clus>
</clustering>
</event>
<event>
 9    1  0.1464797E-005  0.1082207E+03  0.7546771E-02  0.1267404E+00
         21   -1    0    0  501  502  0.00000000000E+00  0.00000000000E+00  0.14229068716E+03  0.14229068716E+03  0.00000000000E+00 0. -1.
          1   -1    0    0  502    0 -0.00000000000E+00 -0.00000000000E+00 -0.14605011621E+03  0.14605011621E+03  0.00000000000E+00 0. -1.
         23    2    1    2    0    0 -0.61099070472E+02 -0.18554878420E+02 -0.42460506924E+02  0.12466447618E+03  0.98290167608E+02 0.  0.
         23    2    1    2    0    0  0.27987657104E+02 -0.18070139848E+02 -0.67697995204E+01  0.96554360968E+02  0.90371873568E+02 0.  0.
        -13    1    4    4    0    0 -0.17946691083E+02  0.16970130815E+02 -0.25809864558E+02  0.35724195851E+02  0.00000000000E+00 0.  1.
         13    1    4    4    0    0  0.45934348187E+02 -0.35040270663E+02  0.19040065038E+02  0.60830165117E+02  0.00000000000E+00 0. -1.
        -13    1    3    3    0    0 -0.32916115451E+02  0.10949840737E+02  0.27100103641E+02  0.44020282665E+02  0.00000000000E+00 0.  1.
         13    1    3    3    0    0 -0.28182955020E+02 -0.29504719157E+02 -0.69560610565E+02  0.80644193519E+02  0.00000000000E+00 0. -1.
          1    1    1    2  501    0  0.33111413368E+02  0.36625018268E+02  0.45470877398E+02  0.67121966223E+02  0.00000000000E+00 0. -1.
<scales pt_clust_5="13000.00000" pt_clust_6="13000.00000" pt_clust_7="13000.00000" pt_clust_8="13000.00000" pt_clust_9="49.37365"></scales>
<clustering>
<clus scale="   49.374">  1  9  2 -1</clus>
<clus scale="   90.372">  5  6 -1 -1</clus>
<clus scale="   98.290">  7  8 -1 -1</clus>
<clus scale="  101.083">  1  5  2 -1</clus>
<clus scale="   49.374">  1  5  2 -1</clus>
</clustering>
</event>
<event>
 9    1  0.1464797E-005  0.1033183E+03  0.7546771E-02  0.1273843E+00
          1   -1    0    0  502    0 -0.00000000000E+00  0.00000000000E+00  0.26714502244E+03  0.26714502244E+03  0.00000000000E+00 0. -1.
         21   -1    0    0  501  502  0.00000000000E+00 -0.00000000000E+00 -0.42879116517E+03  0.42879116517E+03  0.00000000000E+00 0. -1.
         23    2    1    2    0    0 -0.18904036230E+02 -0.52574745085E+02  0.17187480398E+03  0.20209578446E+03  0.90444963630E+02 0.  0.
         23    2    1    2    0    0 -0.35981552994E+02  0.38330849248E+02  0.42482903865E+02  0.11358494675E+03  0.91284263970E+02 0.  0.
        -11    1    3    3    0    0  0.21776091439E+02 -0.26096271379E+02  0.13707805661E+02  0.36648567152E+02  0.00000000000E+00 0. -1.
         11    1    3    3    0    0 -0.40680127669E+02 -0.26478473706E+02  0.15816699832E+03  0.16544721731E+03  0.00000000000E+00 0.  1.
        -13    1    4    4    0    0 -0.58862526923E+01 -0.24765899619E+02 -0.87467371817E+01  0.26916596479E+02  0.00000000000E+00 0. -1.
         13    1    4    4    0    0 -0.30095300302E+02  0.63096748866E+02  0.51229641047E+02  0.86668350276E+02  0.00000000000E+00 0.  1.
          1    1    1    2  501    0  0.54885589224E+02  0.14243895837E+02 -0.37600385058E+03  0.38025545640E+03  0.00000000000E+00 0. -1.
<scales pt_clust_5="13000.00000" pt_clust_6="13000.00000" pt_clust_7="13000.00000" pt_clust_8="13000.00000" pt_clust_9="56.70376"></scales>
<clustering>
<clus scale="   56.704">  2  9  1 -1</clus>
<clus scale="   90.445">  5  6 -1 -1</clus>
<clus scale="   91.284">  7  8 -1 -1</clus>
<clus scale="  102.577">  1  5  2 -1</clus>
<clus scale="   56.704">  2  5  1 -1</clus>
</clustering>
</event>
<event>
 9    1  0.1464797E-005  0.1388332E+03  0.7546771E-02  0.1215054E+00
         -3   -1    0    0    0  501 -0.00000000000E+00  0.00000000000E+00  0.48971675394E+03  0.48971675394E+03  0.00000000000E+00 0.  1.
         21   -1    0    0  501  502  0.00000000000E+00 -0.00000000000E+00 -0.98474059216E+02  0.98474059216E+02  0.00000000000E+00 0. -1.
         23    2    1    2    0    0  0.42476392734E+02 -0.10145449152E+03  0.38441240393E+03  0.41044755324E+03  0.92720223677E+02 0.  0.
         23    2    1    2    0    0 -0.25012065795E+02  0.77456587766E+02  0.43681193056E+02  0.13042633803E+03  0.92075276815E+02 0.  0.
        -11    1    4    4    0    0 -0.20410290401E+02  0.98474188782E+02  0.30067893217E+02  0.10496582307E+03  0.00000000000E+00 0.  1.
         11    1    4    4    0    0 -0.46017753940E+01 -0.21017601017E+02  0.13613299839E+02  0.25460514955E+02  0.00000000000E+00 0. -1.
        -13    1    3    3    0    0  0.70553123082E+02 -0.75866577377E+02  0.31077713916E+03  0.32759107278E+03  0.00000000000E+00 0.  1.
         13    1    3    3    0    0 -0.28076730348E+02 -0.25587914147E+02  0.73635264764E+02  0.82856480460E+02  0.00000000000E+00 0. -1.
         -3    1    1    2    0  502 -0.17464326939E+02  0.23997903759E+02 -0.36850902255E+02  0.47316921892E+02  0.00000000000E+00 0.  1.
<scales pt_clust_5="13000.00000" pt_clust_6="13000.00000" pt_clust_7="13000.00000" pt_clust_8="13000.00000" pt_clust_9="29.67999"></scales>
<clustering>
<clus scale="   29.680">  2  9  1 -1</clus>
<clus scale="   92.075">  5  6 -1 -1</clus>
<clus scale="   92.720">  7  8 -1 -1</clus>
<clus scale="  138.403">  2  5  1 -1</clus>
<clus scale="   29.680">  2  5  1 -1</clus>
</clustering>
</event>
<event>
 9    1  0.1464797E-005  0.1040611E+03  0.7546771E-02  0.1272025E+00
          1   -1    0    0  502    0 -0.00000000000E+00  0.00000000000E+00  0.52151647182E+02  0.52151647182E+02  0.00000000000E+00 0. -1.
         21   -1    0    0  501  502  0.00000000000E+00 -0.00000000000E+00 -0.32217759589E+03  0.32217759589E+03  0.00000000000E+00 0. -1.
         23    2    1    2    0    0 -0.39801374076E+02 -0.15006832397E+02 -0.54292828625E+02  0.11450019442E+03  0.91396000381E+02 0.  0.
         23    2    1    2    0    0  0.50885176118E+02  0.39205689210E+02 -0.13762160382E+03  0.17730726781E+03  0.91497399788E+02 0.  0.
        -11    1    3    3    0    0 -0.10357473182E+02  0.38423425979E+02 -0.22169208113E+02  0.45553383003E+02  0.00000000000E+00 0.  1.
         11    1    3    3    0    0 -0.29443900894E+02 -0.53430258376E+02 -0.32123620511E+02  0.68946811418E+02  0.00000000000E+00 0. -1.
        -13    1    4    4    0    0  0.38219174450E+02 -0.22778119464E+02 -0.80950952238E+02  0.92372099089E+02  0.00000000000E+00 0.  1.
         13    1    4    4    0    0  0.12666001668E+02  0.61983808675E+02 -0.56670651577E+02  0.84935168725E+02  0.00000000000E+00 0. -1.
          1    1    1    2  501    0 -0.11083802042E+02 -0.24198856813E+02 -0.78111516267E+02  0.82521780836E+02  0.00000000000E+00 0. -1.
<scales pt_clust_5="13000.00000" pt_clust_6="13000.00000" pt_clust_7="13000.00000" pt_clust_8="13000.00000" pt_clust_9="26.61645"></scales>
<clustering>
<clus scale="   26.616">  2  9  1 -1</clus>
<clus scale="   91.396">  5  6 -1 -1</clus>
<clus scale="   91.497">  7  8 -1 -1</clus>
<clus scale="  103.972">  1  5  2 -1</clus>
<clus scale="   26.616">  2  5  1 -1</clus>
</clustering>
</event>
<event>
 9    1  0.1464797E-005  0.9742695E+02  0.7546771E-02  0.1286129E+00
         -1   -1    0    0    0  501 -0.00000000000E+00  0.00000000000E+00  0.67168211753E+02  0.67168211753E+02  0.00000000000E+00 0.  1.
         21   -1    0    0  501  502  0.00000000000E+00 -0.00000000000E+00 -0.52707950813E+03  0.52707950813E+03  0.00000000000E+00 0. -1.
         23    2    1    2    0    0 -0.77428809518E+01  0.89420728710E+01 -0.30660584060E+02  0.96891502966E+02  0.91148116050E+02 0.  0.
         23    2    1    2    0    0 -0.21522460843E+02 -0.81974444124E+02 -0.10348243609E+03  0.16222168083E+03  0.91783622409E+02 0.  0.
        -11    1    3    3    0    0 -0.14255149980E+02  0.49123435299E+02 -0.18762494138E+02  0.54482587887E+02  0.00000000000E+00 0. -1.
         11    1    3    3    0    0  0.65122690285E+01 -0.40181362428E+02 -0.11898089922E+02  0.42408915080E+02  0.00000000000E+00 0.  1.
        -13    1    4    4    0    0 -0.10045237401E+02 -0.17947419060E+02  0.16081976408E+02  0.26108362847E+02  0.00000000000E+00 0.  1.
         13    1    4    4    0    0 -0.11477223442E+02 -0.64027025064E+02 -0.11956441250E+03  0.13611331799E+03  0.00000000000E+00 0. -1.
         -1    1    1    2    0  502  0.29265341795E+02  0.73032371253E+02 -0.32576827623E+03  0.33513453609E+03  0.00000000000E+00 0.  1.
<scales pt_clust_5="13000.00000" pt_clust_6="13000.00000" pt_clust_7="13000.00000" pt_clust_8="13000.00000" pt_clust_9="78.67774"></scales>
<clustering>
<clus scale="   78.678">  2  9  1 -1</clus>
<clus scale="   91.148">  5  6 -1 -1</clus>
<clus scale="   91.784">  7  8 -1 -1</clus>
<clus scale="   96.828">  1  5  2 -1</clus>
<clus scale="   78.678">  2  5  1 -1</clus>
</clustering>
</event>
<event>
 9    1  0.1464797E-005  0.1033560E+03  0.7546771E-02  0.1274775E+00
          2   -1    0    0  502    0 -0.00000000000E+00  0.00000000000E+00  0.33644228377E+03  0.33644228377E+03  0.00000000000E+00 0. -1.
         21   -1    0    0  501  502  0.00000000000E+00 -0.00000000000E+00 -0.18377749565E+03  0.18377749565E+03  0.00000000000E+00 0. -1.
         23    2    1    2    0    0  0.34500558014E+02  0.21496018176E+02  0.26092289099E+03  0.28020516293E+03  0.93711317287E+02 0.  0.
         23    2    1    2    0    0 -0.84216778622E+02 -0.37652890960E+02 -0.12998772990E+03  0.18340256989E+03  0.90716518445E+02 0.  0.
        -11    1    3    3    0    0  0.59187390417E+02  0.26042025397E+02  0.23650685191E+03  0.24518732690E+03  0.00000000000E+00 0. -1.
         11    1    3    3    0    0 -0.24686832403E+02 -0.45460072213E+01  0.24416039079E+02  0.35017836028E+02  0.00000000000E+00 0.  1.
        -13    1    4    4    0    0 -0.51009055703E+02 -0.40349280399E+02 -0.13486708720E+03  0.14973015529E+03  0.00000000000E+00 0. -1.
         13    1    4    4    0    0 -0.33207722919E+02  0.26963894389E+01  0.48793573021E+01  0.33672414602E+02  0.00000000000E+00 0.  1.
          2    1    1    2  501    0  0.49716220608E+02  0.16156872785E+02  0.21729627027E+02  0.56612046602E+02  0.00000000000E+00 0. -1.
<scales pt_clust_5="13000.00000" pt_clust_6="13000.00000" pt_clust_7="13000.00000" pt_clust_8="13000.00000" pt_clust_9="52.27571"></scales>
<clustering>
<clus scale="   52.276">  2  9  1 -1</clus>
<clus scale="   90.717">  7  8 -1 -1</clus>
<clus scale="   93.711">  5  6 -1 -1</clus>
<clus scale="  100.649">  2  7  1 -1</clus>
<clus scale="   52.276">  2  5  1 -1</clus>
</clustering>
</event>
<event>
 9    1  0.1464797E-005  0.1618163E+03  0.7546771E-02  0.1205026E+00
         21   -1    0    0  501  502  0.00000000000E+00  0.00000000000E+00  0.21318533830E+03  0.21318533830E+03  0.00000000000E+00 0. -1.
          1   -1    0    0  502    0 -0.00000000000E+00 -0.00000000000E+00 -0.52508234426E+03  0.52508234426E+03  0.00000000000E+00 0. -1.
         23    2    1    2    0    0 -0.16329294460E+02  0.44170536223E+02 -0.26261878282E+03  0.28406619018E+03  0.97505349527E+02 0.  0.
         23    2    1    2    0    0  0.60934718168E+02  0.82441315622E+02 -0.20520984302E+03  0.24844708799E+03  0.95421514654E+02 0.  0.
        -13    1    3    3    0    0  0.30766554218E+02 -0.41062755372E+01 -0.35553317900E+02  0.47196194454E+02  0.00000000000E+00 0.  1.
         13    1    3    3    0    0 -0.47095848678E+02  0.48276811760E+02 -0.22706546492E+03  0.23686999573E+03  0.00000000000E+00 0. -1.
        -13    1    4    4    0    0 -0.16258067083E+02  0.54335426724E+02 -0.68257100753E+02  0.88745113363E+02  0.00000000000E+00 0.  1.
         13    1    4    4    0    0  0.77192785250E+02  0.28105888898E+02 -0.13695274226E+03  0.15970197462E+03  0.00000000000E+00 0. -1.
          1    1    1    2  501    0 -0.44605423707E+02 -0.12661185185E+03  0.15593161988E+03  0.20575440440E+03  0.00000000000E+00 0. -1.
<scales pt_clust_5="13000.00000" pt_clust_6="13000.00000" pt_clust_7="13000.00000" pt_clust_8="13000.00000" pt_clust_9="130.68757"></scales>
<clustering>
<clus scale="   95.422">  7  8 -1 -1</clus>
<clus scale="   97.505">  5  6 -1 -1</clus>
<clus scale="  108.282">  2  5  1 -1</clus>
<clus scale="  130.688">  1  9  2 -1</clus>
<clus scale="  130.688">  1  5  2 -1</clus>
</clustering>
</event>
<event>
 9    1  0.1464797E-005  0.1349748E+03  0.7546771E-02  0.1223067E+00
         21   -1    0    0  501  502  0.00000000000E+00  0.00000000000E+00  0.13340243173E+03  0.13340243173E+03  0.00000000000E+00 0. -1.
         -2   -1    0    0    0  501 -0.00000000000E+00 -0.00000000000E+00 -0.27779815516E+03  0.27779815516E+03  0.00000000000E+00 0.  1.
         23    2    1    2    0    0  0.72362475196E+02 -0.25350972429E+02 -0.15269171492E+03  0.20058148140E+03  0.10506746050E+03 0.  0.
         23    2    1    2    0    0 -0.11226325207E+03 -0.10415949467E+02 -0.22046187639E+02  0.14903994886E+03  0.94949155863E+02 0.  0.
        -13    1    3    3    0    0  0.22889022866E+02 -0.59427753727E+02 -0.47508665357E+02  0.79452114917E+02  0.00000000000E+00 0.  1.
         13    1    3    3    0    0  0.49473452330E+02  0.34076781299E+02 -0.10518304957E+03  0.12112936649E+03  0.00000000000E+00 0. -1.
        -13    1    4    4    0    0 -0.80911449502E+02 -0.36357499550E+02 -0.47917146457E+02  0.10081955841E+03  0.00000000000E+00 0.  1.
         13    1    4    4    0    0 -0.31351802564E+02  0.25941550082E+02  0.25870958818E+02  0.48220390447E+02  0.00000000000E+00 0. -1.
         -2    1    1    2    0  502  0.39900776870E+02  0.35766921896E+02  0.30342179136E+02  0.61579156632E+02  0.00000000000E+00 0.  1.
<scales pt_clust_5="13000.00000" pt_clust_6="13000.00000" pt_clust_7="13000.00000" pt_clust_8="13000.00000" pt_clust_9="53.58493"></scales>
<clustering>
<clus scale="   53.585">  1  9  2 -1</clus>
<clus scale="   94.949">  7  8 -1 -1</clus>
<clus scale="  105.067">  5  6 -1 -1</clus>
<clus scale="  127.257">  1  7  2 -1</clus>
<clus scale="   53.585">  1  5  2 -1</clus>
</clustering>
</event>
<event>
 9    1  0.1464797E-005  0.2556150E+03  0.7546771E-02  0.1109841E+00
          1   -1    0    0  502    0 -0.00000000000E+00  0.00000000000E+00  0.27894024509E+03  0.27894024509E+03  0.00000000000E+00 0. -1.
         21   -1    0    0  501  502  0.00000000000E+00 -0.00000000000E+00 -0.57293759859E+03  0.57293759859E+03  0.00000000000E+00 0. -1.
         23    2    1    2    0    0 -0.81382928179E+02 -0.26146543412E+03  0.93939699952E+02  0.30381741513E+03  0.92157475376E+02 0.  0.
         23    2    1    2    0    0 -0.45626657985E+02  0.18901672866E+03 -0.12890199247E+03  0.25060553664E+03  0.91533030638E+02 0.  0.
        -11    1    4    4    0    0 -0.16506417146E+02  0.10436012271E+03 -0.16547633429E+02  0.10694541220E+03  0.00000000000E+00 0. -1.
         11    1    4    4    0    0 -0.29120240839E+02  0.84656605958E+02 -0.11235435904E+03  0.14366012444E+03  0.00000000000E+00 0.  1.
        -11    1    3    3    0    0 -0.98343758506E+02 -0.24652585595E+03  0.92847484011E+02  0.28118881161E+03  0.00000000000E+00 0. -1.
         11    1    3    3    0    0  0.16960830328E+02 -0.14939578176E+02  0.10922159408E+01  0.22628603517E+02  0.00000000000E+00 0.  1.
          1    1    1    2  501    0  0.12700958616E+03  0.72448705459E+02 -0.25903506099E+03  0.29745489191E+03  0.00000000000E+00 0. -1.
<scales pt_clust_5="13000.00000" pt_clust_6="13000.00000" pt_clust_7="13000.00000" pt_clust_8="13000.00000" pt_clust_9="146.21987"></scales>
<clustering>
<clus scale="   91.533">  5  6 -1 -1</clus>
<clus scale="   92.157">  7  8 -1 -1</clus>
<clus scale="  146.220">  2  9  1 -1</clus>
<clus scale="  255.391">  2  5  1 -1</clus>
<clus scale="  146.220">  2  5  1 -1</clus>
</clustering>
</event>
<event>
 9    1  0.1464797E-005  0.1054997E+03  0.7546771E-02  0.1270474E+00
         -1   -1    0    0    0  501 -0.00000000000E+00  0.00000000000E+00  0.62926275461E+02  0.62926275461E+02  0.00000000000E+00 0.  1.
         21   -1    0    0  501  502  0.00000000000E+00 -0.00000000000E+00 -0.37059380003E+03  0.37059380003E+03  0.00000000000E+00 0.  1.
         23    2    1    2    0    0 -0.54560068785E+02  0.20110785782E+02 -0.43741035751E+02  0.11952197185E+03  0.94820771648E+02 0.  0.
         23    2    1    2    0    0  0.18845861425E+02 -0.31101603363E+02 -0.82261538702E+02  0.12852989402E+03  0.91817736212E+02 0.  0.
        -11    1    3    3    0    0 -0.33612660109E+02  0.49644019534E+02 -0.55250525066E+02  0.81528891291E+02  0.00000000000E+00 0.  1.
         11    1    3    3    0    0 -0.20947408676E+02 -0.29533233752E+02  0.11509489315E+02  0.37993080559E+02  0.00000000000E+00 0. -1.
        -13    1    4    4    0    0  0.48779497276E+02 -0.15590718232E+02 -0.79680016965E+02  0.94717553563E+02  0.00000000000E+00 0. -1.
         13    1    4    4    0    0 -0.29933635851E+02 -0.15510885131E+02 -0.25815217374E+01  0.33812340459E+02  0.00000000000E+00 0.  1.
         -1    1    1    2    0  502  0.35714207360E+02  0.10990817581E+02 -0.18166495011E+03  0.18546820962E+03  0.00000000000E+00 0.  1.
<scales pt_clust_5="13000.00000" pt_clust_6="13000.00000" pt_clust_7="13000.00000" pt_clust_8="13000.00000" pt_clust_9="37.36713"></scales>
<clustering>
<clus scale="   37.367">  2  9  1 -1</clus>
<clus scale="   91.818">  7  8 -1 -1</clus>
<clus scale="   94.821">  5  6 -1 -1</clus>
<clus scale="  102.809">  2  7  1 -1</clus>
<clus scale="   37.367">  2  5  1 -1</clus>
</clustering>
</event>
<event>
 9    1  0.1464797E-005  0.9668185E+02  0.7546771E-02  0.1288505E+00
         -1   -1    0    0    0  501 -0.00000000000E+00  0.00000000000E+00  0.37862005104E+02  0.37862005104E+02  0.00000000000E+00 0.  1.
         21   -1    0    0  501  502  0.00000000000E+00 -0.00000000000E+00 -0.33038843047E+03  0.33038843047E+03  0.00000000000E+00 0. -1.
         23    2    1    2    0    0 -0.22539129855E+02 -0.39314930301E+01 -0.91195674486E+02  0.13006829454E+03  0.89875698540E+02 0.  0.
         23    2    1    2    0    0  0.38561137527E+02  0.20185272871E+02 -0.18102806842E+03  0.20763563544E+03  0.91907502301E+02 0.  0.
        -11    1    4    4    0    0  0.44112534703E+02 -0.60387977899E+01 -0.28711946218E+02  0.52978850990E+02  0.00000000000E+00 0. -1.
         11    1    4    4    0    0 -0.55513971752E+01  0.26224070661E+02 -0.15231612221E+03  0.15465678445E+03  0.00000000000E+00 0.  1.
        -13    1    3    3    0    0  0.63896043503E+01  0.33846594795E+02 -0.98446290878E+01  0.35823675758E+02  0.00000000000E+00 0.  1.
         13    1    3    3    0    0 -0.28928734206E+02 -0.37778087825E+02 -0.81351045398E+02  0.94244618784E+02  0.00000000000E+00 0. -1.
         -1    1    1    2    0  502 -0.16022007672E+02 -0.16253779841E+02 -0.20302682461E+02  0.30546505595E+02  0.00000000000E+00 0.  1.
<scales pt_clust_5="13000.00000" pt_clust_6="13000.00000" pt_clust_7="13000.00000" pt_clust_8="13000.00000" pt_clust_9="22.82303"></scales>
<clustering>
<clus scale="   22.823">  2  9  1 -1</clus>
<clus scale="   89.876">  7  8 -1 -1</clus>
<clus scale="   91.908">  5  6 -1 -1</clus>
<clus scale="   94.752">  1  7  2 -1</clus>
<clus scale="   22.823">  2  5  1 -1</clus>
</clustering>
</event>
<event>
 9    1  0.1464797E-005  0.9373521E+02  0.7546771E-02  0.1296463E+00
         21   -1    0    0  501  502  0.00000000000E+00  0.00000000000E+00  0.59041033618E+02  0.59041033618E+02  0.00000000000E+00 0.  1.
          1   -1    0    0  502    0 -0.00000000000E+00 -0.00000000000E+00 -0.33131420449E+03  0.33131420449E+03  0.00000000000E+00 0. -1.
         23    2    1    2    0    0  0.40466260546E+01 -0.16287467291E+02 -0.22433378963E+03  0.24273348433E+03  0.91171478403E+02 0.  0.
         23    2    1    2    0    0 -0.42643564193E+02  0.24555408426E+02 -0.38277122288E+02  0.10698381913E+03  0.86942267140E+02 0.  0.
        -13    1    4    4    0    0  0.19090072139E+02 -0.70531827927E+01 -0.31224061752E+02  0.37270903854E+02  0.00000000000E+00 0. -1.
         13    1    4    4    0    0 -0.61733636333E+02  0.31608591219E+02 -0.70530605353E+01  0.69712915278E+02  0.00000000000E+00 0.  1.
        -13    1    3    3    0    0  0.31425339032E+02  0.19024669689E+02 -0.45900934609E+02  0.58791034930E+02  0.00000000000E+00 0.  1.
         13    1    3    3    0    0 -0.27378712977E+02 -0.35312136980E+02 -0.17843285502E+03  0.18394244940E+03  0.00000000000E+00 0. -1.
          1    1    1    2  501    0  0.38596938139E+02 -0.82679411347E+01 -0.96622589636E+01  0.40637934650E+02  0.00000000000E+00 0. -1.
<scales pt_clust_5="13000.00000" pt_clust_6="13000.00000" pt_clust_7="13000.00000" pt_clust_8="13000.00000" pt_clust_9="39.47255"></scales>
<clustering>
<clus scale="   39.473">  1  9  2 -1</clus>
<clus scale="   86.942">  5  6 -1 -1</clus>
<clus scale="   89.627">  1  5  2 -1</clus>
<clus scale="   91.171">  7  8 -1 -1</clus>
<clus scale="   39.473">  1  5  2 -1</clus>
</clustering>
</event>
<event>
 9    1  0.2289878E-005  0.9639949E+02  0.7546771E-02  0.1289402E+00
          1   -1    0    0  502    0 -0.00000000000E+00  0.00000000000E+00  0.31028784505E+03  0.31028784505E+03  0.00000000000E+00 0. -1.
         21   -1    0    0  501  502  0.00000000000E+00 -0.00000000000E+00 -0.14651386253E+03  0.14651386253E+03  0.00000000000E+00 0. -1.
         23    2    1    2    0    0  0.19722331869E+02 -0.24643734519E+02  0.24733384705E+03  0.26548232609E+03  0.91162215557E+02 0.  0.
         23    2    1    2    0    0  0.13503583955E+02  0.44722177564E+02 -0.11017624270E+01  0.10017968672E+03  0.88613406466E+02 0.  0.
        -13    1    3    3    0    0 -0.32911532291E+02 -0.26637830731E+02  0.87754008997E+02  0.97434640035E+02  0.00000000000E+00 0.  1.
         13    1    3    3    0    0  0.52633864159E+02  0.19940962117E+01  0.15957983805E+03  0.16804768606E+03  0.00000000000E+00 0. -1.
        -13    1    4    4    0    0 -0.20786363982E+02 -0.11391861087E+02 -0.20795526178E+02  0.31532544072E+02  0.00000000000E+00 0.  1.
         13    1    4    4    0    0  0.34289947937E+02  0.56114038652E+02  0.19693763751E+02  0.68647142650E+02  0.00000000000E+00 0. -1.
          1    1    1    2  501    0 -0.33225915823E+02 -0.20078443046E+02 -0.82458102111E+02  0.91139694761E+02  0.00000000000E+00 0. -1.
<scales pt_clust_5="13000.00000" pt_clust_6="13000.00000" pt_clust_7="13000.00000" pt_clust_8="13000.00000" pt_clust_9="38.82145"></scales>
<clustering>
<clus scale="   38.821">  2  9  1 -1</clus>
<clus scale="   88.613">  7  8 -1 -1</clus>
<clus scale="   91.162">  5  6 -1 -1</clus>
<clus scale="   93.993">  2  7  1 -1</clus>
<clus scale="   38.821">  2  5  1 -1</clus>
</clustering>
</event>
<event>
 9    1  0.1464797E-005  0.1095423E+03  0.7546771E-02  0.1262178E+00
         21   -1    0    0  501  502  0.00000000000E+00  0.00000000000E+00  0.69081520539E+03  0.69081520539E+03  0.00000000000E+00 0. -1.
         -1   -1    0    0    0  501 -0.00000000000E+00 -0.00000000000E+00 -0.25504453628E+02  0.25504453628E+02  0.00000000000E+00 0.  1.
         23    2    1    2    0    0 -0.38652759568E+01  0.43504478098E+02  0.23237531649E+03  0.25407737798E+03  0.93002399496E+02 0.  0.
         23    2    1    2    0    0  0.16167121042E+02 -0.71044728873E+02  0.23868038404E+03  0.26565940860E+03  0.91092625132E+02 0.  0.
        -11    1    4    4    0    0  0.16676247681E+02  0.12857353570E+02  0.12664542142E+02  0.24572330073E+02  0.00000000000E+00 0.  1.
         11    1    4    4    0    0 -0.50912663885E+00 -0.83902082443E+02  0.22601584189E+03  0.24108707853E+03  0.00000000000E+00 0. -1.
        -13    1    3    3    0    0  0.41412331527E+02  0.20152858538E+02  0.15281281428E+03  0.15960224032E+03  0.00000000000E+00 0.  1.
         13    1    3    3    0    0 -0.45277607484E+02  0.23351619560E+02  0.79562502218E+02  0.94475137654E+02  0.00000000000E+00 0. -1.
         -1    1    1    2    0  502 -0.12301845086E+02  0.27540250775E+02  0.19425505124E+03  0.19658287244E+03  0.00000000000E+00 0.  1.
<scales pt_clust_5="13000.00000" pt_clust_6="13000.00000" pt_clust_7="13000.00000" pt_clust_8="13000.00000" pt_clust_9="30.16290"></scales>
<clustering>
<clus scale="   30.163">  1  9  2 -1</clus>
<clus scale="   91.093">  5  6 -1 -1</clus>
<clus scale="   93.002">  7  8 -1 -1</clus>
<clus scale="  107.926">  1  5  2 -1</clus>
<clus scale="   30.163">  1  5  2 -1</clus>
</clustering>
</event>
<event>
 9    1  0.1464797E-005  0.1018634E+03  0.7546771E-02  0.1278930E+00
          1   -1    0    0  502    0 -0.00000000000E+00  0.00000000000E+00  0.87262886859E+02  0.87262886859E+02  0.00000000000E+00 0. -1.
         21   -1    0    0  501  502  0.00000000000E+00 -0.00000000000E+00 -0.26279414724E+03  0.26279414724E+03  0.00000000000E+00 0.  1.
         23    2    1    2    0    0 -0.14605167848E+02  0.55906853068E+02  0.23253318724E+01  0.10197891833E+03  0.83996461041E+02 0.  0.
         23    2    1    2    0    0 -0.10837129814E+02 -0.37971238315E+02 -0.38175403082E+02  0.10497035429E+03  0.89454768223E+02 0.  0.
        -11    1    3    3    0    0 -0.39518376933E+02  0.20328369516E+02 -0.24680645989E+02  0.50833837245E+02  0.00000000000E+00 0.  1.
         11    1    3    3    0    0  0.24913209085E+02  0.35578483552E+02  0.27005977862E+02  0.51145081084E+02  0.00000000000E+00 0. -1.
        -13    1    4    4    0    0  0.37467980816E+02 -0.31798053097E+01 -0.89491130497E+01  0.38652908980E+02  0.00000000000E+00 0. -1.
         13    1    4    4    0    0 -0.48305110630E+02 -0.34791433006E+02 -0.29226290033E+02  0.66317445312E+02  0.00000000000E+00 0.  1.
          1    1    1    2  501    0  0.25442297661E+02 -0.17935614753E+02 -0.13968118917E+03  0.14310776148E+03  0.00000000000E+00 0. -1.
<scales pt_clust_5="13000.00000" pt_clust_6="13000.00000" pt_clust_7="13000.00000" pt_clust_8="13000.00000" pt_clust_9="31.12871"></scales>
<clustering>
<clus scale="   31.129">  2  9  1 -1</clus>
<clus scale="   83.996">  5  6 -1 -1</clus>
<clus scale="   89.455">  7  8 -1 -1</clus>
<clus scale="   97.105">  1  5  2 -1</clus>
<clus scale="   31.129">  2  5  1 -1</clus>
</clustering>
</event>
<event>
 9    1  0.1464797E-005  0.1535929E+03  0.7546771E-02  0.1196758E+00
         -4   -1    0    0    0  501 -0.00000000000E+00  0.00000000000E+00  0.77131540238E+03  0.77131540238E+03  0.00000000000E+00 0.  1.
         21   -1    0    0  501  502  0.00000000000E+00 -0.00000000000E+00 -0.48776972208E+02  0.48776972208E+02  0.00000000000E+00 0. -1.
         23    2    1    2    0    0  0.63944841187E+01  0.13589306089E+03  0.51555217285E+03  0.54114777419E+03  0.92407019000E+02 0.  0.
         23    2    1    2    0    0  0.20581329322E+02 -0.92308843744E+02  0.11385520014E+03  0.17263998005E+03  0.88865304606E+02 0.  0.
        -11    1    3    3    0    0 -0.28214970403E+02  0.93819014973E+02  0.41885099485E+03  0.43015607402E+03  0.00000000000E+00 0. -1.
         11    1    3    3    0    0  0.34609454521E+02  0.42074045914E+02  0.96701177991E+02  0.11099170017E+03  0.00000000000E+00 0.  1.
        -11    1    4    4    0    0  0.18854704873E+02 -0.54933187270E+02  0.12130331933E+03  0.13449033512E+03  0.00000000000E+00 0.  1.
         11    1    4    4    0    0  0.17266244489E+01 -0.37375656475E+02 -0.74481191927E+01  0.38149644932E+02  0.00000000000E+00 0. -1.
         -4    1    1    2    0  502 -0.26975813441E+02 -0.43584217142E+02  0.93131057195E+02  0.10630462036E+03  0.00000000000E+00 0.  1.
<scales pt_clust_5="13000.00000" pt_clust_6="13000.00000" pt_clust_7="13000.00000" pt_clust_8="13000.00000" pt_clust_9="51.25698"></scales>
<clustering>
<clus scale="   51.257">  2  9  1 -1</clus>
<clus scale="   88.865">  7  8 -1 -1</clus>
<clus scale="   92.407">  5  6 -1 -1</clus>
<clus scale="  151.488">  2  7  1 -1</clus>
<clus scale="   51.257">  2  5  1 -1</clus>
</clustering>
</event>
<event>
 9    1  0.1464797E-005  0.9884829E+02  0.7546771E-02  0.1283708E+00
          2   -1    0    0  502    0 -0.00000000000E+00  0.00000000000E+00  0.63428654408E+03  0.63428654408E+03  0.00000000000E+00 0. -1.
         21   -1    0    0  501  502  0.00000000000E+00 -0.00000000000E+00 -0.32813578884E+02  0.32813578884E+02  0.00000000000E+00 0. -1.
         23    2    1    2    0    0 -0.27615972173E+02  0.58874600134E+01  0.42535312325E+03  0.43609826873E+03  0.91973455033E+02 0.  0.
         23    2    1    2    0    0  0.39528095650E+02 -0.24064022867E+02  0.78062014555E+02  0.13056469161E+03  0.93871790415E+02 0.  0.
        -13    1    4    4    0    0 -0.24133648960E+02  0.15963938012E+02  0.16017440910E+02  0.33073233018E+02  0.00000000000E+00 0.  1.
         13    1    4    4    0    0  0.63661744610E+02 -0.40027960879E+02  0.62044573646E+02  0.97491458589E+02  0.00000000000E+00 0. -1.
        -13    1    3    3    0    0  0.21440688182E+02  0.32874859511E+02  0.20648251710E+03  0.21017965973E+03  0.00000000000E+00 0.  1.
         13    1    3    3    0    0 -0.49056660355E+02 -0.26987399498E+02  0.21887060615E+03  0.22591860900E+03  0.00000000000E+00 0. -1.
          2    1    1    2  501    0 -0.11912123478E+02  0.18176562854E+02  0.98057827395E+02  0.10043716263E+03  0.00000000000E+00 0. -1.
<scales pt_clust_5="13000.00000" pt_clust_6="13000.00000" pt_clust_7="13000.00000" pt_clust_8="13000.00000" pt_clust_9="21.73216"></scales>
<clustering>
<clus scale="   21.732">  2  9  1 -1</clus>
<clus scale="   91.973">  7  8 -1 -1</clus>
<clus scale="   93.872">  5  6 -1 -1</clus>
<clus scale="   97.047">  1  7  2 -1</clus>
<clus scale="   21.732">  2  5  1 -1</clus>
</clustering>
</event>
<event>
 9    1  0.1464797E-005  0.1587118E+03  0.7546771E-02  0.1191580E+00
         -4   -1    0    0    0  501 -0.00000000000E+00  0.00000000000E+00  0.87895402699E+03  0.87895402699E+03  0.00000000000E+00 0. -1.
         21   -1    0    0  501  502  0.00000000000E+00 -0.00000000000E+00 -0.49234356537E+02  0.49234356537E+02  0.00000000000E+00 0. -1.
         23    2    1    2    0    0 -0.86624235232E+02 -0.80089379849E+02  0.51093498195E+03  0.53249937017E+03  0.92644247284E+02 0.  0.
         23    2    1    2    0    0  0.12163143254E+03  0.60414909510E+02  0.31218945090E+03  0.35499397920E+03  0.10056990275E+03 0.  0.
        -11    1    3    3    0    0  0.49566612754E+01 -0.40550645139E+02  0.24675949689E+03  0.25011831724E+03  0.00000000000E+00 0.  1.
         11    1    3    3    0    0 -0.91580896507E+02 -0.39538734710E+02  0.26417548506E+03  0.28238105293E+03  0.00000000000E+00 0. -1.
        -11    1    4    4    0    0  0.73009941289E+02  0.51940030663E+02  0.88550747395E+02  0.12597401786E+03  0.00000000000E+00 0.  1.
         11    1    4    4    0    0  0.48621491249E+02  0.84748788472E+01  0.22363870351E+03  0.22901996133E+03  0.00000000000E+00 0. -1.
         -4    1    1    2    0  502 -0.35007197307E+02  0.19674470339E+02  0.65952375985E+01  0.40695034161E+02  0.00000000000E+00 0. -1.
<scales pt_clust_5="13000.00000" pt_clust_6="13000.00000" pt_clust_7="13000.00000" pt_clust_8="13000.00000" pt_clust_9="40.15705"></scales>
<clustering>
<clus scale="   40.157">  2  9  1 -1</clus>
<clus scale="   92.644">  5  6 -1 -1</clus>
<clus scale="  100.570">  7  8 -1 -1</clus>
<clus scale="  153.812">  1  5  2 -1</clus>
<clus scale="   40.157">  2  5  1 -1</clus>
</clustering>
</event>
<event>
 9    1  0.1565295E-005  0.2665910E+03  0.7546771E-02  0.1137759E+00
         -1   -1    0    0    0  501 -0.00000000000E+00  0.00000000000E+00  0.15179420468E+03  0.15179420468E+03  0.00000000000E+00 0.  1.
         21   -1    0    0  501  502  0.00000000000E+00 -0.00000000000E+00 -0.14029721981E+04  0.14029721981E+04  0.00000000000E+00 0.  1.
         23    2    1    2    0    0 -0.56488098101E+02  0.35066837409E+02 -0.11984427496E+03  0.16439021248E+03  0.90779421702E+02 0.  0.
         23    2    1    2    0    0  0.26353612275E+03 -0.15922786023E+03 -0.10986654135E+03  0.34076672102E+03  0.96158732198E+02 0.  0.
        -11    1    3    3    0    0 -0.76912220259E+02  0.30514264402E+02 -0.63548828382E+02  0.10433150793E+03  0.00000000000E+00 0. -1.
         11    1    3    3    0    0  0.20424122159E+02  0.45525730069E+01 -0.56295446580E+02  0.60058704553E+02  0.00000000000E+00 0.  1.
        -13    1    4    4    0    0  0.23809824136E+03 -0.17160079005E+03 -0.10677228158E+03  0.31231062070E+03  0.00000000000E+00 0.  1.
         13    1    4    4    0    0  0.25437881390E+02  0.12372929824E+02 -0.30942597710E+01  0.28456100323E+02  0.00000000000E+00 0. -1.
         -1    1    1    2    0  502 -0.20704802465E+03  0.12416102282E+03 -0.10214671771E+04  0.10496094693E+04  0.00000000000E+00 0.  1.
<scales pt_clust_5="13000.00000" pt_clust_6="13000.00000" pt_clust_7="13000.00000" pt_clust_8="13000.00000" pt_clust_9="248.64489"></scales>
<clustering>
<clus scale="   90.779">  5  6 -1 -1</clus>
<clus scale="   96.159">  7  8 -1 -1</clus>
<clus scale="  112.523">  1  5  2 -1</clus>
<clus scale="  248.645">  2  9  1 -1</clus>
<clus scale="  248.645">  2  5  1 -1</clus>
</clustering>
</event>
<event>
 9    1  0.1464797E-005  0.1026586E+03  0.7546771E-02  0.1276211E+00
          1   -1    0    0  502    0 -0.00000000000E+00  0.00000000000E+00  0.16969907669E+03  0.16969907669E+03  0.00000000000E+00 0. -1.
         21   -1    0    0  501  502  0.00000000000E+00 -0.00000000000E+00 -0.13637761169E+03  0.13637761169E+03  0.00000000000E+00 0.  1.
         23    2    1    2    0    0  0.17929019814E+02 -0.35419756147E+02  0.54788660897E+02  0.11454732811E+03  0.92429887679E+02 0.  0.
         23    2    1    2    0    0 -0.46302265012E+02  0.27791020942E+02  0.48872319260E+02  0.11530019238E+03  0.89383388740E+02 0.  0.
        -13    1    3    3    0    0 -0.31378861569E+02 -0.38595166478E+02  0.37149864004E+02  0.62083268474E+02  0.00000000000E+00 0.  1.
         13    1    3    3    0    0  0.49307881384E+02  0.31754103307E+01  0.17638796893E+02  0.52464059633E+02  0.00000000000E+00 0. -1.
        -13    1    4    4    0    0 -0.32467290842E+02 -0.12017977232E+02 -0.15841944715E+02  0.38072614354E+02  0.00000000000E+00 0.  1.
         13    1    4    4    0    0 -0.13834974170E+02  0.39808998173E+02  0.64714263975E+02  0.77227578026E+02  0.00000000000E+00 0. -1.
          1    1    1    2  501    0  0.28373245198E+02  0.76287352054E+01 -0.70339515162E+02  0.76229167890E+02  0.00000000000E+00 0. -1.
<scales pt_clust_5="13000.00000" pt_clust_6="13000.00000" pt_clust_7="13000.00000" pt_clust_8="13000.00000" pt_clust_9="29.38092"></scales>
<clustering>
<clus scale="   29.381">  2  9  1 -1</clus>
<clus scale="   89.383">  7  8 -1 -1</clus>
<clus scale="   92.430">  5  6 -1 -1</clus>
<clus scale="   99.924">  2  7  1 -1</clus>
<clus scale="   29.381">  2  5  1 -1</clus>
</clustering>
</event>
<event>
 9    1  0.1464797E-005  0.9388985E+02  0.7546771E-02  0.1295666E+00
         21   -1    0    0  501  502  0.00000000000E+00  0.00000000000E+00  0.17603432356E+03  0.17603432356E+03  0.00000000000E+00 0.  1.
          3   -1    0    0  502    0 -0.00000000000E+00 -0.00000000000E+00 -0.21122981509E+03  0.21122981509E+03  0.00000000000E+00 0. -1.
         23    2    1    2    0    0  0.17137468315E+02  0.25956422391E+02 -0.16497179782E+03  0.18880308624E+03  0.86391449877E+02 0.  0.
         23    2    1    2    0    0  0.29840242908E+01 -0.83203497226E+01  0.30071981032E+02  0.95228993445E+02  0.89922769802E+02 0.  0.
        -11    1    3    3    0    0  0.18730934936E+02 -0.28051595539E+02 -0.92122144909E+02  0.98103157536E+02  0.00000000000E+00 0.  1.
         11    1    3    3    0    0 -0.15934666213E+01  0.54008017930E+02 -0.72849652914E+02  0.90699928700E+02  0.00000000000E+00 0. -1.
        -13    1    4    4    0    0  0.19757800432E+02 -0.41824893932E+02 -0.14273040271E+01  0.46278824825E+02  0.00000000000E+00 0. -1.
         13    1    4    4    0    0 -0.16773776141E+02  0.33504544210E+02  0.31499285059E+02  0.48950168621E+02  0.00000000000E+00 0.  1.
          3    1    1    2  501    0 -0.20121492606E+02 -0.17636072669E+02  0.99704325257E+02  0.10323205897E+03  0.00000000000E+00 0. -1.
<scales pt_clust_5="13000.00000" pt_clust_6="13000.00000" pt_clust_7="13000.00000" pt_clust_8="13000.00000" pt_clust_9="26.75641"></scales>
<clustering>
<clus scale="   26.756">  1  9  2 -1</clus>
<clus scale="   86.391">  5  6 -1 -1</clus>
<clus scale="   89.923">  7  8 -1 -1</clus>
<clus scale="   90.513">  2  5  1 -1</clus>
<clus scale="   26.756">  1  5  2 -1</clus>
</clustering>
</event>
<event>
 9    1  0.1464797E-005  0.1048578E+03  0.7546771E-02  0.1272529E+00
          1   -1    0    0  502    0 -0.00000000000E+00  0.00000000000E+00  0.56979817517E+03  0.56979817517E+03  0.00000000000E+00 0. -1.
         21   -1    0    0  501  502  0.00000000000E+00 -0.00000000000E+00 -0.46889229606E+02  0.46889229606E+02  0.00000000000E+00 0.  1.
         23    2    1    2    0    0  0.44155115317E+02  0.12661465684E+02  0.39595328264E+03  0.40821004532E+03  0.88013931506E+02 0.  0.
         23    2    1    2    0    0 -0.46734268151E+02 -0.41300344196E+02  0.13805119599E+03  0.17765612901E+03  0.92810329221E+02 0.  0.
        -11    1    3    3    0    0  0.65651120578E+02 -0.20502237982E+01  0.34257685639E+03  0.34881682239E+03  0.00000000000E+00 0.  1.
         11    1    3    3    0    0 -0.21496005261E+02  0.14711689482E+02  0.53376426259E+02  0.59393222928E+02  0.00000000000E+00 0. -1.
        -13    1    4    4    0    0  0.97191673618E+01 -0.37206743196E+02  0.13343483383E+02  0.40704453101E+02  0.00000000000E+00 0.  1.
         13    1    4    4    0    0 -0.56453435512E+02 -0.40936010000E+01  0.12470771261E+03  0.13695167591E+03  0.00000000000E+00 0. -1.
          1    1    1    2  501    0  0.25791528340E+01  0.28638878512E+02 -0.11095533077E+02  0.30821230443E+02  0.00000000000E+00 0. -1.
<scales pt_clust_5="13000.00000" pt_clust_6="13000.00000" pt_clust_7="13000.00000" pt_clust_8="13000.00000" pt_clust_9="28.75478"></scales>
<clustering>
<clus scale="   28.755">  2  9  1 -1</clus>
<clus scale="   88.014">  5  6 -1 -1</clus>
<clus scale="   92.810">  7  8 -1 -1</clus>
<clus scale="  100.637">  1  5  2 -1</clus>
<clus scale="   28.755">  2  5  1 -1</clus>
</clustering>
</event>
<event>
 9    1  0.1464797E-005  0.1010451E+03  0.7546771E-02  0.1283169E+00
          1   -1    0    0  502    0 -0.00000000000E+00  0.00000000000E+00  0.41530529826E+03  0.41530529826E+03  0.00000000000E+00 0. -1.
         21   -1    0    0  501  502  0.00000000000E+00 -0.00000000000E+00 -0.14020633122E+03  0.14020633122E+03  0.00000000000E+00 0. -1.
         23    2    1    2    0    0  0.14287063972E+02  0.73765278302E+01  0.24172068296E+03  0.26237880963E+03  0.10077310065E+03 0.  0.
         23    2    1    2    0    0  0.16791103228E+01  0.12642389246E+02  0.14867168372E+03  0.17503013671E+03  0.91485680844E+02 0.  0.
        -11    1    3    3    0    0  0.54255884580E+02  0.45669414986E+01  0.18560817910E+03  0.19342945514E+03  0.00000000000E+00 0.  1.
         11    1    3    3    0    0 -0.39968820608E+02  0.28095863316E+01  0.56112503857E+02  0.68949354495E+02  0.00000000000E+00 0. -1.
        -11    1    4    4    0    0 -0.18201613657E+02 -0.35282025466E+02  0.75903643026E+02  0.85659109762E+02  0.00000000000E+00 0.  1.
         11    1    4    4    0    0  0.19880723980E+02  0.47924414711E+02  0.72768040695E+02  0.89371026950E+02  0.00000000000E+00 0. -1.
          1    1    1    2  501    0 -0.15966174295E+02 -0.20018917076E+02 -0.11529339964E+03  0.11810268313E+03  0.00000000000E+00 0. -1.
<scales pt_clust_5="13000.00000" pt_clust_6="13000.00000" pt_clust_7="13000.00000" pt_clust_8="13000.00000" pt_clust_9="25.60617"></scales>
<clustering>
<clus scale="   25.606">  2  9  1 -1</clus>
<clus scale="   91.486">  7  8 -1 -1</clus>
<clus scale="   91.785">  2  7  1 -1</clus>
<clus scale="  100.773">  5  6 -1 -1</clus>
<clus scale="   25.606">  2  5  1 -1</clus>
</clustering>
</event>
<event>
 9    1  0.1464797E-005  0.1023186E+03  0.7546771E-02  0.1276169E+00
         21   -1    0    0  501  502  0.00000000000E+00  0.00000000000E+00  0.22166188573E+03  0.22166188573E+03  0.00000000000E+00 0. -1.
          1   -1    0    0  502    0 -0.00000000000E+00 -0.00000000000E+00 -0.10403212527E+03  0.10403212527E+03  0.00000000000E+00 0. -1.
         23    2    1    2    0    0  0.84712142915E+01 -0.62140388405E+02 -0.22727626792E+02  0.11287701473E+03  0.91057597656E+02 0.  0.
         23    2    1    2    0    0  0.12802526703E+02  0.12276968911E+02  0.47992939274E+02  0.10571833190E+03  0.92511701009E+02 0.  0.
        -11    1    3    3    0    0 -0.32714333949E+02 -0.43194419497E+02  0.12328622876E+02  0.55569600174E+02  0.00000000000E+00 0.  1.
         11    1    3    3    0    0  0.41185548241E+02 -0.18945968908E+02 -0.35056249668E+02  0.57307414551E+02  0.00000000000E+00 0. -1.
        -13    1    4    4    0    0 -0.19293946668E+02 -0.32448475482E+02  0.28564433747E+02  0.47340118445E+02  0.00000000000E+00 0.  1.
         13    1    4    4    0    0  0.32096473371E+02  0.44725444393E+02  0.19428505528E+02  0.58378213454E+02  0.00000000000E+00 0. -1.
          1    1    1    2  501    0 -0.21273740995E+02  0.49863419494E+02  0.92364447976E+02  0.10709866437E+03  0.00000000000E+00 0. -1.
<scales pt_clust_5="13000.00000" pt_clust_6="13000.00000" pt_clust_7="13000.00000" pt_clust_8="13000.00000" pt_clust_9="54.21192"></scales>
<clustering>
<clus scale="   54.212">  1  9  2 -1</clus>
<clus scale="   91.058">  5  6 -1 -1</clus>
<clus scale="   92.512">  7  8 -1 -1</clus>
<clus scale="  101.006">  2  5  1 -1</clus>
<clus scale="   54.212">  1  5  2 -1</clus>
</clustering>
</event>
<event>
 9    1  0.1464797E-005  0.9723534E+02  0.7546771E-02  0.1288048E+00
         21   -1    0    0  501  502  0.00000000000E+00  0.00000000000E+00  0.88222376683E+02  0.88222376683E+02  0.00000000000E+00 0. -1.
         -3   -1    0    0    0  501 -0.00000000000E+00 -0.00000000000E+00 -0.17523202149E+03  0.17523202149E+03  0.00000000000E+00 0.  1.
         23    2    1    2    0    0 -0.48836757622E+01 -0.75061913936E+01 -0.86104393395E+02  0.12994668683E+03  0.96912236885E+02 0.  0.
         23    2    1    2    0    0  0.12886750737E+02 -0.14282072307E+02 -0.26281402576E+02  0.99116917626E+02  0.93613061612E+02 0.  0.
        -11    1    4    4    0    0  0.31821617100E+01  0.34261461909E+02  0.12102498365E+02  0.36475257257E+02  0.00000000000E+00 0. -1.
         11    1    4    4    0    0  0.97045890272E+01 -0.48543534216E+02 -0.38383900941E+02  0.62641660369E+02  0.00000000000E+00 0.  1.
        -13    1    3    3    0    0 -0.89235095739E+01  0.38539537229E+02 -0.98339535742E+01  0.40763115630E+02  0.00000000000E+00 0. -1.
         13    1    3    3    0    0  0.40398338117E+01 -0.46045728623E+02 -0.76270439821E+02  0.89183571201E+02  0.00000000000E+00 0.  1.
         -3    1    1    2    0  502 -0.80030749750E+01  0.21788263700E+02  0.25376151168E+02  0.34390793713E+02  0.00000000000E+00 0.  1.
<scales pt_clust_5="13000.00000" pt_clust_6="13000.00000" pt_clust_7="13000.00000" pt_clust_8="13000.00000" pt_clust_9="23.21158"></scales>
<clustering>
<clus scale="   23.212">  1  9  2 -1</clus>
<clus scale="   93.613">  5  6 -1 -1</clus>
<clus scale="   93.948">  1  5  2 -1</clus>
<clus scale="   96.912">  7  8 -1 -1</clus>
<clus scale="   23.212">  1  5  2 -1</clus>
</clustering>
</event>
<event>
 9    1  0.1464797E-005  0.1001306E+03  0.7546771E-02  0.1280189E+00
         21   -1    0    0  501  502  0.00000000000E+00  0.00000000000E+00  0.16397409572E+03  0.16397409572E+03  0.00000000000E+00 0. -1.
         -3   -1    0    0    0  501 -0.00000000000E+00 -0.00000000000E+00 -0.78724520993E+02  0.78724520993E+02  0.00000000000E+00 0.  1.
         23    2    1    2    0    0  0.62517373766E+01 -0.50896584397E+02  0.25440294396E+02  0.10739361443E+03  0.90866018495E+02 0.  0.
         23    2    1    2    0    0 -0.26808266560E+01  0.31036365789E+02  0.33278269333E+02  0.10197222216E+03  0.91216490005E+02 0.  0.
        -11    1    4    4    0    0  0.36655008968E+02  0.33556684505E+02  0.37603614786E+02  0.62319119076E+02  0.00000000000E+00 0. -1.
         11    1    4    4    0    0 -0.39335835624E+02 -0.25203187166E+01 -0.43253454530E+01  0.39653103081E+02  0.00000000000E+00 0.  1.
        -13    1    3    3    0    0  0.29615502608E+02 -0.52685335210E+02  0.46211109480E+02  0.76080806911E+02  0.00000000000E+00 0. -1.
         13    1    3    3    0    0 -0.23363765231E+02  0.17887508125E+01 -0.20770815083E+02  0.31312807515E+02  0.00000000000E+00 0.  1.
         -3    1    1    2    0  502 -0.35709107206E+01  0.19860218609E+02  0.26531010996E+02  0.33332780127E+02  0.00000000000E+00 0.  1.
<scales pt_clust_5="13000.00000" pt_clust_6="13000.00000" pt_clust_7="13000.00000" pt_clust_8="13000.00000" pt_clust_9="20.17869"></scales>
<clustering>
<clus scale="   20.179">  1  9  2 -1</clus>
<clus scale="   90.866">  7  8 -1 -1</clus>
<clus scale="   91.216">  5  6 -1 -1</clus>
<clus scale="   99.811">  2  7  1 -1</clus>
<clus scale="   20.179">  1  5  2 -1</clus>
</clustering>
</event>
<event>
 9    1  0.1464797E-005  0.1291714E+03  0.7546771E-02  0.1228935E+00
         21   -1    0    0  501  502  0.00000000000E+00  0.00000000000E+00  0.24427897866E+03  0.24427897866E+03  0.00000000000E+00 0. -1.
          3   -1    0    0  502    0 -0.00000000000E+00 -0.00000000000E+00 -0.16451893481E+03  0.16451893481E+03  0.00000000000E+00 0. -1.
         23    2    1    2    0    0 -0.10175002129E+03  0.38822221657E+02 -0.88472082445E+02  0.16705694181E+03  0.90666866647E+02 0.  0.
         23    2    1    2    0    0  0.34309210135E+02 -0.38321352397E+02  0.80411198793E+02  0.13101143998E+03  0.89735102181E+02 0.  0.
        -13    1    3    3    0    0 -0.74425120515E+02 -0.13347622589E+02 -0.75295304722E+02  0.10670820262E+03  0.00000000000E+00 0. -1.
         13    1    3    3    0    0 -0.27324900777E+02  0.52169844246E+02 -0.13176777723E+02  0.60348739194E+02  0.00000000000E+00 0.  1.
        -13    1    4    4    0    0  0.49727648144E+02 -0.18423680852E+02  0.89680539388E+02  0.10418670813E+03  0.00000000000E+00 0.  1.
         13    1    4    4    0    0 -0.15418438008E+02 -0.19897671544E+02 -0.92693405946E+01  0.26824731845E+02  0.00000000000E+00 0. -1.
          3    1    1    2  501    0  0.67440811157E+02 -0.50086926069E+00  0.87820927508E+02  0.11072953169E+03  0.00000000000E+00 0. -1.
<scales pt_clust_5="13000.00000" pt_clust_6="13000.00000" pt_clust_7="13000.00000" pt_clust_8="13000.00000" pt_clust_9="67.44267"></scales>
<clustering>
<clus scale="   67.443">  1  9  2 -1</clus>
<clus scale="   89.735">  7  8 -1 -1</clus>
<clus scale="   90.667">  5  6 -1 -1</clus>
<clus scale="  128.519">  1  7  2 -1</clus>
<clus scale="   67.443">  1  5  2 -1</clus>
</clustering>
</event>
<event>
 9    1  0.1464797E-005  0.1166561E+03  0.7546771E-02  0.1249367E+00
         21   -1    0    0  501  502  0.00000000000E+00  0.00000000000E+00  0.65007324916E+03  0.65007324916E+03  0.00000000000E+00 0.  1.
          4   -1    0    0  502    0 -0.00000000000E+00 -0.00000000000E+00 -0.35391168289E+02  0.35391168289E+02  0.00000000000E+00 0. -1.
         23    2    1    2    0    0 -0.11479897567E+02  0.66268240145E+02  0.12500469067E+03  0.16952670890E+03  0.92681522661E+02 0.  0.
         23    2    1    2    0    0 -0.25240465984E+02 -0.73088171426E+02  0.32800768530E+03  0.35001004344E+03  0.94546427598E+02 0.  0.
        -11    1    3    3    0    0 -0.27217983210E+02 -0.12821972193E+02  0.55213551141E+02  0.62878913879E+02  0.00000000000E+00 0.  1.
         11    1    3    3    0    0  0.15738085643E+02  0.79090212338E+02  0.69791139528E+02  0.10664779503E+03  0.00000000000E+00 0. -1.
        -13    1    4    4    0    0 -0.41009883436E+02 -0.88650338902E+02  0.23688603289E+03  0.25623365452E+03  0.00000000000E+00 0.  1.
         13    1    4    4    0    0  0.15769417451E+02  0.15562167477E+02  0.91121652402E+02  0.93776388925E+02  0.00000000000E+00 0. -1.
          4    1    1    2  501    0  0.36720363552E+02  0.68199312806E+01  0.16166970491E+03  0.16592766510E+03  0.00000000000E+00 0. -1.
<scales pt_clust_5="13000.00000" pt_clust_6="13000.00000" pt_clust_7="13000.00000" pt_clust_8="13000.00000" pt_clust_9="37.34831"></scales>
<clustering>
<clus scale="   37.348">  1  9  2 -1</clus>
<clus scale="   92.682">  5  6 -1 -1</clus>
<clus scale="   94.546">  7  8 -1 -1</clus>
<clus scale="  115.150">  2  5  1 -1</clus>
<clus scale="   37.348">  1  5  2 -1</clus>
</clustering>
</event>
<event>
 9    1  0.1464797E-005  0.1117264E+03  0.7546771E-02  0.1258670E+00
          2   -1    0    0  502    0 -0.00000000000E+00  0.00000000000E+00  0.80044537866E+03  0.80044537866E+03  0.00000000000E+00 0. -1.
         21   -1    0    0  501  502  0.00000000000E+00 -0.00000000000E+00 -0.27227776707E+02  0.27227776707E+02  0.00000000000E+00 0. -1.
         23    2    1    2    0    0 -0.53407808908E+02 -0.54390367878E+02  0.42217918580E+03  0.43896019585E+03  0.92952043839E+02 0.  0.
         23    2    1    2    0    0  0.17328032636E+02  0.29682572589E+02  0.12048395580E+03  0.15404812492E+03  0.89627704177E+02 0.  0.
        -11    1    3    3    0    0 -0.40467491465E+02 -0.76879260623E+02  0.37680807220E+03  0.38669414510E+03  0.00000000000E+00 0.  1.
         11    1    3    3    0    0 -0.12940317443E+02  0.22488892745E+02  0.45371113596E+02  0.52266050753E+02  0.00000000000E+00 0. -1.
        -11    1    4    4    0    0  0.54052703036E+02  0.16233589545E+02  0.78346721168E+02  0.96557924857E+02  0.00000000000E+00 0.  1.
         11    1    4    4    0    0 -0.36724670401E+02  0.13448983044E+02  0.42137234630E+02  0.57490200062E+02  0.00000000000E+00 0. -1.
          2    1    1    2  501    0  0.36079776272E+02  0.24707795289E+02  0.23055446036E+03  0.23466483460E+03  0.00000000000E+00 0. -1.
<scales pt_clust_5="13000.00000" pt_clust_6="13000.00000" pt_clust_7="13000.00000" pt_clust_8="13000.00000" pt_clust_9="43.72902"></scales>
<clustering>
<clus scale="   43.729">  2  9  1 -1</clus>
<clus scale="   89.628">  7  8 -1 -1</clus>
<clus scale="   92.952">  5  6 -1 -1</clus>
<clus scale="  108.976">  2  7  1 -1</clus>
<clus scale="   43.729">  2  5  1 -1</clus>
</clustering>
</event>
<event>
 9    1  0.1464797E-005  0.2130441E+03  0.7546771E-02  0.1139197E+00
         21   -1    0    0  501  502  0.00000000000E+00  0.00000000000E+00  0.52326472353E+02  0.52326472353E+02  0.00000000000E+00 0. -1.
          2   -1    0    0  502    0 -0.00000000000E+00 -0.00000000000E+00 -0.11080071149E+04  0.11080071149E+04  0.00000000000E+00 0. -1.
         23    2    1    2    0    0  0.12634725239E+03  0.12903413245E+03 -0.46558235580E+03  0.50758168450E+03  0.90877944961E+02 0.  0.
         23    2    1    2    0    0 -0.17378616769E+03 -0.11851997482E+03 -0.45994113107E+03  0.51382068464E+03  0.90648967995E+02 0.  0.
        -13    1    3    3    0    0 -0.77831984075E+00  0.43474969833E+02 -0.60661552595E+02  0.74635800706E+02  0.00000000000E+00 0.  1.
         13    1    3    3    0    0  0.12712557223E+03  0.85559162618E+02 -0.40492080321E+03  0.43294588380E+03  0.00000000000E+00 0. -1.
        -13    1    4    4    0    0 -0.16084046443E+03 -0.69594787856E+02 -0.31749824581E+03  0.36265441620E+03  0.00000000000E+00 0. -1.
         13    1    4    4    0    0 -0.12945703255E+02 -0.48925186966E+02 -0.14244288526E+03  0.15116626844E+03  0.00000000000E+00 0.  1.
          2    1    1    2  501    0  0.47438915292E+02 -0.10514157630E+02 -0.13015715569E+03  0.13893121814E+03  0.00000000000E+00 0. -1.
<scales pt_clust_5="13000.00000" pt_clust_6="13000.00000" pt_clust_7="13000.00000" pt_clust_8="13000.00000" pt_clust_9="48.59013"></scales>
<clustering>
<clus scale="   48.590">  1  9  2 -1</clus>
<clus scale="   90.649">  7  8 -1 -1</clus>
<clus scale="   90.878">  5  6 -1 -1</clus>
<clus scale="  212.947">  1  7  2 -1</clus>
<clus scale="   48.590">  1  5  2 -1</clus>
</clustering>
</event>
<event>
 9    1  0.1464797E-005  0.1228584E+03  0.7546771E-02  0.1238670E+00
          3   -1    0    0  502    0 -0.00000000000E+00  0.00000000000E+00  0.18532537420E+03  0.18532537420E+03  0.00000000000E+00 0. -1.
         21   -1    0    0  501  502  0.00000000000E+00 -0.00000000000E+00 -0.12202608492E+03  0.12202608492E+03  0.00000000000E+00 0. -1.
         23    2    1    2    0    0 -0.56486119094E+02 -0.50376474163E+02  0.77135437541E+02  0.14080051125E+03  0.90257617097E+02 0.  0.
         23    2    1    2    0    0  0.77462051952E+02  0.63965220638E+02 -0.27155950722E+02  0.13823026765E+03  0.90984846497E+02 0.  0.
        -11    1    4    4    0    0  0.54209692736E+02 -0.12476017186E+02 -0.10311151966E+02  0.56574390374E+02  0.00000000000E+00 0. -1.
         11    1    4    4    0    0  0.23252359216E+02  0.76441237824E+02 -0.16844798756E+02  0.81655877280E+02  0.00000000000E+00 0.  1.
        -13    1    3    3    0    0 -0.35604635118E+02  0.22017997559E+02  0.34367629539E+02  0.54162867524E+02  0.00000000000E+00 0.  1.
         13    1    3    3    0    0 -0.20881483976E+02 -0.72394471722E+02  0.42767808003E+02  0.86637643725E+02  0.00000000000E+00 0. -1.
          3    1    1    2  501    0 -0.20975932858E+02 -0.13588746475E+02  0.13319802467E+02  0.28320680215E+02  0.00000000000E+00 0. -1.
<scales pt_clust_5="13000.00000" pt_clust_6="13000.00000" pt_clust_7="13000.00000" pt_clust_8="13000.00000" pt_clust_9="24.99289"></scales>
<clustering>
<clus scale="   24.993">  2  9  1 -1</clus>
<clus scale="   90.258">  7  8 -1 -1</clus>
<clus scale="   90.985">  5  6 -1 -1</clus>
<clus scale="  122.321">  1  7  2 -1</clus>
<clus scale="   24.993">  2  5  1 -1</clus>
</clustering>
</event>
<event>
 9    1  0.1464797E-005  0.9293769E+02  0.7546771E-02  0.1296347E+00
          1   -1    0    0  502    0 -0.00000000000E+00  0.00000000000E+00  0.85988470979E+02  0.85988470979E+02  0.00000000000E+00 0. -1.
         21   -1    0    0  501  502  0.00000000000E+00 -0.00000000000E+00 -0.55406997089E+03  0.55406997089E+03  0.00000000000E+00 0. -1.
         23    2    1    2    0    0 -0.11105418245E+02  0.14647722257E+02  0.49389973504E+02  0.10552539441E+03  0.91424030212E+02 0.  0.
         23    2    1    2    0    0 -0.27331406399E+02 -0.10978362406E+02 -0.37591435028E+03  0.38780447901E+03  0.90626623992E+02 0.  0.
        -13    1    4    4    0    0  0.23233773368E+02  0.24313324085E+02 -0.13296396288E+03  0.13715087086E+03  0.00000000000E+00 0.  1.
         13    1    4    4    0    0 -0.50565179767E+02 -0.35291686491E+02 -0.24295038740E+03  0.25065360815E+03  0.00000000000E+00 0. -1.
        -13    1    3    3    0    0 -0.42234684032E+02  0.14081596969E+02 -0.29579020779E+01  0.44618483762E+02  0.00000000000E+00 0.  1.
         13    1    3    3    0    0  0.31129265788E+02  0.56612528830E+00  0.52347875582E+02  0.60906910645E+02  0.00000000000E+00 0. -1.
          1    1    1    2  501    0  0.38436824644E+02 -0.36693598508E+01 -0.14155712313E+03  0.14672856845E+03  0.00000000000E+00 0. -1.
<scales pt_clust_5="13000.00000" pt_clust_6="13000.00000" pt_clust_7="13000.00000" pt_clust_8="13000.00000" pt_clust_9="38.61157"></scales>
<clustering>
<clus scale="   38.612">  2  9  1 -1</clus>
<clus scale="   90.627">  5  6 -1 -1</clus>
<clus scale="   91.424">  7  8 -1 -1</clus>
<clus scale="   92.153">  2  5  1 -1</clus>
<clus scale="   38.612">  2  5  1 -1</clus>
</clustering>
</event>
<event>
 9    1  0.1464797E-005  0.9659506E+02  0.7546771E-02  0.1287628E+00
         -3   -1    0    0    0  501 -0.00000000000E+00  0.00000000000E+00  0.55910555810E+03  0.55910555810E+03  0.00000000000E+00 0.  1.
         21   -1    0    0  501  502  0.00000000000E+00 -0.00000000000E+00 -0.24751915746E+02  0.24751915746E+02  0.00000000000E+00 0. -1.
         23    2    1    2    0    0  0.37182763282E+02  0.16157531374E+02  0.27805629543E+03  0.29569716306E+03  0.92075431616E+02 0.  0.
         23    2    1    2    0    0 -0.10295201270E+02 -0.17420826873E+02  0.23694818004E+03  0.25501024042E+03  0.92066857860E+02 0.  0.
        -11    1    3    3    0    0  0.13903633780E+02 -0.26248827410E+02  0.27386571690E+02  0.40402181644E+02  0.00000000000E+00 0.  1.
         11    1    3    3    0    0  0.23279129501E+02  0.42406358784E+02  0.25066972374E+03  0.25529498141E+03  0.00000000000E+00 0. -1.
        -13    1    4    4    0    0 -0.42592182490E+02 -0.28765091360E+02  0.85643439286E+02  0.99881545758E+02  0.00000000000E+00 0.  1.
         13    1    4    4    0    0  0.32296981221E+02  0.11344264486E+02  0.15130474075E+03  0.15512869466E+03  0.00000000000E+00 0. -1.
         -3    1    1    2    0  502 -0.26887562012E+02  0.12632954995E+01  0.19349166891E+02  0.33150070374E+02  0.00000000000E+00 0.  1.
<scales pt_clust_5="13000.00000" pt_clust_6="13000.00000" pt_clust_7="13000.00000" pt_clust_8="13000.00000" pt_clust_9="26.91722"></scales>
<clustering>
<clus scale="   26.917">  2  9  1 -1</clus>
<clus scale="   92.067">  7  8 -1 -1</clus>
<clus scale="   92.075">  5  6 -1 -1</clus>
<clus scale="   96.587">  2  7  1 -1</clus>
<clus scale="   26.917">  2  5  1 -1</clus>
</clustering>
</event>
<event>
 9    1  0.1464797E-005  0.1021541E+03  0.7546771E-02  0.1284505E+00
          3   -1    0    0  502    0 -0.00000000000E+00  0.00000000000E+00  0.26868795735E+03  0.26868795735E+03  0.00000000000E+00 0. -1.
         21   -1    0    0  501  502  0.00000000000E+00 -0.00000000000E+00 -0.58441460737E+02  0.58441460737E+02  0.00000000000E+00 0.  1.
         23    2    1    2    0    0  0.30274346968E+02 -0.25026696991E+02  0.14372797379E+03  0.16734172949E+03  0.76175142488E+02 0.  0.
         23    2    1    2    0    0 -0.20347065390E+02  0.44066762440E+02  0.81864787183E+02  0.13339483272E+03  0.93469007659E+02 0.  0.
        -13    1    4    4    0    0  0.18955185984E+02  0.11769217930E+02 -0.12948396392E+02  0.25796793124E+02  0.00000000000E+00 0.  1.
         13    1    4    4    0    0 -0.39302251373E+02  0.32297544511E+02  0.94813183575E+02  0.10759803959E+03  0.00000000000E+00 0. -1.
        -13    1    3    3    0    0  0.34421807547E+02 -0.49246226896E+02  0.89390528872E+02  0.10770663095E+03  0.00000000000E+00 0. -1.
         13    1    3    3    0    0 -0.41474605786E+01  0.24219529905E+02  0.54337444915E+02  0.59635098541E+02  0.00000000000E+00 0.  1.
          3    1    1    2  501    0 -0.99272815787E+01 -0.19040065449E+02 -0.15346264357E+02  0.26392855882E+02  0.00000000000E+00 0. -1.
<scales pt_clust_5="13000.00000" pt_clust_6="13000.00000" pt_clust_7="13000.00000" pt_clust_8="13000.00000" pt_clust_9="21.47266"></scales>
<clustering>
<clus scale="   21.473">  2  9  1 -1</clus>
<clus scale="   76.175">  7  8 -1 -1</clus>
<clus scale="   86.612">  1  7  2 -1</clus>
<clus scale="   93.469">  5  6 -1 -1</clus>
<clus scale="   21.473">  2  5  1 -1</clus>
</clustering>
</event>
<event>
 9    1  0.1464797E-005  0.3106462E+03  0.7546771E-02  0.1080049E+00
          2   -1    0    0  502    0 -0.00000000000E+00  0.00000000000E+00  0.24525133710E+03  0.24525133710E+03  0.00000000000E+00 0. -1.
         21   -1    0    0  501  502  0.00000000000E+00 -0.00000000000E+00 -0.79308643615E+03  0.79308643615E+03  0.00000000000E+00 0. -1.
         23    2    1    2    0    0  0.20978414033E+03  0.18759419298E+03 -0.65722405468E+02  0.30279422834E+03  0.90354542573E+02 0.  0.
         23    2    1    2    0    0 -0.35432937236E+03 -0.80296282350E+02 -0.34618778500E+03  0.50997371868E+03  0.90721630183E+02 0.  0.
        -11    1    4    4    0    0 -0.32815457876E+03 -0.47480477744E+02 -0.31795960008E+03  0.45938886644E+03  0.00000000000E+00 0. -1.
         11    1    4    4    0    0 -0.26174793600E+02 -0.32815804606E+02 -0.28228184925E+02  0.50584852240E+02  0.00000000000E+00 0.  1.
        -13    1    3    3    0    0  0.74219894764E+02  0.12374536952E+03 -0.47125293240E+02  0.15179691209E+03  0.00000000000E+00 0.  1.
         13    1    3    3    0    0  0.13556424557E+03  0.63848823460E+02 -0.18597112228E+02  0.15099731626E+03  0.00000000000E+00 0. -1.
          2    1    1    2  501    0  0.14454523203E+03 -0.10729791063E+03 -0.13592490858E+03  0.22556982622E+03  0.00000000000E+00 0. -1.
<scales pt_clust_5="13000.00000" pt_clust_6="13000.00000" pt_clust_7="13000.00000" pt_clust_8="13000.00000" pt_clust_9="180.01713"></scales>
<clustering>
<clus scale="   90.355">  7  8 -1 -1</clus>
<clus scale="   90.722">  5  6 -1 -1</clus>
<clus scale="  180.017">  2  9  1 -1</clus>
<clus scale="  310.539">  1  7  2 -1</clus>
<clus scale="  180.017">  2  5  1 -1</clus>
</clustering>
</event>
<event>
 9    1  0.1464797E-005  0.2004035E+03  0.7546771E-02  0.1177794E+00
          1   -1    0    0  502    0 -0.00000000000E+00  0.00000000000E+00  0.10110621250E+04  0.10110621250E+04  0.00000000000E+00 0. -1.
         21   -1    0    0  501  502  0.00000000000E+00 -0.00000000000E+00 -0.13919663747E+03  0.13919663747E+03  0.00000000000E+00 0. -1.
         23    2    1    2    0    0 -0.40468216993E+01  0.50405780247E+02  0.21452717533E+03  0.23836256180E+03  0.90761679494E+02 0.  0.
         23    2    1    2    0    0  0.16293335240E+03 -0.12702231834E+03  0.69571446159E+03  0.73137541965E+03  0.90605991693E+02 0.  0.
        -13    1    3    3    0    0  0.22788173462E+02  0.10439914884E+02  0.80182763694E+01  0.26317017849E+02  0.00000000000E+00 0. -1.
         13    1    3    3    0    0 -0.26834995162E+02  0.39965865363E+02  0.20650889896E+03  0.21204554395E+03  0.00000000000E+00 0.  1.
        -13    1    4    4    0    0  0.57625640132E+02 -0.99998063055E+02  0.39959634902E+03  0.41592976470E+03  0.00000000000E+00 0. -1.
         13    1    4    4    0    0  0.10530771227E+03 -0.27024255281E+02  0.29611811257E+03  0.31544565495E+03  0.00000000000E+00 0.  1.
          1    1    1    2  501    0 -0.15888653070E+03  0.76616538090E+02 -0.38376149360E+02  0.18052078104E+03  0.00000000000E+00 0. -1.
<scales pt_clust_5="13000.00000" pt_clust_6="13000.00000" pt_clust_7="13000.00000" pt_clust_8="13000.00000" pt_clust_9="178.75159"></scales>
<clustering>
<clus scale="   90.606">  7  8 -1 -1</clus>
<clus scale="   90.762">  5  6 -1 -1</clus>
<clus scale="  103.898">  1  5  2 -1</clus>
<clus scale="  178.752">  2  9  1 -1</clus>
<clus scale="  178.752">  2  5  1 -1</clus>
</clustering>
</event>
<event>
 9    1  0.1464797E-005  0.9879929E+02  0.7546771E-02  0.1284546E+00
          2   -1    0    0  502    0 -0.00000000000E+00  0.00000000000E+00  0.48757300589E+03  0.48757300589E+03  0.00000000000E+00 0.  1.
         21   -1    0    0  501  502  0.00000000000E+00 -0.00000000000E+00 -0.36180797271E+02  0.36180797271E+02  0.00000000000E+00 0.  1.
         23    2    1    2    0    0  0.26127882978E+02 -0.27654576032E+02  0.23734308319E+03  0.25723084857E+03  0.91588910214E+02 0.  0.
         23    2    1    2    0    0 -0.38387435094E+02  0.88114156948E+01  0.22245657407E+03  0.24252198582E+03  0.88197222387E+02 0.  0.
        -11    1    4    4    0    0  0.26429442540E+02  0.11699990101E+02  0.97936627030E+02  0.10211262466E+03  0.00000000000E+00 0.  1.
         11    1    4    4    0    0 -0.64816877634E+02 -0.28885744064E+01  0.12451994704E+03  0.14040936115E+03  0.00000000000E+00 0. -1.
        -13    1    3    3    0    0 -0.12772383266E+02 -0.36902661143E+02  0.40088454682E+02  0.55964492069E+02  0.00000000000E+00 0. -1.
         13    1    3    3    0    0  0.38900266244E+02  0.92480851109E+01  0.19725462851E+03  0.20126635650E+03  0.00000000000E+00 0.  1.
          2    1    1    2  501    0  0.12259552116E+02  0.18843160337E+02 -0.84074486406E+01  0.24000968776E+02  0.00000000000E+00 0.  1.
<scales pt_clust_5="13000.00000" pt_clust_6="13000.00000" pt_clust_7="13000.00000" pt_clust_8="13000.00000" pt_clust_9="22.48024"></scales>
<clustering>
<clus scale="   22.480">  2  9  1 -1</clus>
<clus scale="   88.197">  5  6 -1 -1</clus>
<clus scale="   91.589">  7  8 -1 -1</clus>
<clus scale="   95.664">  2  5  1 -1</clus>
<clus scale="   22.480">  2  5  1 -1</clus>
</clustering>
</event>
<event>
 9    1  0.1464797E-005  0.1770412E+03  0.7546771E-02  0.1198189E+00
          1   -1    0    0  502    0 -0.00000000000E+00  0.00000000000E+00  0.58839628592E+02  0.58839628592E+02  0.00000000000E+00 0. -1.
         21   -1    0    0  501  502  0.00000000000E+00 -0.00000000000E+00 -0.13435773227E+04  0.13435773227E+04  0.00000000000E+00 0. -1.
         23    2    1    2    0    0 -0.10387531280E+02 -0.30126333003E+02 -0.52015221421E+02  0.10907775377E+03  0.90426082303E+02 0.  0.
         23    2    1    2    0    0  0.11554695155E+03  0.10116155497E+03 -0.34063160941E+03  0.39226727211E+03  0.11941089240E+03 0.  0.
        -11    1    3    3    0    0 -0.26183533328E+02 -0.30536874384E+01 -0.68689853795E+02  0.73574441478E+02  0.00000000000E+00 0.  1.
         11    1    3    3    0    0  0.15796002047E+02 -0.27072645565E+02  0.16674632374E+02  0.35503312287E+02  0.00000000000E+00 0. -1.
        -13    1    4    4    0    0 -0.21284338901E+02 -0.40505049896E+01 -0.31908536981E+02  0.38569215773E+02  0.00000000000E+00 0.  1.
         13    1    4    4    0    0  0.13683129045E+03  0.10521205996E+03 -0.30872307243E+03  0.35369805634E+03  0.00000000000E+00 0. -1.
          1    1    1    2  501    0 -0.10515942027E+03 -0.71035221971E+02 -0.89209086329E+03  0.90107192543E+03  0.00000000000E+00 0. -1.
<scales pt_clust_5="13000.00000" pt_clust_6="13000.00000" pt_clust_7="13000.00000" pt_clust_8="13000.00000" pt_clust_9="130.70817"></scales>
<clustering>
<clus scale="   90.426">  5  6 -1 -1</clus>
<clus scale="   95.877">  1  5  2 -1</clus>
<clus scale="  119.411">  7  8 -1 -1</clus>
<clus scale="  130.708">  2  9  1 -1</clus>
<clus scale="  130.708">  2  5  1 -1</clus>
</clustering>
</event>
<event>
 9    1  0.1464797E-005  0.1135055E+03  0.7546771E-02  0.1255562E+00
         21   -1    0    0  501  502  0.00000000000E+00  0.00000000000E+00  0.32610006967E+03  0.32610006967E+03  0.00000000000E+00 0. -1.
         -3   -1    0    0    0  501 -0.00000000000E+00 -0.00000000000E+00 -0.87811103816E+02  0.87811103816E+02  0.00000000000E+00 0.  1.
         23    2    1    2    0    0 -0.32510375471E+02  0.57677061209E+02 -0.26330099861E+02  0.11625400488E+03  0.91859412086E+02 0.  0.
         23    2    1    2    0    0  0.26296702810E+02 -0.33332678438E+02  0.16802200447E+03  0.19784609236E+03  0.95441595991E+02 0.  0.
        -13    1    3    3    0    0 -0.48481172393E+02 -0.19651083191E+01 -0.24800162165E+02  0.54491593579E+02  0.00000000000E+00 0.  1.
         13    1    3    3    0    0  0.15970796922E+02  0.59642169528E+02 -0.15299376960E+01  0.61762411301E+02  0.00000000000E+00 0. -1.
        -13    1    4    4    0    0 -0.21956458746E+02 -0.42783314301E+02  0.47111314965E+02  0.67319938064E+02  0.00000000000E+00 0.  1.
         13    1    4    4    0    0  0.48253161556E+02  0.94506358630E+01  0.12091068951E+03  0.13052615430E+03  0.00000000000E+00 0. -1.
         -3    1    1    2    0  502  0.62136726617E+01 -0.24344382771E+02  0.96597061237E+02  0.99811076239E+02  0.00000000000E+00 0.  1.
<scales pt_clust_5="13000.00000" pt_clust_6="13000.00000" pt_clust_7="13000.00000" pt_clust_8="13000.00000" pt_clust_9="25.12486"></scales>
<clustering>
<clus scale="   25.125">  1  9  2 -1</clus>
<clus scale="   91.859">  5  6 -1 -1</clus>
<clus scale="   95.442">  7  8 -1 -1</clus>
<clus scale="  110.510">  2  5  1 -1</clus>
<clus scale="   25.125">  1  5  2 -1</clus>
</clustering>
</event>
<event>
 9    1  0.1464797E-005  0.1951197E+03  0.7546771E-02  0.1156216E+00
          1   -1    0    0  502    0 -0.00000000000E+00  0.00000000000E+00  0.29310626623E+03  0.29310626623E+03  0.00000000000E+00 0. -1.
         21   -1    0    0  501  502  0.00000000000E+00 -0.00000000000E+00 -0.20611028510E+03  0.20611028510E+03  0.00000000000E+00 0. -1.
         23    2    1    2    0    0  0.16315004230E+03 -0.78467822199E+02  0.14433804549E+03  0.25134160546E+03  0.97795684134E+02 0.  0.
         23    2    1    2    0    0 -0.14428558012E+03  0.46794910860E+02  0.11528995070E+02  0.16975795621E+03  0.75344234387E+02 0.  0.
        -11    1    4    4    0    0 -0.25056818960E+02  0.43115457598E+02 -0.47503403105E+00  0.49869956062E+02  0.00000000000E+00 0. -1.
         11    1    4    4    0    0 -0.11922876116E+03  0.36794532617E+01  0.12004029101E+02  0.11988800015E+03  0.00000000000E+00 0.  1.
        -13    1    3    3    0    0  0.16371119093E+03 -0.41967415600E+02  0.12337136738E+03  0.20924414519E+03  0.00000000000E+00 0. -1.
         13    1    3    3    0    0 -0.56114863415E+00 -0.36500406599E+02  0.20966678113E+02  0.42097460265E+02  0.00000000000E+00 0.  1.
          1    1    1    2  501    0 -0.18864462174E+02  0.31672911339E+02 -0.68871059430E+02  0.78116989655E+02  0.00000000000E+00 0. -1.
<scales pt_clust_5="13000.00000" pt_clust_6="13000.00000" pt_clust_7="13000.00000" pt_clust_8="13000.00000" pt_clust_9="36.86518"></scales>
<clustering>
<clus scale="   36.865">  2  9  1 -1</clus>
<clus scale="   75.344">  5  6 -1 -1</clus>
<clus scale="   97.796">  7  8 -1 -1</clus>
<clus scale="  184.890">  2  5  1 -1</clus>
<clus scale="   36.865">  2  5  1 -1</clus>
</clustering>
</event>
<event>
 9    1  0.1464797E-005  0.1081669E+03  0.7546771E-02  0.1264712E+00
         21   -1    0    0  501  502  0.00000000000E+00  0.00000000000E+00  0.16958032315E+03  0.16958032315E+03  0.00000000000E+00 0. -1.
         -2   -1    0    0    0  501 -0.00000000000E+00 -0.00000000000E+00 -0.14447036283E+03  0.14447036283E+03  0.00000000000E+00 0.  1.
         23    2    1    2    0    0  0.33034994698E+02 -0.15936485583E+02 -0.24110059132E+02  0.10021351625E+03  0.90089796537E+02 0.  0.
         23    2    1    2    0    0 -0.64586754758E+02  0.62537430234E+02 -0.13900193463E+02  0.12927167510E+03  0.91845367517E+02 0.  0.
        -11    1    4    4    0    0 -0.22184168456E+02 -0.17981674056E+02  0.16919709276E+02  0.33192687357E+02  0.00000000000E+00 0.  1.
         11    1    4    4    0    0 -0.42402586302E+02  0.80519104291E+02 -0.30819902739E+02  0.96078987743E+02  0.00000000000E+00 0. -1.
        -13    1    3    3    0    0  0.17665413331E+02 -0.43919896096E+02 -0.42286317027E+02  0.63475638705E+02  0.00000000000E+00 0.  1.
         13    1    3    3    0    0  0.15369581366E+02  0.27983410514E+02  0.18176257894E+02  0.36737877543E+02  0.00000000000E+00 0. -1.
         -2    1    1    2    0  502  0.31551760061E+02 -0.46600944652E+02  0.63120212909E+02  0.84565494636E+02  0.00000000000E+00 0.  1.
<scales pt_clust_5="13000.00000" pt_clust_6="13000.00000" pt_clust_7="13000.00000" pt_clust_8="13000.00000" pt_clust_9="56.27754"></scales>
<clustering>
<clus scale="   56.278">  1  9  2 -1</clus>
<clus scale="   90.090">  7  8 -1 -1</clus>
<clus scale="   91.845">  5  6 -1 -1</clus>
<clus scale="  106.680">  2  7  1 -1</clus>
<clus scale="   56.278">  1  5  2 -1</clus>
</clustering>
</event>
<event>
 9    1  0.1464797E-005  0.1041048E+03  0.7546771E-02  0.1272043E+00
          1   -1    0    0  502    0 -0.00000000000E+00  0.00000000000E+00  0.41752905450E+03  0.41752905450E+03  0.00000000000E+00 0. -1.
         21   -1    0    0  501  502  0.00000000000E+00 -0.00000000000E+00 -0.33531537622E+02  0.33531537622E+02  0.00000000000E+00 0.  1.
         23    2    1    2    0    0 -0.22261957002E+02 -0.50889636090E+02  0.24011872302E+03  0.26313036052E+03  0.92169602875E+02 0.  0.
         23    2    1    2    0    0  0.20821110714E+02  0.29300706951E+02  0.11689185616E+03  0.15334045413E+03  0.92506965980E+02 0.  0.
        -11    1    4    4    0    0  0.53186290815E+02  0.33250718515E+02  0.95800116890E+02  0.11450787837E+03  0.00000000000E+00 0.  1.
         11    1    4    4    0    0 -0.32365180101E+02 -0.39500115639E+01  0.21091739274E+02  0.38832575757E+02  0.00000000000E+00 0. -1.
        -11    1    3    3    0    0  0.10887198386E+02 -0.44394967017E+02  0.41753625179E+02  0.61909687455E+02  0.00000000000E+00 0.  1.
         11    1    3    3    0    0 -0.33149155388E+02 -0.64946690729E+01  0.19836509784E+03  0.20122067307E+03  0.00000000000E+00 0. -1.
          1    1    1    2  501    0  0.14408462880E+01  0.21588929139E+02  0.26986937692E+02  0.34589777469E+02  0.00000000000E+00 0. -1.
<scales pt_clust_5="13000.00000" pt_clust_6="13000.00000" pt_clust_7="13000.00000" pt_clust_8="13000.00000" pt_clust_9="21.63696"></scales>
<clustering>
<clus scale="   21.637">  2  9  1 -1</clus>
<clus scale="   92.170">  7  8 -1 -1</clus>
<clus scale="   92.507">  5  6 -1 -1</clus>
<clus scale="  103.805">  1  7  2 -1</clus>
<clus scale="   21.637">  2  5  1 -1</clus>
</clustering>
</event>
<event>
 9    1  0.1464797E-005  0.9460807E+02  0.7546771E-02  0.1292686E+00
         21   -1    0    0  501  502  0.00000000000E+00  0.00000000000E+00  0.12679898990E+03  0.12679898990E+03  0.00000000000E+00 0. -1.
          1   -1    0    0  502    0 -0.00000000000E+00 -0.00000000000E+00 -0.32902121826E+03  0.32902121826E+03  0.00000000000E+00 0. -1.
         23    2    1    2    0    0 -0.59948727002E+01  0.21987773872E+02 -0.24076009759E+03  0.25860966392E+03  0.91619501082E+02 0.  0.
         23    2    1    2    0    0 -0.18983040077E+02 -0.29031529859E+02 -0.47085291337E+02  0.10774079376E+03  0.90486841275E+02 0.  0.
        -11    1    4    4    0    0 -0.14583011084E+02 -0.61933272288E+02 -0.28777529898E+02  0.69832232212E+02  0.00000000000E+00 0.  1.
         11    1    4    4    0    0 -0.44000289932E+01  0.32901742429E+02 -0.18307761439E+02  0.37908561552E+02  0.00000000000E+00 0. -1.
        -13    1    3    3    0    0  0.41677994611E+02  0.54254093087E+01 -0.13563919032E+03  0.14200169101E+03  0.00000000000E+00 0.  1.
         13    1    3    3    0    0 -0.47672867311E+02  0.16562364563E+02 -0.10512090728E+03  0.11660797290E+03  0.00000000000E+00 0. -1.
          1    1    1    2  501    0  0.24977912778E+02  0.70437559866E+01  0.85623160569E+02  0.89469750480E+02  0.00000000000E+00 0. -1.
<scales pt_clust_5="13000.00000" pt_clust_6="13000.00000" pt_clust_7="13000.00000" pt_clust_8="13000.00000" pt_clust_9="25.95208"></scales>
<clustering>
<clus scale="   25.952">  1  9  2 -1</clus>
<clus scale="   90.487">  5  6 -1 -1</clus>
<clus scale="   91.620">  7  8 -1 -1</clus>
<clus scale="   93.512">  1  5  2 -1</clus>
<clus scale="   25.952">  1  5  2 -1</clus>
</clustering>
</event>
<event>
 9    1  0.1464797E-005  0.1817322E+03  0.7546771E-02  0.1166293E+00
         21   -1    0    0  501  502  0.00000000000E+00  0.00000000000E+00  0.15690567308E+03  0.15690567308E+03  0.00000000000E+00 0. -1.
          2   -1    0    0  502    0 -0.00000000000E+00 -0.00000000000E+00 -0.73246417332E+03  0.73246417332E+03  0.00000000000E+00 0. -1.
         23    2    1    2    0    0 -0.14136401413E+03 -0.47831794416E+02 -0.46000222338E+03  0.49231702533E+03  0.92208149696E+02 0.  0.
         23    2    1    2    0    0  0.16863279764E+03  0.43698351130E+02 -0.21651896928E+03  0.29239080712E+03  0.90913990666E+02 0.  0.
        -13    1    4    4    0    0  0.82644985894E+02  0.67349811360E+02 -0.10549935460E+03  0.14998768151E+03  0.00000000000E+00 0.  1.
         13    1    4    4    0    0  0.85987811744E+02 -0.23651460231E+02 -0.11101961467E+03  0.14240312560E+03  0.00000000000E+00 0. -1.
        -13    1    3    3    0    0 -0.32271047057E+02  0.27842559674E+02 -0.11594131126E+03  0.12352739074E+03  0.00000000000E+00 0.  1.
         13    1    3    3    0    0 -0.10909296707E+03 -0.75674354089E+02 -0.34406091212E+03  0.36878963459E+03  0.00000000000E+00 0. -1.
          2    1    1    2  501    0 -0.27268783511E+02  0.41334432860E+01  0.10096269241E+03  0.10466201396E+03  0.00000000000E+00 0. -1.
<scales pt_clust_5="13000.00000" pt_clust_6="13000.00000" pt_clust_7="13000.00000" pt_clust_8="13000.00000" pt_clust_9="27.58028"></scales>
<clustering>
<clus scale="   27.580">  1  9  2 -1</clus>
<clus scale="   90.914">  5  6 -1 -1</clus>
<clus scale="   92.208">  7  8 -1 -1</clus>
<clus scale="  181.079">  1  5  2 -1</clus>
<clus scale="   27.580">  1  5  2 -1</clus>
</clustering>
</event>
<event>
 9    1  0.1464797E-005  0.1450032E+03  0.7546771E-02  0.1226229E+00
          1   -1    0    0  502    0 -0.00000000000E+00  0.00000000000E+00  0.42190276277E+03  0.42190276277E+03  0.00000000000E+00 0. -1.
         21   -1    0    0  501  502  0.00000000000E+00 -0.00000000000E+00 -0.74425786008E+03  0.74425786008E+03  0.00000000000E+00 0. -1.
         23    2    1    2    0    0 -0.28085689182E+02 -0.17066496129E+02  0.21680590732E+03  0.23714777291E+03  0.90300573220E+02 0.  0.
         23    2    1    2    0    0  0.47219962163E+02 -0.95073423222E+02  0.16485959215E+03  0.21586035391E+03  0.90268082057E+02 0.  0.
        -13    1    3    3    0    0 -0.42084611726E+02 -0.46954298414E+02  0.13915643840E+03  0.15277543989E+03  0.00000000000E+00 0. -1.
         13    1    3    3    0    0  0.13998922544E+02  0.29887802285E+02  0.77649468910E+02  0.84372333024E+02  0.00000000000E+00 0.  1.
        -13    1    4    4    0    0  0.89730778421E+01 -0.97350711479E+02  0.95759030741E+02  0.13684834350E+03  0.00000000000E+00 0. -1.
         13    1    4    4    0    0  0.38246884320E+02  0.22772882571E+01  0.69100561405E+02  0.79012010406E+02  0.00000000000E+00 0.  1.
          1    1    1    2  501    0 -0.19134272981E+02  0.11213991935E+03 -0.70402059677E+03  0.71315249602E+03  0.00000000000E+00 0. -1.
<scales pt_clust_5="13000.00000" pt_clust_6="13000.00000" pt_clust_7="13000.00000" pt_clust_8="13000.00000" pt_clust_9="113.47947"></scales>
<clustering>
<clus scale="   90.268">  7  8 -1 -1</clus>
<clus scale="   90.301">  5  6 -1 -1</clus>
<clus scale="   96.095">  1  5  2 -1</clus>
<clus scale="  113.479">  2  9  1 -1</clus>
<clus scale="  113.479">  2  5  1 -1</clus>
</clustering>
</event>
<event>
 9    1  0.1464797E-005  0.1662919E+03  0.7546771E-02  0.1182080E+00
         21   -1    0    0  501  502  0.00000000000E+00  0.00000000000E+00  0.54178395851E+02  0.54178395851E+02  0.00000000000E+00 0.  1.
         -3   -1    0    0    0  501 -0.00000000000E+00 -0.00000000000E+00 -0.11286097908E+04  0.11286097908E+04  0.00000000000E+00 0.  1.
         23    2    1    2    0    0  0.11172857378E+03 -0.63277129072E+02 -0.78169429335E+03  0.79764268806E+03  0.93277115595E+02 0.  0.
         23    2    1    2    0    0 -0.16295255898E+03  0.56146501657E+02 -0.24857844451E+03  0.31714013482E+03  0.95292475638E+02 0.  0.
        -13    1    3    3    0    0  0.66883568327E+02 -0.85267172948E+02 -0.56039392695E+03  0.57077601199E+03  0.00000000000E+00 0.  1.
         13    1    3    3    0    0  0.44845005454E+02  0.21990043876E+02 -0.22130036640E+03  0.22686667607E+03  0.00000000000E+00 0. -1.
        -13    1    4    4    0    0 -0.12224350460E+03 -0.61161293269E+01 -0.14842510603E+03  0.19238215498E+03  0.00000000000E+00 0. -1.
         13    1    4    4    0    0 -0.40709054380E+02  0.62262630984E+02 -0.10015333848E+03  0.12475797984E+03  0.00000000000E+00 0.  1.
         -3    1    1    2    0  502  0.51223985194E+02  0.71306274150E+01 -0.44158657097E+02  0.68005363782E+02  0.00000000000E+00 0.  1.
<scales pt_clust_5="13000.00000" pt_clust_6="13000.00000" pt_clust_7="13000.00000" pt_clust_8="13000.00000" pt_clust_9="51.71791"></scales>
<clustering>
<clus scale="   51.718">  1  9  2 -1</clus>
<clus scale="   93.277">  5  6 -1 -1</clus>
<clus scale="   95.292">  7  8 -1 -1</clus>
<clus scale="  165.145">  2  5  1 -1</clus>
<clus scale="   51.718">  1  5  2 -1</clus>
</clustering>
</event>
<event>
 9    1  0.1464797E-005  0.9547069E+02  0.7546771E-02  0.1291336E+00
          3   -1    0    0  502    0 -0.00000000000E+00  0.00000000000E+00  0.47663491870E+03  0.47663491870E+03  0.00000000000E+00 0. -1.
         21   -1    0    0  501  502  0.00000000000E+00 -0.00000000000E+00 -0.60110226069E+02  0.60110226069E+02  0.00000000000E+00 0. -1.
         23    2    1    2    0    0 -0.17942208015E+01 -0.32003964846E+02  0.24320922353E+03  0.26198010177E+03  0.91953109339E+02 0.  0.
         23    2    1    2    0    0  0.48309106125E+02 -0.15442001478E+02  0.16396875052E+02  0.10435905885E+03  0.89720290393E+02 0.  0.
        -11    1    4    4    0    0  0.34961382257E+02  0.78999055969E+01 -0.32611824906E+02  0.48458620301E+02  0.00000000000E+00 0. -1.
         11    1    4    4    0    0  0.13347723867E+02 -0.23341907075E+02  0.49008699958E+02  0.55900438548E+02  0.00000000000E+00 0.  1.
        -11    1    3    3    0    0 -0.32023278317E+02 -0.48834714810E+02  0.11230736934E+03  0.12658303572E+03  0.00000000000E+00 0. -1.
         11    1    3    3    0    0  0.30229057516E+02  0.16830749964E+02  0.13090185419E+03  0.13539706605E+03  0.00000000000E+00 0.  1.
          3    1    1    2  501    0 -0.46514885323E+02  0.47445966323E+02  0.15691859405E+03  0.17040598415E+03  0.00000000000E+00 0. -1.
<scales pt_clust_5="13000.00000" pt_clust_6="13000.00000" pt_clust_7="13000.00000" pt_clust_8="13000.00000" pt_clust_9="66.44365"></scales>
<clustering>
<clus scale="   66.444">  2  9  1 -1</clus>
<clus scale="   89.720">  5  6 -1 -1</clus>
<clus scale="   91.953">  7  8 -1 -1</clus>
<clus scale="   93.322">  2  5  1 -1</clus>
<clus scale="   66.444">  2  5  1 -1</clus>
</clustering>
</event>
<event>
 9    1  0.1464797E-005  0.1144009E+03  0.7546771E-02  0.1254129E+00
         21   -1    0    0  501  502  0.00000000000E+00  0.00000000000E+00  0.30648315569E+03  0.30648315569E+03  0.00000000000E+00 0. -1.
         -4   -1    0    0    0  501 -0.00000000000E+00 -0.00000000000E+00 -0.66855422568E+02  0.66855422568E+02  0.00000000000E+00 0.  1.
         23    2    1    2    0    0 -0.51363963280E+02 -0.20589016301E+02  0.33410063622E+02  0.11105931312E+03  0.90309326008E+02 0.  0.
         23    2    1    2    0    0  0.78695897676E+02  0.38339487012E+02  0.15401267905E+03  0.20073680113E+03  0.94405494774E+02 0.  0.
        -11    1    3    3    0    0 -0.64402024686E+01 -0.39549171273E+02 -0.14583448859E+02  0.42641413401E+02  0.00000000000E+00 0.  1.
         11    1    3    3    0    0 -0.44923760811E+02  0.18960154972E+02  0.47993512481E+02  0.68417899721E+02  0.00000000000E+00 0. -1.
        -11    1    4    4    0    0  0.71461205128E+02  0.67604732305E+02  0.11269220209E+03  0.14958822173E+03  0.00000000000E+00 0. -1.
         11    1    4    4    0    0  0.72346925481E+01 -0.29265245292E+02  0.41320476958E+02  0.51148579397E+02  0.00000000000E+00 0.  1.
         -4    1    1    2    0  502 -0.27331934396E+02 -0.17750470711E+02  0.52204990443E+02  0.61542464002E+02  0.00000000000E+00 0.  1.
<scales pt_clust_5="13000.00000" pt_clust_6="13000.00000" pt_clust_7="13000.00000" pt_clust_8="13000.00000" pt_clust_9="32.59009"></scales>
<clustering>
<clus scale="   32.590">  1  9  2 -1</clus>
<clus scale="   90.309">  5  6 -1 -1</clus>
<clus scale="   94.405">  7  8 -1 -1</clus>
<clus scale="  111.045">  2  5  1 -1</clus>
<clus scale="   32.590">  1  5  2 -1</clus>
</clustering>
</event>
<event>
 9    1  0.1464797E-005  0.1109631E+03  0.7546771E-02  0.1258860E+00
          1   -1    0    0  502    0 -0.00000000000E+00  0.00000000000E+00  0.45125176585E+02  0.45125176585E+02  0.00000000000E+00 0. -1.
         21   -1    0    0  501  502  0.00000000000E+00 -0.00000000000E+00 -0.48080142853E+03  0.48080142853E+03  0.00000000000E+00 0.  1.
         23    2    1    2    0    0 -0.21834076513E+02 -0.71034506733E+02 -0.72494114035E+02  0.13754418858E+03  0.90224049997E+02 0.  0.
         23    2    1    2    0    0  0.24261774907E+02  0.32598322083E+02 -0.26155138247E+03  0.27969918663E+03  0.90394828447E+02 0.  0.
        -11    1    3    3    0    0  0.77564150467E+01 -0.43563382419E+02  0.10298187131E+02  0.45431078794E+02  0.00000000000E+00 0. -1.
         11    1    3    3    0    0 -0.29590491560E+02 -0.27471124314E+02 -0.82792301165E+02  0.92113109784E+02  0.00000000000E+00 0.  1.
        -13    1    4    4    0    0  0.54964702711E+02  0.14244712120E+01 -0.15754230715E+03  0.16686139819E+03  0.00000000000E+00 0. -1.
         13    1    4    4    0    0 -0.30702927805E+02  0.31173850871E+02 -0.10400907532E+03  0.11283778845E+03  0.00000000000E+00 0.  1.
          1    1    1    2  501    0 -0.24276983933E+01  0.38436184651E+02 -0.10163075544E+03  0.10868322990E+03  0.00000000000E+00 0. -1.
<scales pt_clust_5="13000.00000" pt_clust_6="13000.00000" pt_clust_7="13000.00000" pt_clust_8="13000.00000" pt_clust_9="38.51278"></scales>
<clustering>
<clus scale="   38.513">  2  9  1 -1</clus>
<clus scale="   90.224">  5  6 -1 -1</clus>
<clus scale="   90.395">  7  8 -1 -1</clus>
<clus scale="  110.824">  1  5  2 -1</clus>
<clus scale="   38.513">  2  5  1 -1</clus>
</clustering>
</event>
<event>
 9    1  0.1464797E-005  0.1556228E+03  0.7546771E-02  0.1218946E+00
         21   -1    0    0  501  502  0.00000000000E+00  0.00000000000E+00  0.87487359354E+02  0.87487359354E+02  0.00000000000E+00 0. -1.
         -1   -1    0    0    0  501 -0.00000000000E+00 -0.00000000000E+00 -0.45667868810E+03  0.45667868810E+03  0.00000000000E+00 0.  1.
         23    2    1    2    0    0  0.11383255376E+02  0.10478500497E+02 -0.16896759232E+03  0.19168625876E+03  0.89186305376E+02 0.  0.
         23    2    1    2    0    0  0.40310411544E+02 -0.12355094399E+03 -0.14977038242E+03  0.21830395776E+03  0.91299975275E+02 0.  0.
        -11    1    3    3    0    0  0.45152502212E+02 -0.11815798176E+02 -0.11594927768E+03  0.12499038578E+03  0.00000000000E+00 0.  1.
         11    1    3    3    0    0 -0.33769246836E+02  0.22294298673E+02 -0.53018314638E+02  0.66695872977E+02  0.00000000000E+00 0. -1.
        -13    1    4    4    0    0  0.57282039599E+02 -0.32381283799E+02 -0.55730327917E+02  0.86230209618E+02  0.00000000000E+00 0.  1.
         13    1    4    4    0    0 -0.16971628055E+02 -0.91169660190E+02 -0.94040054499E+02  0.13207374814E+03  0.00000000000E+00 0. -1.
         -1    1    1    2    0  502 -0.51693666921E+02  0.11307244349E+03 -0.50453354011E+02  0.13417583094E+03  0.00000000000E+00 0.  1.
<scales pt_clust_5="13000.00000" pt_clust_6="13000.00000" pt_clust_7="13000.00000" pt_clust_8="13000.00000" pt_clust_9="126.02685"></scales>
<clustering>
<clus scale="   89.186">  5  6 -1 -1</clus>
<clus scale="   90.518">  2  5  1 -1</clus>
<clus scale="   91.300">  7  8 -1 -1</clus>
<clus scale="  126.027">  1  9  2 -1</clus>
<clus scale="  126.027">  1  5  2 -1</clus>
</clustering>
</event>
<event>
 9    1  0.1464797E-005  0.1479052E+03  0.7546771E-02  0.1203117E+00
          2   -1    0    0  502    0 -0.00000000000E+00  0.00000000000E+00  0.32525728467E+03  0.32525728467E+03  0.00000000000E+00 0. -1.
         21   -1    0    0  501  502  0.00000000000E+00 -0.00000000000E+00 -0.87480609157E+02  0.87480609157E+02  0.00000000000E+00 0.  1.
         23    2    1    2    0    0  0.54294418210E+02  0.88775393400E+02  0.12343872936E+03  0.18611666449E+03  0.92592324587E+02 0.  0.
         23    2    1    2    0    0 -0.79568806968E+02 -0.10327290634E+03  0.11599722083E+03  0.19743688763E+03  0.92355190058E+02 0.  0.
        -11    1    3    3    0    0 -0.18864019900E+02  0.24683977450E+02  0.28570647647E+01  0.31197961610E+02  0.00000000000E+00 0.  1.
         11    1    3    3    0    0  0.73158438110E+02  0.64091415951E+02  0.12058166460E+03  0.15491870288E+03  0.00000000000E+00 0. -1.
        -13    1    4    4    0    0 -0.75352834871E+02 -0.37344608321E+02  0.30653229118E+02  0.89511395638E+02  0.00000000000E+00 0.  1.
         13    1    4    4    0    0 -0.42159720968E+01 -0.65928298022E+02  0.85343991709E+02  0.10792549199E+03  0.00000000000E+00 0. -1.
          2    1    1    2  501    0  0.25274388758E+02  0.14497512943E+02 -0.16592746710E+01  0.29184341710E+02  0.00000000000E+00 0. -1.
<scales pt_clust_5="13000.00000" pt_clust_6="13000.00000" pt_clust_7="13000.00000" pt_clust_8="13000.00000" pt_clust_9="29.13713"></scales>
<clustering>
<clus scale="   29.137">  2  9  1 -1</clus>
<clus scale="   92.355">  7  8 -1 -1</clus>
<clus scale="   92.592">  5  6 -1 -1</clus>
<clus scale="  147.757">  2  7  1 -1</clus>
<clus scale="   29.137">  2  5  1 -1</clus>
</clustering>
</event>
<event>
 9    1  0.1464797E-005  0.4311162E+03  0.7546771E-02  0.1033546E+00
          1   -1    0    0  502    0 -0.00000000000E+00  0.00000000000E+00  0.73106614815E+03  0.73106614815E+03  0.00000000000E+00 0. -1.
         21   -1    0    0  501  502  0.00000000000E+00 -0.00000000000E+00 -0.35229028464E+03  0.35229028464E+03  0.00000000000E+00 0. -1.
         23    2    1    2    0    0 -0.31383657581E+03 -0.30274686685E+03  0.43480519657E+03  0.62299786462E+03  0.94454849839E+02 0.  0.
         23    2    1    2    0    0  0.28758870184E+03  0.25160246349E+03 -0.74294209254E+02  0.40004019132E+03  0.92203384335E+02 0.  0.
        -13    1    3    3    0    0 -0.39839529379E+02 -0.40108870405E+02  0.18115979417E+02  0.59364116237E+02  0.00000000000E+00 0.  1.
         13    1    3    3    0    0 -0.27399704643E+03 -0.26263799644E+03  0.41668921715E+03  0.56363374838E+03  0.00000000000E+00 0. -1.
        -13    1    4    4    0    0  0.24370299375E+03  0.16460054155E+03 -0.40268410255E+02  0.29682660310E+03  0.00000000000E+00 0. -1.
         13    1    4    4    0    0  0.43885708084E+02  0.87001921947E+02 -0.34025798999E+02  0.10321358822E+03  0.00000000000E+00 0.  1.
          1    1    1    2  501    0  0.26247873972E+02  0.51144403352E+02  0.18264876195E+02  0.60318376841E+02  0.00000000000E+00 0. -1.
<scales pt_clust_5="13000.00000" pt_clust_6="13000.00000" pt_clust_7="13000.00000" pt_clust_8="13000.00000" pt_clust_9="57.48653"></scales>
<clustering>
<clus scale="   57.487">  2  9  1 -1</clus>
<clus scale="   92.203">  7  8 -1 -1</clus>
<clus scale="   94.455">  5  6 -1 -1</clus>
<clus scale="  430.629">  2  7  1 -1</clus>
<clus scale="   57.487">  2  5  1 -1</clus>
</clustering>
</event>
<event>
 9    1  0.1464797E-005  0.1346641E+03  0.7546771E-02  0.1220705E+00
          2   -1    0    0  502    0 -0.00000000000E+00  0.00000000000E+00  0.24596519550E+03  0.24596519550E+03  0.00000000000E+00 0. -1.
         21   -1    0    0  501  502  0.00000000000E+00 -0.00000000000E+00 -0.12456002922E+03  0.12456002922E+03  0.00000000000E+00 0.  1.
         23    2    1    2    0    0  0.87174021088E+02  0.23345322057E+02  0.71707670448E+02  0.14559194271E+03  0.88942170916E+02 0.  0.
         23    2    1    2    0    0 -0.10520253048E+03 -0.40083850956E+02  0.95894594078E+02  0.17259422023E+03  0.88987101070E+02 0.  0.
        -11    1    4    4    0    0 -0.50344072345E+02 -0.38446315063E+01 -0.65013293611E+01  0.50907505293E+02  0.00000000000E+00 0.  1.
         11    1    4    4    0    0 -0.54858458133E+02 -0.36239219450E+02  0.10239592344E+03  0.12168671494E+03  0.00000000000E+00 0. -1.
        -11    1    3    3    0    0  0.62550295933E+02 -0.17679079096E+02  0.72977421818E+02  0.97728161009E+02  0.00000000000E+00 0. -1.
         11    1    3    3    0    0  0.24623725155E+02  0.41024401153E+02 -0.12697513705E+01  0.47863781704E+02  0.00000000000E+00 0.  1.
          2    1    1    2  501    0  0.18028509390E+02  0.16738528899E+02 -0.46197098255E+02  0.52339061777E+02  0.00000000000E+00 0. -1.
<scales pt_clust_5="13000.00000" pt_clust_6="13000.00000" pt_clust_7="13000.00000" pt_clust_8="13000.00000" pt_clust_9="24.60092"></scales>
<clustering>
<clus scale="   24.601">  2  9  1 -1</clus>
<clus scale="   88.942">  7  8 -1 -1</clus>
<clus scale="   88.987">  5  6 -1 -1</clus>
<clus scale="  134.634">  1  7  2 -1</clus>
<clus scale="   24.601">  2  5  1 -1</clus>
</clustering>
</event>
<event>
 9    1  0.1464797E-005  0.9433442E+02  0.7546771E-02  0.1293325E+00
         21   -1    0    0  501  502  0.00000000000E+00  0.00000000000E+00  0.21436415956E+03  0.21436415956E+03  0.00000000000E+00 0. -1.
          4   -1    0    0  502    0 -0.00000000000E+00 -0.00000000000E+00 -0.27972776750E+03  0.27972776750E+03  0.00000000000E+00 0. -1.
         23    2    1    2    0    0  0.16924607908E+02 -0.11962527517E+02 -0.20651557033E+03  0.22684497998E+03  0.91544632467E+02 0.  0.
         23    2    1    2    0    0 -0.44324653621E+02 -0.21672389121E+02 -0.16004377790E+02  0.10421263971E+03  0.90386762296E+02 0.  0.
        -11    1    4    4    0    0 -0.85248868150E+01 -0.51027295724E+02  0.75273707203E+01  0.52279249364E+02  0.00000000000E+00 0. -1.
         11    1    4    4    0    0 -0.35799766806E+02  0.29354906603E+02 -0.23531748510E+02  0.51933390347E+02  0.00000000000E+00 0.  1.
        -11    1    3    3    0    0  0.17549511790E+02  0.21868582345E+02 -0.13929478454E+02  0.31308954436E+02  0.00000000000E+00 0.  1.
         11    1    3    3    0    0 -0.62490388192E+00 -0.33831109862E+02 -0.19258609188E+03  0.19553602554E+03  0.00000000000E+00 0. -1.
          4    1    1    2  501    0  0.27400045713E+02  0.33634916637E+02  0.15715634018E+03  0.16303430738E+03  0.00000000000E+00 0. -1.
<scales pt_clust_5="13000.00000" pt_clust_6="13000.00000" pt_clust_7="13000.00000" pt_clust_8="13000.00000" pt_clust_9="43.38283"></scales>
<clustering>
<clus scale="   43.383">  1  9  2 -1</clus>
<clus scale="   90.387">  5  6 -1 -1</clus>
<clus scale="   91.545">  7  8 -1 -1</clus>
<clus scale="   93.211">  1  5  2 -1</clus>
<clus scale="   43.383">  1  5  2 -1</clus>
</clustering>
</event>
<event>
 9    1  0.1464797E-005  0.2236142E+03  0.7546771E-02  0.1148594E+00
         21   -1    0    0  501  502  0.00000000000E+00  0.00000000000E+00  0.14099924923E+03  0.14099924923E+03  0.00000000000E+00 0. -1.
          1   -1    0    0  502    0 -0.00000000000E+00 -0.00000000000E+00 -0.82795485845E+03  0.82795485845E+03  0.00000000000E+00 0. -1.
         23    2    1    2    0    0  0.84464816427E+02  0.81369593660E+02 -0.12070034453E+03  0.19023063861E+03  0.88678107277E+02 0.  0.
         23    2    1    2    0    0 -0.93526890929E+01  0.13279901564E+03 -0.52434145157E+03  0.54792747124E+03  0.86991405098E+02 0.  0.
        -11    1    4    4    0    0 -0.22967761787E+02  0.10244243551E+00 -0.47216087364E+02  0.52506070905E+02  0.00000000000E+00 0.  1.
         11    1    4    4    0    0  0.13615072694E+02  0.13269657320E+03 -0.47712536420E+03  0.49542140034E+03  0.00000000000E+00 0. -1.
        -11    1    3    3    0    0 -0.42211057704E+01  0.46233393242E+02 -0.17288225838E+02  0.49540156815E+02  0.00000000000E+00 0. -1.
         11    1    3    3    0    0  0.88685922197E+02  0.35136200418E+02 -0.10341211869E+03  0.14069048179E+03  0.00000000000E+00 0.  1.
          1    1    1    2  501    0 -0.75112127334E+02 -0.21416860930E+03 -0.41913813130E+02  0.23079599783E+03  0.00000000000E+00 0. -1.
<scales pt_clust_5="13000.00000" pt_clust_6="13000.00000" pt_clust_7="13000.00000" pt_clust_8="13000.00000" pt_clust_9="205.99950"></scales>
<clustering>
<clus scale="   86.991">  5  6 -1 -1</clus>
<clus scale="   88.678">  7  8 -1 -1</clus>
<clus scale="  147.035">  2  7  1 -1</clus>
<clus scale="  205.999">  1  9  2 -1</clus>
<clus scale="  205.999">  1  5  2 -1</clus>
</clustering>
</event>
<event>
 9    1  0.1464797E-005  0.9574760E+02  0.7546771E-02  0.1291931E+00
         -3   -1    0    0    0  501 -0.00000000000E+00  0.00000000000E+00  0.43648870822E+03  0.43648870822E+03  0.00000000000E+00 0.  1.
         21   -1    0    0  501  502  0.00000000000E+00 -0.00000000000E+00 -0.50119786169E+02  0.50119786169E+02  0.00000000000E+00 0. -1.
         23    2    1    2    0    0 -0.27177196862E+02 -0.31788436921E+02  0.26602953363E+03  0.28277179576E+03  0.86250049059E+02 0.  0.
         23    2    1    2    0    0 -0.19440929586E+02  0.21663320488E+02  0.12353379848E+03  0.15602485959E+03  0.90751904917E+02 0.  0.
        -13    1    3    3    0    0  0.30425924821E+02 -0.68484871065E+01  0.11648443606E+03  0.12058715737E+03  0.00000000000E+00 0.  1.
         13    1    3    3    0    0 -0.57603121683E+02 -0.24939949814E+02  0.14954509757E+03  0.16218463840E+03  0.00000000000E+00 0. -1.
        -13    1    4    4    0    0 -0.48657001441E+02 -0.51379578046E+01  0.38696137230E+02  0.62380232736E+02  0.00000000000E+00 0. -1.
         13    1    4    4    0    0  0.29216071855E+02  0.26801278292E+02  0.84837661248E+02  0.93644626854E+02  0.00000000000E+00 0.  1.
         -3    1    1    2    0  502  0.46618126448E+02  0.10125116433E+02 -0.31944100603E+01  0.47811839036E+02  0.00000000000E+00 0.  1.
<scales pt_clust_5="13000.00000" pt_clust_6="13000.00000" pt_clust_7="13000.00000" pt_clust_8="13000.00000" pt_clust_9="47.70501"></scales>
<clustering>
<clus scale="   47.705">  2  9  1 -1</clus>
<clus scale="   86.250">  5  6 -1 -1</clus>
<clus scale="   90.752">  7  8 -1 -1</clus>
<clus scale="   91.492">  1  5  2 -1</clus>
<clus scale="   47.705">  2  5  1 -1</clus>
</clustering>
</event>
<event>
 9    1  0.1464797E-005  0.9250009E+02  0.7546771E-02  0.1297378E+00
         21   -1    0    0  501  502  0.00000000000E+00  0.00000000000E+00  0.10392020713E+03  0.10392020713E+03  0.00000000000E+00 0.  1.
          1   -1    0    0  502    0 -0.00000000000E+00 -0.00000000000E+00 -0.28945726756E+03  0.28945726756E+03  0.00000000000E+00 0. -1.
         23    2    1    2    0    0 -0.37779308650E+01 -0.17873371691E+02 -0.23409485817E+03  0.25173469179E+03  0.90753634925E+02 0.  0.
         23    2    1    2    0    0 -0.28847129209E+02  0.17952744151E+02  0.19811078796E+02  0.98159743734E+02  0.89935524465E+02 0.  0.
        -11    1    3    3    0    0  0.30996814515E+02 -0.37386797635E+02 -0.16457008854E+03  0.17158638987E+03  0.00000000000E+00 0.  1.
         11    1    3    3    0    0 -0.34774745380E+02  0.19513425943E+02 -0.69524769634E+02  0.80148301922E+02  0.00000000000E+00 0. -1.
        -13    1    4    4    0    0 -0.15603633762E+02 -0.31434690346E+02  0.29825291338E+02  0.46056065259E+02  0.00000000000E+00 0.  1.
         13    1    4    4    0    0 -0.13243495446E+02  0.49387434497E+02 -0.10014212542E+02  0.52103678476E+02  0.00000000000E+00 0. -1.
          1    1    1    2  501    0  0.32625060073E+02 -0.79372459943E-01  0.28746718945E+02  0.43483039164E+02  0.00000000000E+00 0. -1.
<scales pt_clust_5="13000.00000" pt_clust_6="13000.00000" pt_clust_7="13000.00000" pt_clust_8="13000.00000" pt_clust_9="32.62516"></scales>
<clustering>
<clus scale="   32.625">  1  9  2 -1</clus>
<clus scale="   89.936">  7  8 -1 -1</clus>
<clus scale="   90.754">  5  6 -1 -1</clus>
<clus scale="   91.698">  1  7  2 -1</clus>
<clus scale="   32.625">  1  5  2 -1</clus>
</clustering>
</event>
<event>
 9    1  0.1464797E-005  0.9783553E+02  0.7546771E-02  0.1284973E+00
         21   -1    0    0  501  502  0.00000000000E+00  0.00000000000E+00  0.14646823515E+03  0.14646823515E+03  0.00000000000E+00 0. -1.
         -3   -1    0    0    0  501 -0.00000000000E+00 -0.00000000000E+00 -0.13505553584E+03  0.13505553584E+03  0.00000000000E+00 0.  1.
         23    2    1    2    0    0  0.11579986829E+02 -0.86859762292E+01 -0.14907359631E+02  0.93531149311E+02  0.91193773045E+02 0.  0.
         23    2    1    2    0    0 -0.10076033635E+02  0.60403413698E+02 -0.27506093652E+02  0.11333199005E+03  0.91309670569E+02 0.  0.
        -11    1    3    3    0    0  0.23431442228E+02 -0.40612725438E+02  0.13923035357E+02  0.48910907433E+02  0.00000000000E+00 0.  1.
         11    1    3    3    0    0 -0.11851455399E+02  0.31926749209E+02 -0.28830394988E+02  0.44620241878E+02  0.00000000000E+00 0. -1.
        -11    1    4    4    0    0 -0.13506072268E+01  0.40544365998E+02 -0.61101690183E+02  0.73342254515E+02  0.00000000000E+00 0.  1.
         11    1    4    4    0    0 -0.87254264078E+01  0.19859047700E+02  0.33595596531E+02  0.39989735531E+02  0.00000000000E+00 0. -1.
         -3    1    1    2    0  502 -0.15039531943E+01 -0.51717437469E+02  0.53826152594E+02  0.74660631639E+02  0.00000000000E+00 0.  1.
<scales pt_clust_5="13000.00000" pt_clust_6="13000.00000" pt_clust_7="13000.00000" pt_clust_8="13000.00000" pt_clust_9="51.73930"></scales>
<clustering>
<clus scale="   51.739">  1  9  2 -1</clus>
<clus scale="   91.194">  5  6 -1 -1</clus>
<clus scale="   91.310">  7  8 -1 -1</clus>
<clus scale="   97.727">  2  5  1 -1</clus>
<clus scale="   51.739">  1  5  2 -1</clus>
</clustering>
</event>
<event>
 9    1  0.1464797E-005  0.1006503E+03  0.7546771E-02  0.1279778E+00
         -1   -1    0    0    0  501 -0.00000000000E+00  0.00000000000E+00  0.66709096186E+02  0.66709096186E+02  0.00000000000E+00 0.  1.
         21   -1    0    0  501  502  0.00000000000E+00 -0.00000000000E+00 -0.31529761679E+03  0.31529761679E+03  0.00000000000E+00 0.  1.
         23    2    1    2    0    0  0.27467904707E+02 -0.61602762123E+01 -0.20165512843E+02  0.97524694927E+02  0.91170079633E+02 0.  0.
         23    2    1    2    0    0 -0.60522541794E+02  0.43996477816E+02 -0.16323513255E+03  0.20217985369E+03  0.92910261067E+02 0.  0.
        -11    1    4    4    0    0  0.92932744529E-01  0.35662172347E+02 -0.97839046777E+01  0.36980048185E+02  0.00000000000E+00 0.  1.
         11    1    4    4    0    0 -0.60615474539E+02  0.83343054687E+01 -0.15345122787E+03  0.16519980550E+03  0.00000000000E+00 0. -1.
        -13    1    3    3    0    0  0.16074831943E+02 -0.37726019765E+02  0.19633358881E+02  0.45465608654E+02  0.00000000000E+00 0. -1.
         13    1    3    3    0    0  0.11393072763E+02  0.31565743553E+02 -0.39798871724E+02  0.52059086273E+02  0.00000000000E+00 0.  1.
         -1    1    1    2    0  502  0.33054637087E+02 -0.37836201604E+02 -0.65187875206E+02  0.82302164362E+02  0.00000000000E+00 0.  1.
<scales pt_clust_5="13000.00000" pt_clust_6="13000.00000" pt_clust_7="13000.00000" pt_clust_8="13000.00000" pt_clust_9="50.24129"></scales>
<clustering>
<clus scale="   50.241">  2  9  1 -1</clus>
<clus scale="   91.170">  7  8 -1 -1</clus>
<clus scale="   92.910">  5  6 -1 -1</clus>
<clus scale="   99.046">  1  7  2 -1</clus>
<clus scale="   50.241">  2  5  1 -1</clus>
</clustering>
</event>
<event>
 9    1  0.1464797E-005  0.9844059E+02  0.7546771E-02  0.1283652E+00
         21   -1    0    0  501  502  0.00000000000E+00  0.00000000000E+00  0.19400876553E+03  0.19400876553E+03  0.00000000000E+00 0. -1.
          1   -1    0    0  502    0 -0.00000000000E+00 -0.00000000000E+00 -0.37927932035E+03  0.37927932035E+03  0.00000000000E+00 0. -1.
         23    2    1    2    0    0  0.33949085688E+02  0.39865054505E+01 -0.29128948282E+03  0.30683353711E+03  0.90159991404E+02 0.  0.
         23    2    1    2    0    0 -0.67067714797E+02  0.75748386040E+01 -0.37455129479E+02  0.11875446942E+03  0.90245668789E+02 0.  0.
        -13    1    3    3    0    0  0.14889769722E+02  0.38602129517E+02 -0.64516173131E+02  0.76643109547E+02  0.00000000000E+00 0.  1.
         13    1    3    3    0    0  0.19059315966E+02 -0.34615624067E+02 -0.22677330969E+03  0.23019042757E+03  0.00000000000E+00 0. -1.
        -13    1    4    4    0    0 -0.86613664102E+02  0.15794764179E+02 -0.17761569442E+02  0.89815782208E+02  0.00000000000E+00 0.  1.
         13    1    4    4    0    0  0.19545949304E+02 -0.82199255752E+01 -0.19693560037E+02  0.28938687213E+02  0.00000000000E+00 0. -1.
          1    1    1    2  501    0  0.33118629109E+02 -0.11561344054E+02  0.14347405747E+03  0.14770007934E+03  0.00000000000E+00 0. -1.
<scales pt_clust_5="13000.00000" pt_clust_6="13000.00000" pt_clust_7="13000.00000" pt_clust_8="13000.00000" pt_clust_9="35.07860"></scales>
<clustering>
<clus scale="   35.079">  1  9  2 -1</clus>
<clus scale="   90.160">  5  6 -1 -1</clus>
<clus scale="   90.246">  7  8 -1 -1</clus>
<clus scale="   98.362">  2  5  1 -1</clus>
<clus scale="   35.079">  1  5  2 -1</clus>
</clustering>
</event>
<event>
 9    1  0.1464797E-005  0.1379282E+03  0.7546771E-02  0.1217273E+00
          1   -1    0    0  502    0 -0.00000000000E+00  0.00000000000E+00  0.82937095715E+03  0.82937095715E+03  0.00000000000E+00 0. -1.
         21   -1    0    0  501  502  0.00000000000E+00 -0.00000000000E+00 -0.43377070753E+02  0.43377070753E+02  0.00000000000E+00 0. -1.
         23    2    1    2    0    0 -0.99752216282E+02 -0.32467866231E+02  0.48051764341E+03  0.49974215477E+03  0.88545743172E+02 0.  0.
         23    2    1    2    0    0  0.76020375017E+02  0.94783733660E+02  0.21028408455E+03  0.25678188830E+03  0.83393575046E+02 0.  0.
        -11    1    4    4    0    0  0.13406584183E+02  0.77669781455E+02  0.86587208709E+02  0.11708832633E+03  0.00000000000E+00 0. -1.
         11    1    4    4    0    0  0.62613790834E+02  0.17113952205E+02  0.12369687584E+03  0.13969356197E+03  0.00000000000E+00 0.  1.
        -13    1    3    3    0    0 -0.24612264194E+02 -0.32300180062E+02  0.59280212074E+02  0.71855471081E+02  0.00000000000E+00 0. -1.
         13    1    3    3    0    0 -0.75139952088E+02 -0.16768616892E+00  0.42123743134E+03  0.42788668369E+03  0.00000000000E+00 0.  1.
          1    1    1    2  501    0  0.23731841265E+02 -0.62315867429E+02  0.95192158436E+02  0.11622398483E+03  0.00000000000E+00 0. -1.
<scales pt_clust_5="13000.00000" pt_clust_6="13000.00000" pt_clust_7="13000.00000" pt_clust_8="13000.00000" pt_clust_9="66.68184"></scales>
<clustering>
<clus scale="   66.682">  2  9  1 -1</clus>
<clus scale="   83.394">  5  6 -1 -1</clus>
<clus scale="   88.546">  7  8 -1 -1</clus>
<clus scale="  134.679">  2  5  1 -1</clus>
<clus scale="   66.682">  2  5  1 -1</clus>
</clustering>
</event>
<event>
 9    1  0.1464797E-005  0.1728509E+03  0.7546771E-02  0.1204315E+00
          1   -1    0    0  502    0 -0.00000000000E+00  0.00000000000E+00  0.68493965077E+03  0.68493965077E+03  0.00000000000E+00 0. -1.
         21   -1    0    0  501  502  0.00000000000E+00 -0.00000000000E+00 -0.60975275063E+02  0.60975275063E+02  0.00000000000E+00 0. -1.
         23    2    1    2    0    0 -0.63342816911E+01 -0.22678562733E+02  0.17582994506E+03  0.19762112599E+03  0.87083290729E+02 0.  0.
         23    2    1    2    0    0  0.13930467382E+03  0.12609992463E+02  0.30672354585E+03  0.35392420441E+03  0.10778777681E+03 0.  0.
        -11    1    4    4    0    0  0.40778034933E+02 -0.11070862656E+02  0.20871492898E+03  0.21294913409E+03  0.00000000000E+00 0.  1.
         11    1    4    4    0    0  0.98526638888E+02  0.23680855119E+02  0.98008616877E+02  0.14097507032E+03  0.00000000000E+00 0. -1.
        -13    1    3    3    0    0 -0.35321705073E+02  0.10817222980E+02  0.38641752925E+02  0.53458584263E+02  0.00000000000E+00 0.  1.
         13    1    3    3    0    0  0.28987423382E+02 -0.33495785713E+02  0.13718819214E+03  0.14416254173E+03  0.00000000000E+00 0. -1.
          1    1    1    2  501    0 -0.13297039213E+03  0.10068570270E+02  0.14141088479E+03  0.19436959543E+03  0.00000000000E+00 0. -1.
<scales pt_clust_5="13000.00000" pt_clust_6="13000.00000" pt_clust_7="13000.00000" pt_clust_8="13000.00000" pt_clust_9="135.12673"></scales>
<clustering>
<clus scale="   87.083">  7  8 -1 -1</clus>
<clus scale="   90.211">  1  7  2 -1</clus>
<clus scale="  107.788">  5  6 -1 -1</clus>
<clus scale="  135.127">  2  9  1 -1</clus>
<clus scale="  135.127">  2  5  1 -1</clus>
</clustering>
</event>
<event>
 9    1  0.1464797E-005  0.1687522E+03  0.7546771E-02  0.1179310E+00
          1   -1    0    0  502    0 -0.00000000000E+00  0.00000000000E+00  0.41615300489E+02  0.41615300489E+02  0.00000000000E+00 0. -1.
         21   -1    0    0  501  502  0.00000000000E+00 -0.00000000000E+00 -0.10225163042E+04  0.10225163042E+04  0.00000000000E+00 0. -1.
         23    2    1    2    0    0 -0.13810159945E+03 -0.17627601930E+02 -0.25970415020E+03  0.30826457947E+03  0.90542924652E+02 0.  0.
         23    2    1    2    0    0  0.13861804115E+03  0.52926349529E+02 -0.45387550483E+03  0.48622472187E+03  0.91626123265E+02 0.  0.
        -11    1    3    3    0    0 -0.62683498184E+02  0.20536267169E+02 -0.18148802979E+03  0.19310324744E+03  0.00000000000E+00 0.  1.
         11    1    3    3    0    0 -0.75418101270E+02 -0.38163869099E+02 -0.78216120404E+02  0.11516133203E+03  0.00000000000E+00 0. -1.
        -11    1    4    4    0    0  0.89936141420E+02 -0.13160654828E+02 -0.26916045641E+03  0.28409340658E+03  0.00000000000E+00 0. -1.
         11    1    4    4    0    0  0.48681899726E+02  0.66087004358E+02 -0.18471504843E+03  0.20213131529E+03  0.00000000000E+00 0.  1.
          1    1    1    2  501    0 -0.51644169239E+00 -0.35298747600E+02 -0.26732134865E+03  0.26964230331E+03  0.00000000000E+00 0. -1.
<scales pt_clust_5="13000.00000" pt_clust_6="13000.00000" pt_clust_7="13000.00000" pt_clust_8="13000.00000" pt_clust_9="35.30253"></scales>
<clustering>
<clus scale="   35.303">  2  9  1 -1</clus>
<clus scale="   90.543">  5  6 -1 -1</clus>
<clus scale="   91.626">  7  8 -1 -1</clus>
<clus scale="  168.167">  1  5  2 -1</clus>
<clus scale="   35.303">  2  5  1 -1</clus>
</clustering>
</event>
<event>
 9    1  0.1464797E-005  0.1247657E+03  0.7546771E-02  0.1247194E+00
         -2   -1    0    0    0  501 -0.00000000000E+00  0.00000000000E+00  0.16752755314E+03  0.16752755314E+03  0.00000000000E+00 0.  1.
         21   -1    0    0  501  502  0.00000000000E+00 -0.00000000000E+00 -0.12011819322E+03  0.12011819322E+03  0.00000000000E+00 0. -1.
         23    2    1    2    0    0  0.37451109976E+02 -0.10611614275E+02  0.52169214951E+02  0.11268615339E+03  0.91985597683E+02 0.  0.
         23    2    1    2    0    0 -0.17464945189E+02  0.29424460643E+02  0.32386900657E+02  0.12877245807E+03  0.11984411303E+03 0.  0.
        -11    1    4    4    0    0  0.19742914684E+02 -0.29862587179E+02  0.45152760724E+02  0.57622292511E+02  0.00000000000E+00 0.  1.
         11    1    4    4    0    0 -0.37207859873E+02  0.59287047823E+02 -0.12765860067E+02  0.71150165559E+02  0.00000000000E+00 0. -1.
        -11    1    3    3    0    0  0.53656314214E+02 -0.28113942984E+02  0.61935261008E+01  0.60891326235E+02  0.00000000000E+00 0.  1.
         11    1    3    3    0    0 -0.16205204238E+02  0.17502328709E+02  0.45975688850E+02  0.51794827154E+02  0.00000000000E+00 0. -1.
         -2    1    1    2    0  502 -0.19986164787E+02 -0.18812846368E+02 -0.37146755689E+02  0.46187134892E+02  0.00000000000E+00 0.  1.
<scales pt_clust_5="13000.00000" pt_clust_6="13000.00000" pt_clust_7="13000.00000" pt_clust_8="13000.00000" pt_clust_9="27.44759"></scales>
<clustering>
<clus scale="   27.448">  2  9  1 -1</clus>
<clus scale="   91.986">  7  8 -1 -1</clus>
<clus scale="   98.312">  1  7  2 -1</clus>
<clus scale="  119.844">  5  6 -1 -1</clus>
<clus scale="   27.448">  2  5  1 -1</clus>
</clustering>
</event>
<event>
 9    1  0.1464797E-005  0.9236583E+02  0.7546771E-02  0.1298119E+00
         21   -1    0    0  501  502  0.00000000000E+00  0.00000000000E+00  0.52932097017E+02  0.52932097017E+02  0.00000000000E+00 0.  1.
          2   -1    0    0  502    0 -0.00000000000E+00 -0.00000000000E+00 -0.56375118491E+03  0.56375118491E+03  0.00000000000E+00 0. -1.
         23    2    1    2    0    0  0.28673349278E+02 -0.50082149718E+01 -0.42201636071E+03  0.43213029181E+03  0.88269684598E+02 0.  0.
         23    2    1    2    0    0  0.32611705744E+02  0.19302685691E+02 -0.42177638450E+02  0.10623256646E+03  0.89834781486E+02 0.  0.
        -11    1    4    4    0    0 -0.18835620351E+01  0.45026357212E+02  0.12685007581E+01  0.45083586191E+02  0.00000000000E+00 0.  1.
         11    1    4    4    0    0  0.34495267779E+02 -0.25723671520E+02 -0.43446139208E+02  0.61148980267E+02  0.00000000000E+00 0. -1.
        -13    1    3    3    0    0  0.53242775087E+02  0.19682834382E+02 -0.29570697588E+03  0.30110599903E+03  0.00000000000E+00 0. -1.
         13    1    3    3    0    0 -0.24569425809E+02 -0.24691049354E+02 -0.12630938483E+03  0.13102429278E+03  0.00000000000E+00 0.  1.
          2    1    1    2  501    0 -0.61285055022E+02 -0.14294470719E+02 -0.46625088732E+02  0.78320423655E+02  0.00000000000E+00 0. -1.
<scales pt_clust_5="13000.00000" pt_clust_6="13000.00000" pt_clust_7="13000.00000" pt_clust_8="13000.00000" pt_clust_9="62.93004"></scales>
<clustering>
<clus scale="   62.930">  1  9  2 -1</clus>
<clus scale="   88.270">  7  8 -1 -1</clus>
<clus scale="   89.835">  5  6 -1 -1</clus>
<clus scale="   90.844">  2  7  1 -1</clus>
<clus scale="   62.930">  1  5  2 -1</clus>
</clustering>
</event>
<event>
 9    1  0.1464797E-005  0.1127904E+03  0.7546771E-02  0.1255717E+00
         21   -1    0    0  501  502  0.00000000000E+00  0.00000000000E+00  0.10298777259E+03  0.10298777259E+03  0.00000000000E+00 0. -1.
          1   -1    0    0  502    0 -0.00000000000E+00 -0.00000000000E+00 -0.74907004101E+03  0.74907004101E+03  0.00000000000E+00 0. -1.
         23    2    1    2    0    0 -0.50584811617E+02  0.10270034743E+02 -0.34825065722E+03  0.36377695785E+03  0.91601626774E+02 0.  0.
         23    2    1    2    0    0  0.83144063734E+02  0.66356958157E+01 -0.37917646293E+03  0.39904580923E+03  0.92226894302E+02 0.  0.
        -11    1    4    4    0    0  0.15292467587E+02 -0.18815304834E+02 -0.16808231996E+02  0.29502405389E+02  0.00000000000E+00 0.  1.
         11    1    4    4    0    0  0.67851596147E+02  0.25451000650E+02 -0.36236823093E+03  0.36954340384E+03  0.00000000000E+00 0. -1.
        -11    1    3    3    0    0 -0.59359334111E+02  0.31888211396E+02 -0.32057067637E+03  0.32757586468E+03  0.00000000000E+00 0. -1.
         11    1    3    3    0    0  0.87745224945E+01 -0.21618176653E+02 -0.27679980850E+02  0.36201093169E+02  0.00000000000E+00 0.  1.
          1    1    1    2  501    0 -0.32559252117E+02 -0.16905730558E+02  0.81344851734E+02  0.89235046522E+02  0.00000000000E+00 0. -1.
<scales pt_clust_5="13000.00000" pt_clust_6="13000.00000" pt_clust_7="13000.00000" pt_clust_8="13000.00000" pt_clust_9="36.68663"></scales>
<clustering>
<clus scale="   36.687">  1  9  2 -1</clus>
<clus scale="   91.602">  7  8 -1 -1</clus>
<clus scale="   92.227">  5  6 -1 -1</clus>
<clus scale="  112.280">  2  7  1 -1</clus>
<clus scale="   36.687">  1  5  2 -1</clus>
</clustering>
</event>
<event>
 9    1  0.1464797E-005  0.1015695E+03  0.7546771E-02  0.1279146E+00
          1   -1    0    0  502    0 -0.00000000000E+00  0.00000000000E+00  0.48491404978E+03  0.48491404978E+03  0.00000000000E+00 0. -1.
         21   -1    0    0  501  502  0.00000000000E+00 -0.00000000000E+00 -0.36114377224E+02  0.36114377224E+02  0.00000000000E+00 0.  1.
         23    2    1    2    0    0 -0.35102208551E+02  0.10423787047E+02  0.31230337698E+03  0.32699999292E+03  0.89748402275E+02 0.  0.
         23    2    1    2    0    0  0.44918272445E+02  0.10065971594E+02  0.13551757708E+03  0.17128765113E+03  0.94103510828E+02 0.  0.
        -11    1    4    4    0    0  0.23349405759E+02  0.39533837255E+02  0.19902308065E+02  0.50042191236E+02  0.00000000000E+00 0.  1.
         11    1    4    4    0    0  0.21568866686E+02 -0.29467865661E+02  0.11561526901E+03  0.12124545990E+03  0.00000000000E+00 0. -1.
        -13    1    3    3    0    0 -0.62384695245E+02  0.77332333446E+01  0.15392693665E+03  0.16626832208E+03  0.00000000000E+00 0. -1.
         13    1    3    3    0    0  0.27282486694E+02  0.26905537019E+01  0.15837644033E+03  0.16073167084E+03  0.00000000000E+00 0.  1.
          1    1    1    2  501    0 -0.98160638938E+01 -0.20489758641E+02  0.97871849513E+00  0.22740782955E+02  0.00000000000E+00 0. -1.
<scales pt_clust_5="13000.00000" pt_clust_6="13000.00000" pt_clust_7="13000.00000" pt_clust_8="13000.00000" pt_clust_9="22.71971"></scales>
<clustering>
<clus scale="   22.720">  2  9  1 -1</clus>
<clus scale="   89.748">  7  8 -1 -1</clus>
<clus scale="   94.104">  5  6 -1 -1</clus>
<clus scale="   97.548">  1  7  2 -1</clus>
<clus scale="   22.720">  2  5  1 -1</clus>
</clustering>
</event>
<event>
 9    1  0.1464797E-005  0.1008130E+03  0.7546771E-02  0.1279632E+00
         -2   -1    0    0    0  501 -0.00000000000E+00  0.00000000000E+00  0.12152323811E+03  0.12152323811E+03  0.00000000000E+00 0.  1.
         21   -1    0    0  501  502  0.00000000000E+00 -0.00000000000E+00 -0.37760434661E+03  0.37760434661E+03  0.00000000000E+00 0.  1.
         23    2    1    2    0    0  0.34392583064E+01  0.49611852997E+02  0.72654899186E+02  0.12505504691E+03  0.88808028498E+02 0.  0.
         23    2    1    2    0    0 -0.68253128657E+01 -0.18710075125E+02 -0.78224591392E+02  0.12163966567E+03  0.90997086541E+02 0.  0.
        -11    1    3    3    0    0  0.42340308412E+02  0.44082943565E+02  0.53998380655E+02  0.81558768647E+02  0.00000000000E+00 0. -1.
         11    1    3    3    0    0 -0.38901050105E+02  0.55289094320E+01  0.18656518531E+02  0.43496278260E+02  0.00000000000E+00 0.  1.
        -13    1    4    4    0    0 -0.48742154807E+02 -0.11162085842E+02 -0.48821382318E+02  0.69885028347E+02  0.00000000000E+00 0.  1.
         13    1    4    4    0    0  0.41916841942E+02 -0.75479892823E+01 -0.29403209074E+02  0.51754637323E+02  0.00000000000E+00 0. -1.
         -2    1    1    2    0  502  0.33860545593E+01 -0.30901777873E+02 -0.25051141630E+03  0.25243287214E+03  0.00000000000E+00 0.  1.
<scales pt_clust_5="13000.00000" pt_clust_6="13000.00000" pt_clust_7="13000.00000" pt_clust_8="13000.00000" pt_clust_9="31.08674"></scales>
<clustering>
<clus scale="   31.087">  2  9  1 -1</clus>
<clus scale="   88.808">  5  6 -1 -1</clus>
<clus scale="   90.997">  7  8 -1 -1</clus>
<clus scale="   98.842">  1  5  2 -1</clus>
<clus scale="   31.087">  2  5  1 -1</clus>
</clustering>
</event>
<event>
 9    1  0.1464797E-005  0.9734093E+02  0.7546771E-02  0.1286678E+00
         21   -1    0    0  501  502  0.00000000000E+00  0.00000000000E+00  0.17466341802E+03  0.17466341802E+03  0.00000000000E+00 0. -1.
         -1   -1    0    0    0  501 -0.00000000000E+00 -0.00000000000E+00 -0.94402970415E+02  0.94402970415E+02  0.00000000000E+00 0.  1.
         23    2    1    2    0    0 -0.99995730669E+00  0.42325206955E+02  0.36504826558E+02  0.10719449250E+03  0.91463838772E+02 0.  0.
         23    2    1    2    0    0  0.38747230029E+02 -0.10815424010E+02  0.52712819987E+02  0.11189235579E+03  0.90127335820E+02 0.  0.
        -11    1    4    4    0    0  0.66366819048E+02 -0.14756859540E+02  0.24642990694E+02  0.72315949585E+02  0.00000000000E+00 0.  1.
         11    1    4    4    0    0 -0.27619589019E+02  0.39414355302E+01  0.28069829293E+02  0.39576406206E+02  0.00000000000E+00 0. -1.
        -13    1    3    3    0    0 -0.45706316344E+02  0.16794352573E+02  0.23637159702E+02  0.54127931337E+02  0.00000000000E+00 0. -1.
         13    1    3    3    0    0  0.44706359037E+02  0.25530854383E+02  0.12867666857E+02  0.53066561168E+02  0.00000000000E+00 0.  1.
         -1    1    1    2    0  502 -0.37747272722E+02 -0.31509782945E+02 -0.89571989438E+01  0.49979540135E+02  0.00000000000E+00 0.  1.
<scales pt_clust_5="13000.00000" pt_clust_6="13000.00000" pt_clust_7="13000.00000" pt_clust_8="13000.00000" pt_clust_9="49.17037"></scales>
<clustering>
<clus scale="   49.170">  1  9  2 -1</clus>
<clus scale="   90.127">  5  6 -1 -1</clus>
<clus scale="   91.464">  7  8 -1 -1</clus>
<clus scale="   96.086">  1  5  2 -1</clus>
<clus scale="   49.170">  1  5  2 -1</clus>
</clustering>
</event>
<event>
 9    1  0.1464797E-005  0.2186209E+03  0.7546771E-02  0.1135086E+00
         21   -1    0    0  501  502  0.00000000000E+00  0.00000000000E+00  0.38610561114E+02  0.38610561114E+02  0.00000000000E+00 0. -1.
         -2   -1    0    0    0  501 -0.00000000000E+00 -0.00000000000E+00 -0.15465672247E+04  0.15465672247E+04  0.00000000000E+00 0.  1.
         23    2    1    2    0    0 -0.18259751246E+03  0.72660795777E+02 -0.75562303687E+03  0.78631124653E+03  0.93261780866E+02 0.  0.
         23    2    1    2    0    0  0.19252668583E+03 -0.52684944863E+02 -0.74293474286E+03  0.77465988477E+03  0.91124512340E+02 0.  0.
        -11    1    4    4    0    0  0.23398146981E+02  0.24028525156E+02 -0.10306899495E+03  0.10838847274E+03  0.00000000000E+00 0.  1.
         11    1    4    4    0    0  0.16912853885E+03 -0.76713470019E+02 -0.63986574791E+03  0.66627141203E+03  0.00000000000E+00 0. -1.
        -11    1    3    3    0    0 -0.10897506619E+03 -0.46184572517E+01 -0.43120774438E+03  0.44478872964E+03  0.00000000000E+00 0.  1.
         11    1    3    3    0    0 -0.73622446274E+02  0.77279253028E+02 -0.32441529249E+03  0.34152251689E+03  0.00000000000E+00 0. -1.
         -2    1    1    2    0  502 -0.99291733707E+01 -0.19975850913E+02 -0.93988838058E+01  0.24206654464E+02  0.00000000000E+00 0.  1.
<scales pt_clust_5="13000.00000" pt_clust_6="13000.00000" pt_clust_7="13000.00000" pt_clust_8="13000.00000" pt_clust_9="22.30747"></scales>
<clustering>
<clus scale="   22.307">  1  9  2 -1</clus>
<clus scale="   91.125">  5  6 -1 -1</clus>
<clus scale="   93.262">  7  8 -1 -1</clus>
<clus scale="  217.718">  1  5  2 -1</clus>
<clus scale="   22.307">  1  5  2 -1</clus>
</clustering>
</event>
<event>
 9    1  0.1464797E-005  0.1020196E+03  0.7546771E-02  0.1276850E+00
         -2   -1    0    0    0  501 -0.00000000000E+00  0.00000000000E+00  0.54939460650E+02  0.54939460650E+02  0.00000000000E+00 0.  1.
         21   -1    0    0  501  502  0.00000000000E+00 -0.00000000000E+00 -0.30906354247E+03  0.30906354247E+03  0.00000000000E+00 0. -1.
         23    2    1    2    0    0  0.62949900734E+02 -0.87594283540E+01 -0.70162740422E+02  0.13058332585E+03  0.89943189067E+02 0.  0.
         23    2    1    2    0    0 -0.15764441740E+02  0.20226636113E+02 -0.11914632250E+03  0.15243232598E+03  0.91553991752E+02 0.  0.
        -11    1    3    3    0    0  0.43721375049E+02  0.19143353343E+02  0.51425783222E+01  0.48004923969E+02  0.00000000000E+00 0.  1.
         11    1    3    3    0    0  0.19228525685E+02 -0.27902781697E+02 -0.75305318745E+02  0.82578401884E+02  0.00000000000E+00 0. -1.
        -11    1    4    4    0    0 -0.19475621819E+02 -0.11663402349E+02 -0.11815055682E+03  0.12031163234E+03  0.00000000000E+00 0. -1.
         11    1    4    4    0    0  0.37111800788E+01  0.31890038462E+02 -0.99576568424E+00  0.32120693641E+02  0.00000000000E+00 0.  1.
         -2    1    1    2    0  502 -0.47185458994E+02 -0.11467207759E+02 -0.64815018898E+02  0.80987351290E+02  0.00000000000E+00 0.  1.
<scales pt_clust_5="13000.00000" pt_clust_6="13000.00000" pt_clust_7="13000.00000" pt_clust_8="13000.00000" pt_clust_9="48.55888"></scales>
<clustering>
<clus scale="   48.559">  2  9  1 -1</clus>
<clus scale="   89.943">  5  6 -1 -1</clus>
<clus scale="   91.554">  7  8 -1 -1</clus>
<clus scale="  100.577">  1  5  2 -1</clus>
<clus scale="   48.559">  2  5  1 -1</clus>
</clustering>
</event>
<event>
 9    1  0.1464797E-005  0.1535310E+03  0.7546771E-02  0.1196241E+00
         21   -1    0    0  501  502  0.00000000000E+00  0.00000000000E+00  0.12785185281E+03  0.12785185281E+03  0.00000000000E+00 0.  1.
          1   -1    0    0  502    0 -0.00000000000E+00 -0.00000000000E+00 -0.31347879757E+03  0.31347879757E+03  0.00000000000E+00 0. -1.
         23    2    1    2    0    0  0.11114091353E+03  0.52442941019E+02 -0.19510743767E+03  0.24822426178E+03  0.91901072776E+02 0.  0.
         23    2    1    2    0    0 -0.12515407619E+03 -0.18940012822E+02  0.75143475005E+01  0.15673771178E+03  0.92130223070E+02 0.  0.
        -13    1    3    3    0    0  0.10285139024E+03  0.40604824507E+01 -0.14732439666E+03  0.17972026553E+03  0.00000000000E+00 0.  1.
         13    1    3    3    0    0  0.82895232960E+01  0.48382458568E+02 -0.47783041010E+02  0.68503996247E+02  0.00000000000E+00 0. -1.
        -13    1    4    4    0    0 -0.81533647837E+02  0.15987316758E+02 -0.31205662450E+02  0.88753159919E+02  0.00000000000E+00 0. -1.
         13    1    4    4    0    0 -0.43620428358E+02 -0.34927329580E+02  0.38720009950E+02  0.67984551865E+02  0.00000000000E+00 0.  1.
          1    1    1    2  501    0  0.14013162662E+02 -0.33502928197E+02  0.19661454032E+01  0.36368676816E+02  0.00000000000E+00 0. -1.
<scales pt_clust_5="13000.00000" pt_clust_6="13000.00000" pt_clust_7="13000.00000" pt_clust_8="13000.00000" pt_clust_9="36.31549"></scales>
<clustering>
<clus scale="   36.315">  1  9  2 -1</clus>
<clus scale="   91.901">  5  6 -1 -1</clus>
<clus scale="   92.130">  7  8 -1 -1</clus>
<clus scale="  153.394">  2  5  1 -1</clus>
<clus scale="   36.315">  1  5  2 -1</clus>
</clustering>
</event>
<event>
 9    1  0.1464797E-005  0.9743533E+02  0.7546771E-02  0.1285863E+00
          1   -1    0    0  502    0 -0.00000000000E+00  0.00000000000E+00  0.30800265568E+03  0.30800265568E+03  0.00000000000E+00 0. -1.
         21   -1    0    0  501  502  0.00000000000E+00 -0.00000000000E+00 -0.98491263952E+02  0.98491263952E+02  0.00000000000E+00 0. -1.
         23    2    1    2    0    0  0.41505800874E+02 -0.35346131536E+02  0.18088625919E+03  0.20963291498E+03  0.90851746058E+02 0.  0.
         23    2    1    2    0    0  0.18479537112E+01  0.13238451253E+02  0.83157543481E+02  0.12377146089E+03  0.90694685453E+02 0.  0.
        -11    1    4    4    0    0 -0.38117822963E+02  0.29808913890E+02  0.45197772509E+02  0.66214638974E+02  0.00000000000E+00 0.  1.
         11    1    4    4    0    0  0.39965776674E+02 -0.16570462637E+02  0.37959770973E+02  0.57556821920E+02  0.00000000000E+00 0. -1.
        -11    1    3    3    0    0  0.35315890533E+02 -0.63657860046E+02  0.15289791284E+03  0.16934375401E+03  0.00000000000E+00 0. -1.
         11    1    3    3    0    0  0.61899103411E+01  0.28311728510E+02  0.27988346346E+02  0.40289160979E+02  0.00000000000E+00 0.  1.
          1    1    1    2  501    0 -0.43353754585E+02  0.22107680283E+02 -0.54532410937E+02  0.73089543757E+02  0.00000000000E+00 0. -1.
<scales pt_clust_5="13000.00000" pt_clust_6="13000.00000" pt_clust_7="13000.00000" pt_clust_8="13000.00000" pt_clust_9="48.66516"></scales>
<clustering>
<clus scale="   48.665">  2  9  1 -1</clus>
<clus scale="   90.695">  5  6 -1 -1</clus>
<clus scale="   90.852">  7  8 -1 -1</clus>
<clus scale="   97.289">  2  5  1 -1</clus>
<clus scale="   48.665">  2  5  1 -1</clus>
</clustering>
</event>
<event>
 9    1  0.1464797E-005  0.1552753E+03  0.7546771E-02  0.1194313E+00
         21   -1    0    0  501  502  0.00000000000E+00  0.00000000000E+00  0.60297569073E+02  0.60297569073E+02  0.00000000000E+00 0.  1.
          2   -1    0    0  502    0 -0.00000000000E+00 -0.00000000000E+00 -0.10335853487E+04  0.10335853487E+04  0.00000000000E+00 0. -1.
         23    2    1    2    0    0 -0.97375996693E+02 -0.74910231304E+02 -0.84639501292E+03  0.85997399903E+03  0.89872874820E+02 0.  0.
         23    2    1    2    0    0  0.11362866597E+03  0.91615497332E+02 -0.11971355832E+03  0.20952129472E+03  0.90900846050E+02 0.  0.
        -13    1    3    3    0    0 -0.25258846196E+02  0.19220908054E+02 -0.12918519733E+03  0.13302731985E+03  0.00000000000E+00 0.  1.
         13    1    3    3    0    0 -0.72117150498E+02 -0.94131139359E+02 -0.71720981558E+03  0.72694667917E+03  0.00000000000E+00 0. -1.
        -13    1    4    4    0    0  0.56204145595E+02  0.79823922005E+02 -0.29594261827E+02  0.10201266999E+03  0.00000000000E+00 0.  1.
         13    1    4    4    0    0  0.57424520372E+02  0.11791575327E+02 -0.90119296498E+02  0.10750862472E+03  0.00000000000E+00 0. -1.
          2    1    1    2  501    0 -0.16252669273E+02 -0.16705266028E+02 -0.71792083535E+01  0.24387623995E+02  0.00000000000E+00 0. -1.
<scales pt_clust_5="13000.00000" pt_clust_6="13000.00000" pt_clust_7="13000.00000" pt_clust_8="13000.00000" pt_clust_9="23.30698"></scales>
<clustering>
<clus scale="   23.307">  1  9  2 -1</clus>
<clus scale="   89.873">  5  6 -1 -1</clus>
<clus scale="   90.901">  7  8 -1 -1</clus>
<clus scale="  154.676">  2  5  1 -1</clus>
<clus scale="   23.307">  1  5  2 -1</clus>
</clustering>
</event>
<event>
 9    1  0.1464797E-005  0.1555443E+03  0.7546771E-02  0.1194473E+00
         21   -1    0    0  501  502  0.00000000000E+00  0.00000000000E+00  0.66411598733E+02  0.66411598733E+02  0.00000000000E+00 0. -1.
          1   -1    0    0  502    0 -0.00000000000E+00 -0.00000000000E+00 -0.67114126470E+03  0.67114126470E+03  0.00000000000E+00 0. -1.
         23    2    1    2    0    0  0.11878599904E+03 -0.60505121345E+01 -0.32904676263E+03  0.36031968139E+03  0.86091686809E+02 0.  0.
         23    2    1    2    0    0 -0.13787209481E+03 -0.21755877202E+02 -0.29488216819E+03  0.33842485676E+03  0.89965870411E+02 0.  0.
        -11    1    4    4    0    0 -0.54624535745E+02 -0.49890698074E+02 -0.17313334070E+03  0.18827659260E+03  0.00000000000E+00 0. -1.
         11    1    4    4    0    0 -0.83247559062E+02  0.28134820872E+02 -0.12174882749E+03  0.15014826416E+03  0.00000000000E+00 0.  1.
        -13    1    3    3    0    0  0.73716723964E+02  0.33845736517E+02 -0.23553115445E+03  0.24910763535E+03  0.00000000000E+00 0. -1.
         13    1    3    3    0    0  0.45069275071E+02 -0.39896248652E+02 -0.93515608176E+02  0.11121204604E+03  0.00000000000E+00 0.  1.
          1    1    1    2  501    0  0.19086095771E+02  0.27806389336E+02  0.19199264856E+02  0.38808325276E+02  0.00000000000E+00 0. -1.
<scales pt_clust_5="13000.00000" pt_clust_6="13000.00000" pt_clust_7="13000.00000" pt_clust_8="13000.00000" pt_clust_9="33.72646"></scales>
<clustering>
<clus scale="   33.726">  1  9  2 -1</clus>
<clus scale="   86.092">  7  8 -1 -1</clus>
<clus scale="   89.966">  5  6 -1 -1</clus>
<clus scale="  153.336">  2  7  1 -1</clus>
<clus scale="   33.726">  1  5  2 -1</clus>
</clustering>
</event>
<event>
 9    1  0.1464797E-005  0.3033772E+03  0.7546771E-02  0.1083567E+00
         21   -1    0    0  501  502  0.00000000000E+00  0.00000000000E+00  0.95302518826E+02  0.95302518826E+02  0.00000000000E+00 0. -1.
          1   -1    0    0  502    0 -0.00000000000E+00 -0.00000000000E+00 -0.19370524659E+04  0.19370524659E+04  0.00000000000E+00 0. -1.
         23    2    1    2    0    0 -0.24575986365E+03  0.13230379066E+03 -0.10392724699E+04  0.10799795422E+04  0.91467706592E+02 0.  0.
         23    2    1    2    0    0  0.23322256041E+03 -0.20244911351E+03 -0.81828403035E+03  0.87938642003E+03  0.91396472389E+02 0.  0.
        -13    1    4    4    0    0  0.22952745944E+03 -0.16077315869E+03 -0.71274116824E+03  0.76585301207E+03  0.00000000000E+00 0.  1.
         13    1    4    4    0    0  0.36951009706E+01 -0.41675954814E+02 -0.10554286211E+03  0.11353340796E+03  0.00000000000E+00 0. -1.
        -13    1    3    3    0    0 -0.88930308277E+02  0.87080835123E+02 -0.34457601620E+03  0.36636635014E+03  0.00000000000E+00 0.  1.
         13    1    3    3    0    0 -0.15682955537E+03  0.45222955533E+02 -0.69469645365E+03  0.71361319205E+03  0.00000000000E+00 0. -1.
          1    1    1    2  501    0  0.12537303243E+02  0.70145322851E+02  0.15806553095E+02  0.72989022539E+02  0.00000000000E+00 0. -1.
<scales pt_clust_5="13000.00000" pt_clust_6="13000.00000" pt_clust_7="13000.00000" pt_clust_8="13000.00000" pt_clust_9="71.25693"></scales>
<clustering>
<clus scale="   71.257">  1  9  2 -1</clus>
<clus scale="   91.396">  5  6 -1 -1</clus>
<clus scale="   91.468">  7  8 -1 -1</clus>
<clus scale="  303.356">  1  5  2 -1</clus>
<clus scale="   71.257">  1  5  2 -1</clus>
</clustering>
</event>
<event>
 9    1  0.1464797E-005  0.1043651E+03  0.7546771E-02  0.1277393E+00
          1   -1    0    0  502    0 -0.00000000000E+00  0.00000000000E+00  0.14246757328E+03  0.14246757328E+03  0.00000000000E+00 0. -1.
         21   -1    0    0  501  502  0.00000000000E+00 -0.00000000000E+00 -0.10518515905E+03  0.10518515905E+03  0.00000000000E+00 0.  1.
         23    2    1    2    0    0  0.14760759539E+02  0.93386235925E+01  0.50853236258E+02  0.11717634637E+03  0.10411126066E+03 0.  0.
         23    2    1    2    0    0  0.28987536904E+01  0.49940181545E+01  0.14875665818E+02  0.94055434608E+02  0.92691943315E+02 0.  0.
        -11    1    4    4    0    0  0.41981235467E+02 -0.16834377315E+02 -0.41380443602E+01  0.45419641149E+02  0.00000000000E+00 0.  1.
         11    1    4    4    0    0 -0.39082481777E+02  0.21828395470E+02  0.19013710179E+02  0.48635793459E+02  0.00000000000E+00 0. -1.
        -13    1    3    3    0    0 -0.35365965297E+02 -0.20504906146E+02  0.41209226577E+02  0.58046559179E+02  0.00000000000E+00 0. -1.
         13    1    3    3    0    0  0.50126724835E+02  0.29843529739E+02  0.96440096808E+01  0.59129787186E+02  0.00000000000E+00 0.  1.
          1    1    1    2  501    0 -0.17659513229E+02 -0.14332641747E+02 -0.28446487847E+02  0.36420951357E+02  0.00000000000E+00 0. -1.
<scales pt_clust_5="13000.00000" pt_clust_6="13000.00000" pt_clust_7="13000.00000" pt_clust_8="13000.00000" pt_clust_9="22.74386"></scales>
<clustering>
<clus scale="   22.744">  2  9  1 -1</clus>
<clus scale="   92.692">  5  6 -1 -1</clus>
<clus scale="   92.977">  2  5  1 -1</clus>
<clus scale="  104.111">  7  8 -1 -1</clus>
<clus scale="   22.744">  2  5  1 -1</clus>
</clustering>
</event>
<event>
 9    1  0.1464797E-005  0.1058877E+03  0.7546771E-02  0.1272333E+00
         21   -1    0    0  501  502  0.00000000000E+00  0.00000000000E+00  0.52550728229E+02  0.52550728229E+02  0.00000000000E+00 0.  1.
          1   -1    0    0  502    0 -0.00000000000E+00 -0.00000000000E+00 -0.43409670929E+03  0.43409670929E+03  0.00000000000E+00 0. -1.
         23    2    1    2    0    0 -0.48750787900E+02 -0.64370042288E+01 -0.21534078059E+03  0.24085397109E+03  0.96025565660E+02 0.  0.
         23    2    1    2    0    0  0.29875506788E+02 -0.51388355433E+02 -0.14884046649E+03  0.18253540415E+03  0.87363495373E+02 0.  0.
        -11    1    3    3    0    0 -0.12805892483E+02 -0.49875654017E+02 -0.10128043258E+03  0.11361909069E+03  0.00000000000E+00 0.  1.
         11    1    3    3    0    0 -0.35944895417E+02  0.43438649788E+02 -0.11406034801E+03  0.12723488040E+03  0.00000000000E+00 0. -1.
        -11    1    4    4    0    0  0.57318082547E+02 -0.52748615830E+02 -0.10383535236E+03  0.12980585294E+03  0.00000000000E+00 0.  1.
         11    1    4    4    0    0 -0.27442575759E+02  0.13602603973E+01 -0.45005114133E+02  0.52729551210E+02  0.00000000000E+00 0. -1.
          1    1    1    2  501    0  0.18875281112E+02  0.57825359662E+02 -0.17364733981E+02  0.63258062279E+02  0.00000000000E+00 0. -1.
<scales pt_clust_5="13000.00000" pt_clust_6="13000.00000" pt_clust_7="13000.00000" pt_clust_8="13000.00000" pt_clust_9="60.82802"></scales>
<clustering>
<clus scale="   60.828">  1  9  2 -1</clus>
<clus scale="   87.363">  7  8 -1 -1</clus>
<clus scale="   96.026">  5  6 -1 -1</clus>
<clus scale="   98.100">  1  7  2 -1</clus>
<clus scale="   60.828">  1  5  2 -1</clus>
</clustering>
</event>
<event>
 9    1  0.1464797E-005  0.1299142E+03  0.7546771E-02  0.1228417E+00
          2   -1    0    0  502    0 -0.00000000000E+00  0.00000000000E+00  0.56513529268E+03  0.56513529268E+03  0.00000000000E+00 0. -1.
         21   -1    0    0  501  502  0.00000000000E+00 -0.00000000000E+00 -0.72358149509E+02  0.72358149509E+02  0.00000000000E+00 0.  1.
         23    2    1    2    0    0  0.96180666150E+02 -0.54572361109E+02  0.39207215967E+03  0.41708555185E+03  0.89503720764E+02 0.  0.
         23    2    1    2    0    0 -0.27716905841E+02  0.67259849299E+02  0.10001701917E+03  0.15077505235E+03  0.86241510252E+02 0.  0.
        -11    1    3    3    0    0  0.25765424236E+02  0.20846762425E+02  0.51642776364E+02  0.61363025840E+02  0.00000000000E+00 0.  1.
         11    1    3    3    0    0  0.70415241914E+02 -0.75419123533E+02  0.34042938331E+03  0.35572252601E+03  0.00000000000E+00 0. -1.
        -13    1    4    4    0    0  0.12274118524E+02  0.58181928711E+02  0.23453352057E+02  0.63920658138E+02  0.00000000000E+00 0.  1.
         13    1    4    4    0    0 -0.39991024365E+02  0.90779205872E+01  0.76563667117E+02  0.86854394214E+02  0.00000000000E+00 0. -1.
          2    1    1    2  501    0 -0.68463760310E+02 -0.12687488190E+02  0.68796432959E+00  0.69632837995E+02  0.00000000000E+00 0. -1.
<scales pt_clust_5="13000.00000" pt_clust_6="13000.00000" pt_clust_7="13000.00000" pt_clust_8="13000.00000" pt_clust_9="69.62944"></scales>
<clustering>
<clus scale="   69.629">  2  9  1 -1</clus>
<clus scale="   86.242">  7  8 -1 -1</clus>
<clus scale="   89.504">  5  6 -1 -1</clus>
<clus scale="  127.689">  2  7  1 -1</clus>
<clus scale="   69.629">  2  5  1 -1</clus>
</clustering>
</event>
<event>
 9    1  0.1464797E-005  0.9010086E+02  0.7546771E-02  0.1303268E+00
         21   -1    0    0  501  502  0.00000000000E+00  0.00000000000E+00  0.12820198099E+03  0.12820198099E+03  0.00000000000E+00 0. -1.
          2   -1    0    0  502    0 -0.00000000000E+00 -0.00000000000E+00 -0.20560591542E+03  0.20560591542E+03  0.00000000000E+00 0. -1.
         23    2    1    2    0    0 -0.32106878260E+02  0.18804463378E+02 -0.90310085753E+02  0.13252945604E+03  0.89575028075E+02 0.  0.
         23    2    1    2    0    0 -0.29724001271E+02  0.52401168628E+01 -0.53248058870E+02  0.10758970558E+03  0.88482845211E+02 0.  0.
        -11    1    3    3    0    0 -0.48504706905E+02  0.31779061193E+02 -0.23578281706E+02  0.62598328176E+02  0.00000000000E+00 0. -1.
         11    1    3    3    0    0  0.16397828645E+02 -0.12974597815E+02 -0.66731804047E+02  0.69931127862E+02  0.00000000000E+00 0.  1.
        -11    1    4    4    0    0 -0.52594584179E+02  0.79286808721E+01 -0.63113768996E+02  0.82537277046E+02  0.00000000000E+00 0.  1.
         11    1    4    4    0    0  0.22870582908E+02 -0.26885640093E+01  0.98657101262E+01  0.25052428531E+02  0.00000000000E+00 0. -1.
          2    1    1    2  501    0  0.61830879531E+02 -0.24044580241E+02  0.66154210190E+02  0.93688734800E+02  0.00000000000E+00 0. -1.
<scales pt_clust_5="13000.00000" pt_clust_6="13000.00000" pt_clust_7="13000.00000" pt_clust_8="13000.00000" pt_clust_9="66.34154"></scales>
<clustering>
<clus scale="   66.342">  1  9  2 -1</clus>
<clus scale="   88.483">  7  8 -1 -1</clus>
<clus scale="   89.015">  1  7  2 -1</clus>
<clus scale="   89.575">  5  6 -1 -1</clus>
<clus scale="   66.342">  1  5  2 -1</clus>
</clustering>
</event>
<event>
 9    1  0.3155230E-005  0.1127566E+03  0.7546771E-02  0.1258621E+00
          1   -1    0    0  502    0 -0.00000000000E+00  0.00000000000E+00  0.47947310189E+03  0.47947310189E+03  0.00000000000E+00 0. -1.
         21   -1    0    0  501  502  0.00000000000E+00 -0.00000000000E+00 -0.14308804315E+03  0.14308804315E+03  0.00000000000E+00 0. -1.
         23    2    1    2    0    0 -0.34863103825E+02  0.41027762328E+02  0.42919830052E+03  0.44196219345E+03  0.90667998663E+02 0.  0.
         23    2    1    2    0    0  0.38943426476E+02 -0.69214947870E+02 -0.77069343838E+02  0.14805610623E+03  0.98354600092E+02 0.  0.
        -13    1    3    3    0    0 -0.14393890199E+02  0.68391247289E+02  0.25272344242E+03  0.26220923922E+03  0.00000000000E+00 0. -1.
         13    1    3    3    0    0 -0.20469213627E+02 -0.27363484961E+02  0.17647485810E+03  0.17975295423E+03  0.00000000000E+00 0.  1.
        -13    1    4    4    0    0  0.30182733285E+02 -0.89940666036E+02 -0.36470340934E+02  0.10163860764E+03  0.00000000000E+00 0.  1.
         13    1    4    4    0    0  0.87606931910E+01  0.20725718167E+02 -0.40599002904E+02  0.46417498592E+02  0.00000000000E+00 0. -1.
          1    1    1    2  501    0 -0.40803226504E+01  0.28187185542E+02 -0.15743897934E+02  0.32542845356E+02  0.00000000000E+00 0. -1.
<scales pt_clust_5="13000.00000" pt_clust_6="13000.00000" pt_clust_7="13000.00000" pt_clust_8="13000.00000" pt_clust_9="28.48098"></scales>
<clustering>
<clus scale="   28.481">  2  9  1 -1</clus>
<clus scale="   90.668">  5  6 -1 -1</clus>
<clus scale="   98.355">  7  8 -1 -1</clus>
<clus scale="  106.118">  1  5  2 -1</clus>
<clus scale="   28.481">  2  5  1 -1</clus>
</clustering>
</event>
<event>
 9    1  0.1464797E-005  0.1525465E+03  0.7546771E-02  0.1197997E+00
         21   -1    0    0  501  502  0.00000000000E+00  0.00000000000E+00  0.19277915080E+03  0.19277915080E+03  0.00000000000E+00 0. -1.
          2   -1    0    0  502    0 -0.00000000000E+00 -0.00000000000E+00 -0.21781480132E+03  0.21781480132E+03  0.00000000000E+00 0. -1.
         23    2    1    2    0    0 -0.16907541794E+02  0.11540325147E+03 -0.10676579323E+03  0.18113762455E+03  0.88363618110E+02 0.  0.
         23    2    1    2    0    0  0.58570556486E+02 -0.13060584436E+03  0.65723339050E+02  0.18230610607E+03  0.91801755681E+02 0.  0.
        -13    1    4    4    0    0  0.55125831151E+02 -0.31235157766E+02  0.51933101760E+02  0.81923985493E+02  0.00000000000E+00 0.  1.
         13    1    4    4    0    0  0.34447253358E+01 -0.99370686593E+02  0.13790237291E+02  0.10038212058E+03  0.00000000000E+00 0. -1.
        -13    1    3    3    0    0  0.49445814596E+01  0.29289778454E+02  0.12660509214E+02  0.32289758457E+02  0.00000000000E+00 0.  1.
         13    1    3    3    0    0 -0.21852123253E+02  0.86113473014E+02 -0.11942630245E+03  0.14884786610E+03  0.00000000000E+00 0. -1.
          2    1    1    2  501    0 -0.41663014693E+02  0.15202592891E+02  0.16006803657E+02  0.47150221497E+02  0.00000000000E+00 0. -1.
<scales pt_clust_5="13000.00000" pt_clust_6="13000.00000" pt_clust_7="13000.00000" pt_clust_8="13000.00000" pt_clust_9="44.35004"></scales>
<clustering>
<clus scale="   44.350">  1  9  2 -1</clus>
<clus scale="   88.364">  7  8 -1 -1</clus>
<clus scale="   91.802">  5  6 -1 -1</clus>
<clus scale="  150.502">  2  7  1 -1</clus>
<clus scale="   44.350">  1  5  2 -1</clus>
</clustering>
</event>
<event>
 9    1  0.1464797E-005  0.9465314E+02  0.7546771E-02  0.1295218E+00
          1   -1    0    0  502    0 -0.00000000000E+00  0.00000000000E+00  0.12596681696E+03  0.12596681696E+03  0.00000000000E+00 0. -1.
         21   -1    0    0  501  502  0.00000000000E+00 -0.00000000000E+00 -0.15015909546E+03  0.15015909546E+03  0.00000000000E+00 0.  1.
         23    2    1    2    0    0 -0.21808051332E+02  0.20772087409E+02  0.56998108108E+02  0.10861905796E+03  0.87419933112E+02 0.  0.
         23    2    1    2    0    0 -0.12036378535E+02  0.97712012772E+01 -0.30157334043E+02  0.99076522216E+02  0.93093188124E+02 0.  0.
        -11    1    3    3    0    0 -0.41097287262E+02 -0.13583636317E+02  0.52834481663E+01  0.43605240745E+02  0.00000000000E+00 0.  1.
         11    1    3    3    0    0  0.19289235931E+02  0.34355723727E+02  0.51714659941E+02  0.65013817212E+02  0.00000000000E+00 0. -1.
        -13    1    4    4    0    0 -0.21035131595E+02 -0.31112303944E+02 -0.41234134443E+02  0.55773704029E+02  0.00000000000E+00 0.  1.
         13    1    4    4    0    0  0.89987530602E+01  0.40883505221E+02  0.11076800399E+02  0.43302818187E+02  0.00000000000E+00 0. -1.
          1    1    1    2  501    0  0.33844429866E+02 -0.30543288687E+02 -0.51033052572E+02  0.68430332248E+02  0.00000000000E+00 0. -1.
<scales pt_clust_5="13000.00000" pt_clust_6="13000.00000" pt_clust_7="13000.00000" pt_clust_8="13000.00000" pt_clust_9="45.58879"></scales>
<clustering>
<clus scale="   45.589">  2  9  1 -1</clus>
<clus scale="   87.420">  5  6 -1 -1</clus>
<clus scale="   89.079">  1  5  2 -1</clus>
<clus scale="   93.093">  7  8 -1 -1</clus>
<clus scale="   45.589">  2  5  1 -1</clus>
</clustering>
</event>
<event>
 9    1  0.1464797E-005  0.9576629E+02  0.7546771E-02  0.1289617E+00
          3   -1    0    0  502    0 -0.00000000000E+00  0.00000000000E+00  0.22989189918E+03  0.22989189918E+03  0.00000000000E+00 0. -1.
         21   -1    0    0  501  502  0.00000000000E+00 -0.00000000000E+00 -0.69354476802E+02  0.69354476802E+02  0.00000000000E+00 0.  1.
         23    2    1    2    0    0 -0.18038492767E+02  0.37372369221E+02  0.10129105065E+03  0.14257507800E+03  0.91354773946E+02 0.  0.
         23    2    1    2    0    0  0.25342467037E+02  0.11355452177E+02  0.39340571582E+02  0.10353007577E+03  0.91649381272E+02 0.  0.
        -13    1    3    3    0    0  0.24819693203E+02  0.25017991935E+02  0.38998368456E+01  0.35455970140E+02  0.00000000000E+00 0.  1.
         13    1    3    3    0    0 -0.42858185969E+02  0.12354377286E+02  0.97391213805E+02  0.10711910786E+03  0.00000000000E+00 0. -1.
        -13    1    4    4    0    0 -0.91437709200E+00  0.36679657528E+02 -0.13691929092E+02  0.39162511208E+02  0.00000000000E+00 0.  1.
         13    1    4    4    0    0  0.26256844129E+02 -0.25324205352E+02  0.53032500673E+02  0.64367564565E+02  0.00000000000E+00 0. -1.
          3    1    1    2  501    0 -0.73039742706E+01 -0.48727821398E+02  0.19905800147E+02  0.53141222209E+02  0.00000000000E+00 0. -1.
<scales pt_clust_5="13000.00000" pt_clust_6="13000.00000" pt_clust_7="13000.00000" pt_clust_8="13000.00000" pt_clust_9="49.27219"></scales>
<clustering>
<clus scale="   49.272">  2  9  1 -1</clus>
<clus scale="   91.355">  5  6 -1 -1</clus>
<clus scale="   91.649">  7  8 -1 -1</clus>
<clus scale="   95.484">  1  5  2 -1</clus>
<clus scale="   49.272">  2  5  1 -1</clus>
</clustering>
</event>
<event>
 9    1  0.1464797E-005  0.9318217E+02  0.7546771E-02  0.1296446E+00
          3   -1    0    0  502    0 -0.00000000000E+00  0.00000000000E+00  0.34295973262E+02  0.34295973262E+02  0.00000000000E+00 0. -1.
         21   -1    0    0  501  502  0.00000000000E+00 -0.00000000000E+00 -0.48532381067E+03  0.48532381067E+03  0.00000000000E+00 0.  1.
         23    2    1    2    0    0  0.15722483274E+02  0.19969919961E+02 -0.10277848159E+03  0.14081962177E+03  0.92848023209E+02 0.  0.
         23    2    1    2    0    0  0.24118775047E+02  0.11790639312E+02 -0.18643613830E+03  0.20915471910E+03  0.90920450781E+02 0.  0.
        -11    1    3    3    0    0  0.15935794685E+02 -0.16348450252E+02  0.80375138320E+01  0.24203780830E+02  0.00000000000E+00 0. -1.
         11    1    3    3    0    0 -0.21331141068E+00  0.36318370213E+02 -0.11081599542E+03  0.11661584094E+03  0.00000000000E+00 0.  1.
        -13    1    4    4    0    0 -0.33108403190E+02 -0.62103805339E+01 -0.52234182144E+02  0.62154203175E+02  0.00000000000E+00 0.  1.
         13    1    4    4    0    0  0.57227178237E+02  0.18001019845E+02 -0.13420195616E+03  0.14700051592E+03  0.00000000000E+00 0. -1.
          3    1    1    2  501    0 -0.39841258321E+02 -0.31760559272E+02 -0.16181321752E+03  0.16964544307E+03  0.00000000000E+00 0. -1.
<scales pt_clust_5="13000.00000" pt_clust_6="13000.00000" pt_clust_7="13000.00000" pt_clust_8="13000.00000" pt_clust_9="50.95154"></scales>
<clustering>
<clus scale="   50.952">  2  9  1 -1</clus>
<clus scale="   90.920">  7  8 -1 -1</clus>
<clus scale="   91.262">  2  7  1 -1</clus>
<clus scale="   92.848">  5  6 -1 -1</clus>
<clus scale="   50.952">  2  5  1 -1</clus>
</clustering>
</event>
<event>
 9    1  0.1464797E-005  0.1883915E+03  0.7546771E-02  0.1159984E+00
         -1   -1    0    0    0  501 -0.00000000000E+00  0.00000000000E+00  0.21474997487E+03  0.21474997487E+03  0.00000000000E+00 0.  1.
         21   -1    0    0  501  502  0.00000000000E+00 -0.00000000000E+00 -0.29769991274E+03  0.29769991274E+03  0.00000000000E+00 0.  1.
         23    2    1    2    0    0 -0.38464542878E+02 -0.16503489184E+03  0.11717886477E+03  0.22516149421E+03  0.90833779738E+02 0.  0.
         23    2    1    2    0    0  0.48387800036E+02  0.13762002409E+03 -0.19007451036E+03  0.25644792000E+03  0.91414254700E+02 0.  0.
        -13    1    4    4    0    0  0.71780183169E+02  0.82335590498E+02 -0.14417521022E+03  0.18088127432E+03  0.00000000000E+00 0.  1.
         13    1    4    4    0    0 -0.23392383133E+02  0.55284433592E+02 -0.45899300144E+02  0.75566645684E+02  0.00000000000E+00 0. -1.
        -13    1    3    3    0    0  0.24693106244E+02 -0.30540448917E+02  0.45760378259E+02  0.60303239833E+02  0.00000000000E+00 0.  1.
         13    1    3    3    0    0 -0.63157649122E+02 -0.13449444292E+03  0.71418486513E+02  0.16485825437E+03  0.00000000000E+00 0. -1.
         -1    1    1    2    0  502 -0.99232571582E+01  0.27414867747E+02 -0.10054292279E+02  0.30840473399E+02  0.00000000000E+00 0.  1.
<scales pt_clust_5="13000.00000" pt_clust_6="13000.00000" pt_clust_7="13000.00000" pt_clust_8="13000.00000" pt_clust_9="29.15555"></scales>
<clustering>
<clus scale="   29.156">  2  9  1 -1</clus>
<clus scale="   90.834">  7  8 -1 -1</clus>
<clus scale="   91.414">  5  6 -1 -1</clus>
<clus scale="  188.111">  1  7  2 -1</clus>
<clus scale="   29.156">  2  5  1 -1</clus>
</clustering>
</event>
<event>
 9    1  0.1464797E-005  0.9216930E+02  0.7546771E-02  0.1298045E+00
         -3   -1    0    0    0  501 -0.00000000000E+00  0.00000000000E+00  0.89140758885E+02  0.89140758885E+02  0.00000000000E+00 0.  1.
         21   -1    0    0  501  502  0.00000000000E+00 -0.00000000000E+00 -0.13518039472E+03  0.13518039472E+03  0.00000000000E+00 0. -1.
         23    2    1    2    0    0  0.12568343180E+02 -0.25257885592E+01  0.53655319277E+01  0.93002413059E+02  0.91958235323E+02 0.  0.
         23    2    1    2    0    0  0.85747865681E+01  0.47109176311E+01 -0.58502860425E+02  0.10890927902E+03  0.91339622671E+02 0.  0.
        -11    1    4    4    0    0  0.77808094703E+01  0.28513508203E+02  0.13920793056E+02  0.32670317191E+02  0.00000000000E+00 0.  1.
         11    1    4    4    0    0  0.79397709785E+00 -0.23802590572E+02 -0.72423653481E+02  0.76238961831E+02  0.00000000000E+00 0. -1.
        -13    1    3    3    0    0 -0.21637198089E+02  0.25172778485E+02 -0.23229899509E+02  0.40515001531E+02  0.00000000000E+00 0.  1.
         13    1    3    3    0    0  0.34205541269E+02 -0.27698567045E+02  0.28595431437E+02  0.52487411528E+02  0.00000000000E+00 0. -1.
         -3    1    1    2    0  502 -0.21143129748E+02 -0.21851290719E+01  0.70976926633E+01  0.22409461523E+02  0.00000000000E+00 0.  1.
<scales pt_clust_5="13000.00000" pt_clust_6="13000.00000" pt_clust_7="13000.00000" pt_clust_8="13000.00000" pt_clust_9="21.25576"></scales>
<clustering>
<clus scale="   21.256">  2  9  1 -1</clus>
<clus scale="   91.340">  5  6 -1 -1</clus>
<clus scale="   91.552">  2  5  1 -1</clus>
<clus scale="   91.958">  7  8 -1 -1</clus>
<clus scale="   21.256">  2  5  1 -1</clus>
</clustering>
</event>
<event>
 9    1  0.1464797E-005  0.9186131E+02  0.7546771E-02  0.1299880E+00
         21   -1    0    0  501  502  0.00000000000E+00  0.00000000000E+00  0.40958097269E+02  0.40958097269E+02  0.00000000000E+00 0.  1.
          2   -1    0    0  502    0 -0.00000000000E+00 -0.00000000000E+00 -0.28172119582E+03  0.28172119582E+03  0.00000000000E+00 0. -1.
         23    2    1    2    0    0  0.16361579755E+02 -0.97880308796E+01 -0.14988666892E+03  0.17651963892E+03  0.91266985063E+02 0.  0.
         23    2    1    2    0    0  0.37423146812E+01 -0.31100934201E+01 -0.60642640361E+02  0.10762901448E+03  0.88785118836E+02 0.  0.
        -11    1    4    4    0    0 -0.90260043030E+01 -0.21454666861E+02  0.15703851823E+02  0.28078148904E+02  0.00000000000E+00 0.  1.
         11    1    4    4    0    0  0.12768318984E+02  0.18344573440E+02 -0.76346492184E+02  0.79550865572E+02  0.00000000000E+00 0. -1.
        -11    1    3    3    0    0 -0.33513859051E+02 -0.18838592526E+02 -0.91199859145E+02  0.98972145702E+02  0.00000000000E+00 0. -1.
         11    1    3    3    0    0  0.49875438806E+02  0.90505616459E+01 -0.58686809779E+02  0.77547493217E+02  0.00000000000E+00 0.  1.
          2    1    1    2  501    0 -0.20103894436E+02  0.12898124300E+02 -0.30233789268E+02  0.38530639697E+02  0.00000000000E+00 0. -1.
<scales pt_clust_5="13000.00000" pt_clust_6="13000.00000" pt_clust_7="13000.00000" pt_clust_8="13000.00000" pt_clust_9="23.88574"></scales>
<clustering>
<clus scale="   23.886">  1  9  2 -1</clus>
<clus scale="   88.785">  5  6 -1 -1</clus>
<clus scale="   89.396">  1  5  2 -1</clus>
<clus scale="   91.267">  7  8 -1 -1</clus>
<clus scale="   23.886">  1  5  2 -1</clus>
</clustering>
</event>
<event>
 9    1  0.1464797E-005  0.3194233E+03  0.7546771E-02  0.1105071E+00
         21   -1    0    0  501  502  0.00000000000E+00  0.00000000000E+00  0.90254283112E+02  0.90254283112E+02  0.00000000000E+00 0.  1.
          2   -1    0    0  502    0 -0.00000000000E+00 -0.00000000000E+00 -0.17612273311E+04  0.17612273311E+04  0.00000000000E+00 0. -1.
         23    2    1    2    0    0 -0.10742078907E+03 -0.43457480423E+02 -0.35191121426E+03  0.38171598891E+03  0.91857579649E+02 0.  0.
         23    2    1    2    0    0  0.36270926353E+03 -0.46422800959E+02 -0.80501795410E+03  0.88882519776E+03  0.90792287385E+02 0.  0.
        -11    1    4    4    0    0  0.15775206521E+03 -0.62649346854E+02 -0.40292303826E+03  0.43721576996E+03  0.00000000000E+00 0.  1.
         11    1    4    4    0    0  0.20495719831E+03  0.16226545895E+02 -0.40209491585E+03  0.45160942780E+03  0.00000000000E+00 0. -1.
        -13    1    3    3    0    0 -0.56676362911E+02  0.21060743141E+02 -0.10094650135E+03  0.11766886228E+03  0.00000000000E+00 0. -1.
         13    1    3    3    0    0 -0.50744426157E+02 -0.64518223564E+02 -0.25096471291E+03  0.26404712664E+03  0.00000000000E+00 0.  1.
          2    1    1    2  501    0 -0.25528847446E+03  0.89880281383E+02 -0.51404387964E+03  0.58094042756E+03  0.00000000000E+00 0. -1.
<scales pt_clust_5="13000.00000" pt_clust_6="13000.00000" pt_clust_7="13000.00000" pt_clust_8="13000.00000" pt_clust_9="306.24831"></scales>
<clustering>
<clus scale="   90.792">  5  6 -1 -1</clus>
<clus scale="   91.858">  7  8 -1 -1</clus>
<clus scale="  147.870">  2  7  1 -1</clus>
<clus scale="  306.248">  1  9  2 -1</clus>
<clus scale="  306.248">  1  5  2 -1</clus>
</clustering>
</event>
<event>
 9    1  0.1464797E-005  0.1500575E+03  0.7546771E-02  0.1201967E+00
          1   -1    0    0  502    0 -0.00000000000E+00  0.00000000000E+00  0.19255348404E+03  0.19255348404E+03  0.00000000000E+00 0. -1.
         21   -1    0    0  501  502  0.00000000000E+00 -0.00000000000E+00 -0.20155123246E+03  0.20155123246E+03  0.00000000000E+00 0.  1.
         23    2    1    2    0    0  0.32324248482E+02 -0.10973785580E+03  0.66388301583E+02  0.16055326044E+03  0.91009278738E+02 0.  0.
         23    2    1    2    0    0  0.12531903485E+02  0.11544111604E+03 -0.83445089026E+01  0.15268632278E+03  0.98791611280E+02 0.  0.
        -11    1    3    3    0    0 -0.60489183747E+01 -0.40090466659E+02 -0.18212970146E+02  0.44447128276E+02  0.00000000000E+00 0.  1.
         11    1    3    3    0    0  0.38373166857E+02 -0.69647389138E+02  0.84601271729E+02  0.11610613217E+03  0.00000000000E+00 0. -1.
        -13    1    4    4    0    0 -0.37326631142E+02  0.27616420702E+02 -0.20898877213E+02  0.50918632676E+02  0.00000000000E+00 0.  1.
         13    1    4    4    0    0  0.49858534627E+02  0.87824695338E+02  0.12554368311E+02  0.10176769011E+03  0.00000000000E+00 0. -1.
          1    1    1    2  501    0 -0.44856151967E+02 -0.57032602421E+01 -0.67041541099E+02  0.80865133275E+02  0.00000000000E+00 0. -1.
<scales pt_clust_5="13000.00000" pt_clust_6="13000.00000" pt_clust_7="13000.00000" pt_clust_8="13000.00000" pt_clust_9="45.21727"></scales>
<clustering>
<clus scale="   45.217">  2  9  1 -1</clus>
<clus scale="   91.009">  5  6 -1 -1</clus>
<clus scale="   98.792">  7  8 -1 -1</clus>
<clus scale="  145.052">  1  5  2 -1</clus>
<clus scale="   45.217">  2  5  1 -1</clus>
</clustering>
</event>
<event>
 9    1  0.1464797E-005  0.1231357E+03  0.7546771E-02  0.1238394E+00
         21   -1    0    0  501  502  0.00000000000E+00  0.00000000000E+00  0.23268619690E+03  0.23268619690E+03  0.00000000000E+00 0. -1.
          3   -1    0    0  502    0 -0.00000000000E+00 -0.00000000000E+00 -0.18520241760E+03  0.18520241760E+03  0.00000000000E+00 0. -1.
         23    2    1    2    0    0  0.12540091764E+02 -0.79992349923E+02 -0.10086667094E+03  0.15840169337E+03  0.91438401167E+02 0.  0.
         23    2    1    2    0    0 -0.58016936749E+02  0.75542305436E+02  0.32737356304E+02  0.13517146025E+03  0.90149788170E+02 0.  0.
        -11    1    3    3    0    0  0.47584463666E+02 -0.53828240456E+02 -0.36506272564E+02  0.80588265830E+02  0.00000000000E+00 0.  1.
         11    1    3    3    0    0 -0.35044371903E+02 -0.26164109467E+02 -0.64360398375E+02  0.77813427538E+02  0.00000000000E+00 0. -1.
        -13    1    4    4    0    0 -0.34442997588E+02  0.94688435761E+02  0.26136196639E+02  0.10409284665E+03  0.00000000000E+00 0. -1.
         13    1    4    4    0    0 -0.23573939161E+02 -0.19146130325E+02  0.66011596656E+01  0.31078613593E+02  0.00000000000E+00 0.  1.
          3    1    1    2  501    0  0.45476844985E+02  0.44500444873E+01  0.11561309394E+03  0.12431546089E+03  0.00000000000E+00 0. -1.
<scales pt_clust_5="13000.00000" pt_clust_6="13000.00000" pt_clust_7="13000.00000" pt_clust_8="13000.00000" pt_clust_9="45.69405"></scales>
<clustering>
<clus scale="   45.694">  1  9  2 -1</clus>
<clus scale="   90.150">  7  8 -1 -1</clus>
<clus scale="   91.438">  5  6 -1 -1</clus>
<clus scale="  122.182">  1  7  2 -1</clus>
<clus scale="   45.694">  1  5  2 -1</clus>
</clustering>
</event>
<event>
 9    1  0.1464797E-005  0.1004743E+03  0.7546771E-02  0.1281480E+00
          1   -1    0    0  502    0 -0.00000000000E+00  0.00000000000E+00  0.46192582714E+03  0.46192582714E+03  0.00000000000E+00 0. -1.
         21   -1    0    0  501  502  0.00000000000E+00 -0.00000000000E+00 -0.19007937538E+03  0.19007937538E+03  0.00000000000E+00 0. -1.
         23    2    1    2    0    0  0.23685975308E+02 -0.35923161066E+02  0.32616565616E+03  0.33992097132E+03  0.85502821928E+02 0.  0.
         23    2    1    2    0    0  0.19316194567E+01  0.56916606792E+02  0.10485367973E+03  0.14950196596E+03  0.90073927371E+02 0.  0.
        -11    1    4    4    0    0 -0.22295173804E+02  0.31450559277E+01  0.83970156712E+02  0.86936490440E+02  0.00000000000E+00 0. -1.
         11    1    4    4    0    0  0.24226793260E+02  0.53771550864E+02  0.20883523016E+02  0.62565475524E+02  0.00000000000E+00 0.  1.
        -13    1    3    3    0    0  0.31216232345E+02  0.21167527922E+02  0.14490158257E+03  0.14972970991E+03  0.00000000000E+00 0.  1.
         13    1    3    3    0    0 -0.75302570368E+01 -0.57090688988E+02  0.18126407359E+03  0.19019126141E+03  0.00000000000E+00 0. -1.
          1    1    1    2  501    0 -0.25617594765E+02 -0.20993445725E+02 -0.15917288414E+03  0.16258226524E+03  0.00000000000E+00 0. -1.
<scales pt_clust_5="13000.00000" pt_clust_6="13000.00000" pt_clust_7="13000.00000" pt_clust_8="13000.00000" pt_clust_9="33.12078"></scales>
<clustering>
<clus scale="   33.121">  2  9  1 -1</clus>
<clus scale="   85.503">  7  8 -1 -1</clus>
<clus scale="   90.074">  5  6 -1 -1</clus>
<clus scale="   96.398">  1  7  2 -1</clus>
<clus scale="   33.121">  2  5  1 -1</clus>
</clustering>
</event>
<event>
 9    1  0.1464797E-005  0.1054261E+03  0.7546771E-02  0.1270962E+00
         21   -1    0    0  501  502  0.00000000000E+00  0.00000000000E+00  0.56191310669E+02  0.56191310669E+02  0.00000000000E+00 0.  1.
         -3   -1    0    0    0  501 -0.00000000000E+00 -0.00000000000E+00 -0.43986648438E+03  0.43986648438E+03  0.00000000000E+00 0.  1.
         23    2    1    2    0    0 -0.24141013012E+02 -0.30513043612E+02 -0.26908469238E+03  0.28629784980E+03  0.89699792568E+02 0.  0.
         23    2    1    2    0    0  0.36597857791E+02  0.74358842963E+02 -0.10492484159E+03  0.16316539949E+03  0.93515156452E+02 0.  0.
        -11    1    4    4    0    0  0.37950254764E+02  0.95932470983E+02 -0.83404946920E+02  0.13266365741E+03  0.00000000000E+00 0.  1.
         11    1    4    4    0    0 -0.13523969730E+01 -0.21573628020E+02 -0.21519894672E+02  0.30501742085E+02  0.00000000000E+00 0. -1.
        -11    1    3    3    0    0 -0.47953817787E+02 -0.47653777497E+02 -0.20387003814E+03  0.21478697260E+03  0.00000000000E+00 0.  1.
         11    1    3    3    0    0  0.23812804774E+02  0.17140733885E+02 -0.65214654246E+02  0.71510877199E+02  0.00000000000E+00 0. -1.
         -3    1    1    2    0  502 -0.12456844779E+02 -0.43845799351E+02 -0.96656397334E+01  0.46594545754E+02  0.00000000000E+00 0.  1.
<scales pt_clust_5="13000.00000" pt_clust_6="13000.00000" pt_clust_7="13000.00000" pt_clust_8="13000.00000" pt_clust_9="45.58099"></scales>
<clustering>
<clus scale="   45.581">  1  9  2 -1</clus>
<clus scale="   89.700">  7  8 -1 -1</clus>
<clus scale="   93.515">  5  6 -1 -1</clus>
<clus scale="  102.057">  2  7  1 -1</clus>
<clus scale="   45.581">  1  5  2 -1</clus>
</clustering>
</event>
<event>
 9    1  0.1464797E-005  0.1227243E+03  0.7546771E-02  0.1240532E+00
         21   -1    0    0  501  502  0.00000000000E+00  0.00000000000E+00  0.10770179977E+03  0.10770179977E+03  0.00000000000E+00 0.  1.
         -3   -1    0    0    0  501 -0.00000000000E+00 -0.00000000000E+00 -0.65430639685E+03  0.65430639685E+03  0.00000000000E+00 0.  1.
         23    2    1    2    0    0  0.50050248521E+02  0.72393637930E+02 -0.53516490467E+03  0.55013940764E+03  0.92228121832E+02 0.  0.
         23    2    1    2    0    0  0.24456772643E+02 -0.29229400030E+02 -0.51283545627E+02  0.11699002278E+03  0.98000876649E+02 0.  0.
        -11    1    3    3    0    0  0.64646469042E+02  0.25714855100E+02 -0.40808382480E+03  0.41397201330E+03  0.00000000000E+00 0.  1.
         11    1    3    3    0    0 -0.14596220520E+02  0.46678782830E+02 -0.12708107987E+03  0.13616739434E+03  0.00000000000E+00 0. -1.
        -13    1    4    4    0    0  0.55593799446E+02  0.81514163322E+01 -0.22981360003E+02  0.60706334370E+02  0.00000000000E+00 0.  1.
         13    1    4    4    0    0 -0.31137026803E+02 -0.37380816362E+02 -0.28302185623E+02  0.56283688410E+02  0.00000000000E+00 0. -1.
         -3    1    1    2    0  502 -0.74507021164E+02 -0.43164237900E+02  0.39843853217E+02  0.94878766199E+02  0.00000000000E+00 0.  1.
<scales pt_clust_5="13000.00000" pt_clust_6="13000.00000" pt_clust_7="13000.00000" pt_clust_8="13000.00000" pt_clust_9="86.10719"></scales>
<clustering>
<clus scale="   86.107">  1  9  2 -1</clus>
<clus scale="   92.228">  5  6 -1 -1</clus>
<clus scale="   98.001">  7  8 -1 -1</clus>
<clus scale="  118.166">  2  5  1 -1</clus>
<clus scale="   86.107">  1  5  2 -1</clus>
</clustering>
</event>
<event>
 9    1  0.1464797E-005  0.1009778E+03  0.7546771E-02  0.1278919E+00
         21   -1    0    0  501  502  0.00000000000E+00  0.00000000000E+00  0.27327019158E+03  0.27327019158E+03  0.00000000000E+00 0. -1.
          2   -1    0    0  502    0 -0.00000000000E+00 -0.00000000000E+00 -0.57165738559E+03  0.57165738559E+03  0.00000000000E+00 0. -1.
         23    2    1    2    0    0 -0.30289910980E+02 -0.51683234766E+02 -0.33047189874E+03  0.34755145091E+03  0.89396307027E+02 0.  0.
         23    2    1    2    0    0  0.51891885471E+02 -0.25465884418E+02 -0.21347239817E+03  0.23907993450E+03  0.90815589260E+02 0.  0.
        -11    1    4    4    0    0 -0.36539724163E+01 -0.33375665070E+02 -0.23465246512E+02  0.40962230496E+02  0.00000000000E+00 0.  1.
         11    1    4    4    0    0  0.55545857887E+02  0.79097806520E+01 -0.19000715166E+03  0.19811770400E+03  0.00000000000E+00 0. -1.
        -13    1    3    3    0    0  0.12958384958E+02 -0.61578257562E+02 -0.18047773531E+03  0.19113349913E+03  0.00000000000E+00 0. -1.
         13    1    3    3    0    0 -0.43248295937E+02  0.98950227967E+01 -0.14999416343E+03  0.15641795179E+03  0.00000000000E+00 0.  1.
          2    1    1    2  501    0 -0.21601974491E+02  0.77149119184E+02  0.24555710290E+03  0.25829619176E+03  0.00000000000E+00 0. -1.
<scales pt_clust_5="13000.00000" pt_clust_6="13000.00000" pt_clust_7="13000.00000" pt_clust_8="13000.00000" pt_clust_9="80.11636"></scales>
<clustering>
<clus scale="   80.116">  1  9  2 -1</clus>
<clus scale="   89.396">  7  8 -1 -1</clus>
<clus scale="   90.816">  5  6 -1 -1</clus>
<clus scale="   99.703">  2  7  1 -1</clus>
<clus scale="   80.116">  1  5  2 -1</clus>
</clustering>
</event>
<event>
 9    1  0.1464797E-005  0.1003644E+03  0.7546771E-02  0.1279848E+00
         -1   -1    0    0    0  501 -0.00000000000E+00  0.00000000000E+00  0.24568387025E+03  0.24568387025E+03  0.00000000000E+00 0.  1.
         21   -1    0    0  501  502  0.00000000000E+00 -0.00000000000E+00 -0.16836662157E+03  0.16836662157E+03  0.00000000000E+00 0.  1.
         23    2    1    2    0    0 -0.37209604410E+02  0.46915907517E+02  0.11955564579E+03  0.16240194807E+03  0.92169318428E+02 0.  0.
         23    2    1    2    0    0  0.14956400163E+02 -0.12777481447E+02  0.79790308137E+02  0.12299535825E+03  0.91511785797E+02 0.  0.
        -13    1    4    4    0    0  0.44276799797E+02  0.20885150657E+02  0.42392709922E+02  0.64759295648E+02  0.00000000000E+00 0. -1.
         13    1    4    4    0    0 -0.29320399634E+02 -0.33662632104E+02  0.37397598215E+02  0.58236062599E+02  0.00000000000E+00 0.  1.
        -13    1    3    3    0    0 -0.24032052863E+02  0.74574871417E+02  0.76045611151E+02  0.10918738932E+03  0.00000000000E+00 0.  1.
         13    1    3    3    0    0 -0.13177551546E+02 -0.27658963901E+02  0.43510034638E+02  0.53214558751E+02  0.00000000000E+00 0. -1.
         -1    1    1    2    0  502  0.22253204246E+02 -0.34138426070E+02 -0.12202870525E+03  0.12865318550E+03  0.00000000000E+00 0.  1.
<scales pt_clust_5="13000.00000" pt_clust_6="13000.00000" pt_clust_7="13000.00000" pt_clust_8="13000.00000" pt_clust_9="40.75092"></scales>
<clustering>
<clus scale="   40.751">  2  9  1 -1</clus>
<clus scale="   91.512">  5  6 -1 -1</clus>
<clus scale="   92.169">  7  8 -1 -1</clus>
<clus scale="   99.761">  2  5  1 -1</clus>
<clus scale="   40.751">  2  5  1 -1</clus>
</clustering>
</event>
<event>
 9    1  0.1464797E-005  0.9957814E+02  0.7546771E-02  0.1282558E+00
          4   -1    0    0  502    0 -0.00000000000E+00  0.00000000000E+00  0.42320465353E+03  0.42320465353E+03  0.00000000000E+00 0. -1.
         21   -1    0    0  501  502  0.00000000000E+00 -0.00000000000E+00 -0.39343444015E+02  0.39343444015E+02  0.00000000000E+00 0.  1.
         23    2    1    2    0    0  0.34442295228E+02 -0.26197952858E+02  0.21893612603E+03  0.24160438787E+03  0.92558351982E+02 0.  0.
         23    2    1    2    0    0 -0.35042471378E+02 -0.45393695821E+01  0.16388125770E+03  0.19018281283E+03  0.89798969909E+02 0.  0.
        -11    1    3    3    0    0 -0.29485748064E+02 -0.14291205984E+02  0.10958917424E+03  0.11438284407E+03  0.00000000000E+00 0. -1.
         11    1    3    3    0    0  0.63928043292E+02 -0.11906746874E+02  0.10934695179E+03  0.12722154380E+03  0.00000000000E+00 0.  1.
        -13    1    4    4    0    0  0.21089306258E+02 -0.12510372359E+02  0.10528615296E+02  0.26685576536E+02  0.00000000000E+00 0.  1.
         13    1    4    4    0    0 -0.56131777636E+02  0.79710027774E+01  0.15335264240E+03  0.16349723630E+03  0.00000000000E+00 0. -1.
          4    1    1    2  501    0  0.60017614995E+00  0.30737322440E+02  0.10438257859E+01  0.30760896841E+02  0.00000000000E+00 0. -1.
<scales pt_clust_5="13000.00000" pt_clust_6="13000.00000" pt_clust_7="13000.00000" pt_clust_8="13000.00000" pt_clust_9="30.74318"></scales>
<clustering>
<clus scale="   30.743">  2  9  1 -1</clus>
<clus scale="   89.799">  7  8 -1 -1</clus>
<clus scale="   92.558">  5  6 -1 -1</clus>
<clus scale="   97.019">  2  7  1 -1</clus>
<clus scale="   30.743">  2  5  1 -1</clus>
</clustering>
</event>
<event>
 9    1  0.1464797E-005  0.1859848E+03  0.7546771E-02  0.1162270E+00
         21   -1    0    0  501  502  0.00000000000E+00  0.00000000000E+00  0.22381663332E+03  0.22381663332E+03  0.00000000000E+00 0.  1.
         -3   -1    0    0    0  501 -0.00000000000E+00 -0.00000000000E+00 -0.24085022554E+03  0.24085022554E+03  0.00000000000E+00 0.  1.
         23    2    1    2    0    0  0.15010793952E+03  0.70642469111E+02 -0.37797059464E+02  0.19251518823E+03  0.90059580528E+02 0.  0.
         23    2    1    2    0    0 -0.16856919025E+03  0.37396083144E+01 -0.68042425581E+01  0.19070543165E+03  0.88840910472E+02 0.  0.
        -11    1    4    4    0    0 -0.15270749746E+03 -0.14578848613E+02  0.19852675781E+02  0.15468112794E+03  0.00000000000E+00 0.  1.
         11    1    4    4    0    0 -0.15861692795E+02  0.18318456928E+02 -0.26656918339E+02  0.36024303711E+02  0.00000000000E+00 0. -1.
        -13    1    3    3    0    0  0.11984013864E+03  0.65840179322E+02 -0.65126421828E+02  0.15145309129E+03  0.00000000000E+00 0.  1.
         13    1    3    3    0    0  0.30267800879E+02  0.48022897893E+01  0.27329362364E+02  0.41062096933E+02  0.00000000000E+00 0. -1.
         -3    1    1    2    0  502  0.18461250732E+02 -0.74382077425E+02  0.27567709800E+02  0.81446238982E+02  0.00000000000E+00 0.  1.
<scales pt_clust_5="13000.00000" pt_clust_6="13000.00000" pt_clust_7="13000.00000" pt_clust_8="13000.00000" pt_clust_9="76.63884"></scales>
<clustering>
<clus scale="   76.639">  1  9  2 -1</clus>
<clus scale="   88.841">  5  6 -1 -1</clus>
<clus scale="   90.060">  7  8 -1 -1</clus>
<clus scale="  185.398">  1  5  2 -1</clus>
<clus scale="   76.639">  1  5  2 -1</clus>
</clustering>
</event>
<event>
 9    1  0.1464797E-005  0.9659761E+02  0.7546771E-02  0.1290099E+00
         21   -1    0    0  501  502  0.00000000000E+00  0.00000000000E+00  0.73073178157E+02  0.73073178157E+02  0.00000000000E+00 0.  1.
         -1   -1    0    0    0  501 -0.00000000000E+00 -0.00000000000E+00 -0.51515200347E+03  0.51515200347E+03  0.00000000000E+00 0.  1.
         23    2    1    2    0    0  0.33536777161E+02 -0.12322293642E+02 -0.27870384968E+03  0.29700051592E+03  0.96212869660E+02 0.  0.
         23    2    1    2    0    0  0.42847875888E+02 -0.39319032807E+02 -0.16743338396E+03  0.19893212810E+03  0.90322348933E+02 0.  0.
        -13    1    3    3    0    0  0.58527423972E+02 -0.68634346727E+01 -0.25632992280E+03  0.26301634059E+03  0.00000000000E+00 0.  1.
         13    1    3    3    0    0 -0.24990646811E+02 -0.54588589693E+01 -0.22373926881E+02  0.33984175337E+02  0.00000000000E+00 0. -1.
        -13    1    4    4    0    0  0.38309851387E+02 -0.67760970240E+02 -0.11099537744E+03  0.13556978872E+03  0.00000000000E+00 0.  1.
         13    1    4    4    0    0  0.45380245013E+01  0.28441937433E+02 -0.56438006523E+02  0.63362339379E+02  0.00000000000E+00 0. -1.
         -1    1    1    2    0  502 -0.76384653049E+02  0.51641326449E+02  0.40584083317E+01  0.92292537602E+02  0.00000000000E+00 0.  1.
<scales pt_clust_5="13000.00000" pt_clust_6="13000.00000" pt_clust_7="13000.00000" pt_clust_8="13000.00000" pt_clust_9="92.20326"></scales>
<clustering>
<clus scale="   90.322">  7  8 -1 -1</clus>
<clus scale="   92.203">  1  9  2 -1</clus>
<clus scale="   92.203">  1  7  2 -1</clus>
<clus scale="   96.213">  5  6 -1 -1</clus>
<clus scale="   92.203">  1  5  2 -1</clus>
</clustering>
</event>
<event>
 9    1  0.1464797E-005  0.1019202E+03  0.7546771E-02  0.1280290E+00
         21   -1    0    0  501  502  0.00000000000E+00  0.00000000000E+00  0.41504837460E+03  0.41504837460E+03  0.00000000000E+00 0.  1.
         -1   -1    0    0    0  501 -0.00000000000E+00 -0.00000000000E+00 -0.51865779397E+03  0.51865779397E+03  0.00000000000E+00 0.  1.
         23    2    1    2    0    0 -0.20880595989E+02  0.47079045120E+02 -0.48033803996E+03  0.49153777878E+03  0.90732130751E+02 0.  0.
         23    2    1    2    0    0 -0.11668923765E+02  0.52057691090E+00  0.26488959942E+02  0.87213441745E+02  0.82268369620E+02 0.  0.
        -11    1    3    3    0    0 -0.24677751093E+02  0.69063944442E+02 -0.43346864260E+03  0.43962925738E+03  0.00000000000E+00 0.  1.
         11    1    3    3    0    0  0.37971551034E+01 -0.21984899322E+02 -0.46869397360E+02  0.51908521400E+02  0.00000000000E+00 0. -1.
        -11    1    4    4    0    0 -0.44969970099E+02  0.10834448464E+02  0.24379334512E+02  0.52288004699E+02  0.00000000000E+00 0. -1.
         11    1    4    4    0    0  0.33301046334E+02 -0.10313871553E+02  0.21096254306E+01  0.34925437045E+02  0.00000000000E+00 0.  1.
         -1    1    1    2    0  502  0.32549519754E+02 -0.47599622031E+02  0.35023966065E+03  0.35495494805E+03  0.00000000000E+00 0.  1.
<scales pt_clust_5="13000.00000" pt_clust_6="13000.00000" pt_clust_7="13000.00000" pt_clust_8="13000.00000" pt_clust_9="57.66451"></scales>
<clustering>
<clus scale="   57.665">  1  9  2 -1</clus>
<clus scale="   82.268">  7  8 -1 -1</clus>
<clus scale="   90.732">  5  6 -1 -1</clus>
<clus scale="   94.464">  1  7  2 -1</clus>
<clus scale="   57.665">  1  5  2 -1</clus>
</clustering>
</event>
<event>
 9    1  0.1464797E-005  0.9190162E+02  0.7546771E-02  0.1301286E+00
         21   -1    0    0  501  502  0.00000000000E+00  0.00000000000E+00  0.96704697313E+02  0.96704697313E+02  0.00000000000E+00 0. -1.
         -3   -1    0    0    0  501 -0.00000000000E+00 -0.00000000000E+00 -0.12617334977E+03  0.12617334977E+03  0.00000000000E+00 0.  1.
         23    2    1    2    0    0 -0.18390255055E+01 -0.15020608036E+01 -0.36190994210E+02  0.93468717086E+02  0.86145080012E+02 0.  0.
         23    2    1    2    0    0 -0.15454756285E+02  0.28913191644E+02  0.56178163029E+01  0.96979945808E+02  0.91097353892E+02 0.  0.
        -11    1    4    4    0    0 -0.52285202032E+02  0.11063136595E+02 -0.75775271495E+01  0.53977349514E+02  0.00000000000E+00 0. -1.
         11    1    4    4    0    0  0.36830445748E+02  0.17850055048E+02  0.13195343452E+02  0.43002596294E+02  0.00000000000E+00 0.  1.
        -13    1    3    3    0    0  0.29343052035E+01 -0.42393484891E+02 -0.71616606344E+01  0.43094165397E+02  0.00000000000E+00 0. -1.
         13    1    3    3    0    0 -0.47733307090E+01  0.40891424088E+02 -0.29029333575E+02  0.50374551688E+02  0.00000000000E+00 0.  1.
         -3    1    1    2    0  502  0.17293781790E+02 -0.27411130840E+02  0.11045254486E+01  0.32429384191E+02  0.00000000000E+00 0.  1.
<scales pt_clust_5="13000.00000" pt_clust_6="13000.00000" pt_clust_7="13000.00000" pt_clust_8="13000.00000" pt_clust_9="32.41057"></scales>
<clustering>
<clus scale="   32.411">  1  9  2 -1</clus>
<clus scale="   86.145">  7  8 -1 -1</clus>
<clus scale="   86.995">  2  7  1 -1</clus>
<clus scale="   91.097">  5  6 -1 -1</clus>
<clus scale="   32.411">  1  5  2 -1</clus>
</clustering>
</event>
<event>
 9    1  0.1464797E-005  0.1641188E+03  0.7546771E-02  0.1207222E+00
         21   -1    0    0  501  502  0.00000000000E+00  0.00000000000E+00  0.10372370134E+03  0.10372370134E+03  0.00000000000E+00 0.  1.
         -1   -1    0    0    0  501 -0.00000000000E+00 -0.00000000000E+00 -0.45618633643E+03  0.45618633643E+03  0.00000000000E+00 0.  1.
         23    2    1    2    0    0 -0.34728659045E+02 -0.18811308718E+02 -0.15087086072E+03  0.18045386498E+03  0.90783454877E+02 0.  0.
         23    2    1    2    0    0 -0.11033370544E+03  0.10397646685E+00 -0.18185757309E+03  0.23186724173E+03  0.92285987727E+02 0.  0.
        -11    1    3    3    0    0  0.17100250174E+02  0.21176970455E+02 -0.18894675937E+02  0.33134444502E+02  0.00000000000E+00 0.  1.
         11    1    3    3    0    0 -0.51828909219E+02 -0.39988279173E+02 -0.13197618478E+03  0.14731942048E+03  0.00000000000E+00 0. -1.
        -13    1    4    4    0    0 -0.54665150977E-01  0.20272836835E+02 -0.72402225357E+02  0.75186921325E+02  0.00000000000E+00 0.  1.
         13    1    4    4    0    0 -0.11027904029E+03 -0.20168860368E+02 -0.10945534774E+03  0.15668032041E+03  0.00000000000E+00 0. -1.
         -1    1    1    2    0  502  0.14506236448E+03  0.18707332251E+02 -0.19734201279E+02  0.14758893105E+03  0.00000000000E+00 0.  1.
<scales pt_clust_5="13000.00000" pt_clust_6="13000.00000" pt_clust_7="13000.00000" pt_clust_8="13000.00000" pt_clust_9="135.71394"></scales>
<clustering>
<clus scale="   90.783">  5  6 -1 -1</clus>
<clus scale="   92.286">  7  8 -1 -1</clus>
<clus scale="   99.003">  2  5  1 -1</clus>
<clus scale="  135.714">  1  9  2 -1</clus>
<clus scale="  135.714">  1  5  2 -1</clus>
</clustering>
</event>
<event>
 9    1  0.1464797E-005  0.9792250E+02  0.7546771E-02  0.1285339E+00
         -1   -1    0    0    0  501 -0.00000000000E+00  0.00000000000E+00  0.57704611666E+03  0.57704611666E+03  0.00000000000E+00 0.  1.
         21   -1    0    0  501  502  0.00000000000E+00 -0.00000000000E+00 -0.75706550088E+02  0.75706550088E+02  0.00000000000E+00 0.  1.
         23    2    1    2    0    0  0.38099619758E+02 -0.77396599969E+01  0.37678342858E+03  0.38965578053E+03  0.91402362568E+02 0.  0.
         23    2    1    2    0    0 -0.28308741552E+02 -0.28864631694E+02  0.17441445075E+03  0.20047431189E+03  0.90194219802E+02 0.  0.
        -11    1    3    3    0    0  0.35629231278E+02  0.35118368909E+02  0.26946610023E+03  0.27407064988E+03  0.00000000000E+00 0.  1.
         11    1    3    3    0    0  0.24703884797E+01 -0.42858028906E+02  0.10731732835E+03  0.11558513064E+03  0.00000000000E+00 0. -1.
        -13    1    4    4    0    0 -0.37296894581E+02 -0.33324632709E+01  0.17661710841E+02  0.41401687003E+02  0.00000000000E+00 0. -1.
         13    1    4    4    0    0  0.89881530286E+01 -0.25532168423E+02  0.15675273991E+03  0.15907262488E+03  0.00000000000E+00 0.  1.
         -1    1    1    2    0  502 -0.97908782057E+01  0.36604291691E+02 -0.49858312752E+02  0.62622574338E+02  0.00000000000E+00 0.  1.
<scales pt_clust_5="13000.00000" pt_clust_6="13000.00000" pt_clust_7="13000.00000" pt_clust_8="13000.00000" pt_clust_9="37.89110"></scales>
<clustering>
<clus scale="   37.891">  2  9  1 -1</clus>
<clus scale="   90.194">  7  8 -1 -1</clus>
<clus scale="   91.402">  5  6 -1 -1</clus>
<clus scale="   96.796">  2  7  1 -1</clus>
<clus scale="   37.891">  2  5  1 -1</clus>
</clustering>
</event>
<event>
 9    1  0.1464797E-005  0.1382708E+03  0.7546771E-02  0.1232626E+00
         21   -1    0    0  501  502  0.00000000000E+00  0.00000000000E+00  0.31001050031E+03  0.31001050031E+03  0.00000000000E+00 0.  1.
         -1   -1    0    0    0  501 -0.00000000000E+00 -0.00000000000E+00 -0.27269349570E+03  0.27269349570E+03  0.00000000000E+00 0.  1.
         23    2    1    2    0    0  0.57655509397E+01  0.31872230223E+02 -0.42962654908E+01  0.97195153033E+02  0.91538840056E+02 0.  0.
         23    2    1    2    0    0 -0.44366027647E+02 -0.12797740759E+03 -0.17903698006E+03  0.24176156644E+03  0.89709829538E+02 0.  0.
        -11    1    4    4    0    0 -0.39704703459E+02 -0.84036879732E+02 -0.17402643910E+03  0.19729131288E+03  0.00000000000E+00 0.  1.
         11    1    4    4    0    0 -0.46613241880E+01 -0.43940527853E+02 -0.50105409669E+01  0.44470253563E+02  0.00000000000E+00 0. -1.
        -11    1    3    3    0    0  0.10121648644E+02 -0.30128667702E+02  0.10187420968E+02  0.33376158178E+02  0.00000000000E+00 0.  1.
         11    1    3    3    0    0 -0.43560977047E+01  0.62000897925E+02 -0.14483686458E+02  0.63818994854E+02  0.00000000000E+00 0. -1.
         -1    1    1    2    0  502  0.38600476707E+02  0.96105177362E+02  0.22065025017E+03  0.24374727653E+03  0.00000000000E+00 0.  1.
<scales pt_clust_5="13000.00000" pt_clust_6="13000.00000" pt_clust_7="13000.00000" pt_clust_8="13000.00000" pt_clust_9="105.21864"></scales>
<clustering>
<clus scale="   89.710">  5  6 -1 -1</clus>
<clus scale="   91.539">  7  8 -1 -1</clus>
<clus scale="   97.100">  2  7  1 -1</clus>
<clus scale="  105.219">  1  9  2 -1</clus>
<clus scale="  105.219">  1  5  2 -1</clus>
</clustering>
</event>
<event>
 9    1  0.1464797E-005  0.1040060E+03  0.7546771E-02  0.1273655E+00
         21   -1    0    0  501  502  0.00000000000E+00  0.00000000000E+00  0.73925212753E+02  0.73925212753E+02  0.00000000000E+00 0. -1.
         -2   -1    0    0    0  501 -0.00000000000E+00 -0.00000000000E+00 -0.25392608127E+03  0.25392608127E+03  0.00000000000E+00 0.  1.
         23    2    1    2    0    0  0.45300149034E+02  0.14331483722E+02 -0.16604248573E+03  0.19393057924E+03  0.88212627047E+02 0.  0.
         23    2    1    2    0    0 -0.57610228161E+02  0.28097495301E+01  0.47079411777E+00  0.10835587424E+03  0.91727535423E+02 0.  0.
        -13    1    4    4    0    0 -0.10906577844E+02 -0.41536584555E+02 -0.70324853965E+01  0.43516630701E+02  0.00000000000E+00 0.  1.
         13    1    4    4    0    0 -0.46703650317E+02  0.44346334085E+02  0.75032795143E+01  0.64839243542E+02  0.00000000000E+00 0. -1.
        -13    1    3    3    0    0 -0.19312072837E+02 -0.17273977544E+02 -0.27218047177E+02  0.37578831136E+02  0.00000000000E+00 0. -1.
         13    1    3    3    0    0  0.64612221871E+02  0.31605461266E+02 -0.13882443855E+03  0.15635174811E+03  0.00000000000E+00 0.  1.
         -2    1    1    2    0  502  0.12310079127E+02 -0.17141233252E+02 -0.14429176908E+02  0.25564840539E+02  0.00000000000E+00 0.  1.
<scales pt_clust_5="13000.00000" pt_clust_6="13000.00000" pt_clust_7="13000.00000" pt_clust_8="13000.00000" pt_clust_9="21.10356"></scales>
<clustering>
<clus scale="   21.104">  1  9  2 -1</clus>
<clus scale="   88.213">  7  8 -1 -1</clus>
<clus scale="   91.728">  5  6 -1 -1</clus>
<clus scale="  100.920">  2  7  1 -1</clus>
<clus scale="   21.104">  1  5  2 -1</clus>
</clustering>
</event>
<event>
 9    1  0.1464797E-005  0.2595162E+03  0.7546771E-02  0.1107485E+00
         21   -1    0    0  501  502  0.00000000000E+00  0.00000000000E+00  0.49583405344E+02  0.49583405344E+02  0.00000000000E+00 0.  1.
         -2   -1    0    0    0  501 -0.00000000000E+00 -0.00000000000E+00 -0.20078424737E+04  0.20078424737E+04  0.00000000000E+00 0.  1.
         23    2    1    2    0    0  0.16120278980E+01 -0.24330964008E+03 -0.13729230944E+04  0.13972134847E+04  0.89919514974E+02 0.  0.
         23    2    1    2    0    0  0.19315569039E+02  0.24239778467E+03 -0.58414449751E+03  0.63923108340E+03  0.90894481632E+02 0.  0.
        -11    1    4    4    0    0  0.46306700697E+02  0.75703322359E+02 -0.16504346400E+03  0.18738902997E+03  0.00000000000E+00 0.  1.
         11    1    4    4    0    0 -0.26991131658E+02  0.16669446231E+03 -0.41910103351E+03  0.45184205342E+03  0.00000000000E+00 0. -1.
        -13    1    3    3    0    0 -0.23906604261E+02 -0.22735554536E+03 -0.12432732755E+04  0.12641164927E+04  0.00000000000E+00 0.  1.
         13    1    3    3    0    0  0.25518632159E+02 -0.15954094716E+02 -0.12964981894E+03  0.13309699199E+03  0.00000000000E+00 0. -1.
         -2    1    1    2    0  502 -0.20927596937E+02  0.91185540819E+00 -0.11914764987E+01  0.20981310971E+02  0.00000000000E+00 0.  1.
<scales pt_clust_5="13000.00000" pt_clust_6="13000.00000" pt_clust_7="13000.00000" pt_clust_8="13000.00000" pt_clust_9="20.94745"></scales>
<clustering>
<clus scale="   20.947">  1  9  2 -1</clus>
<clus scale="   89.920">  7  8 -1 -1</clus>
<clus scale="   90.894">  5  6 -1 -1</clus>
<clus scale="  259.176">  2  7  1 -1</clus>
<clus scale="   20.947">  1  5  2 -1</clus>
</clustering>
</event>
<event>
 9    1  0.1464797E-005  0.1125422E+03  0.7546771E-02  0.1257434E+00
          2   -1    0    0  502    0 -0.00000000000E+00  0.00000000000E+00  0.29396376616E+03  0.29396376616E+03  0.00000000000E+00 0.  1.
         21   -1    0    0  501  502  0.00000000000E+00 -0.00000000000E+00 -0.83404704308E+02  0.83404704308E+02  0.00000000000E+00 0. -1.
         23    2    1    2    0    0  0.61810973517E+02  0.13541082635E+02  0.15781375860E+03  0.19103730090E+03  0.87098281080E+02 0.  0.
         23    2    1    2    0    0 -0.55966657001E+02 -0.57277224368E+02  0.68644254357E+02  0.13942932764E+03  0.91189673880E+02 0.  0.
        -11    1    3    3    0    0  0.52159377747E+01  0.33678250195E+02  0.17295102605E+02  0.38217157367E+02  0.00000000000E+00 0.  1.
         11    1    3    3    0    0  0.56595035742E+02 -0.20137167560E+02  0.14051865600E+03  0.15282014354E+03  0.00000000000E+00 0. -1.
        -13    1    4    4    0    0 -0.32855933406E+02 -0.37356062693E+02  0.89551093844E+02  0.10244211140E+03  0.00000000000E+00 0.  1.
         13    1    4    4    0    0 -0.23110723594E+02 -0.19921161675E+02 -0.20906839487E+02  0.36987216236E+02  0.00000000000E+00 0. -1.
          2    1    1    2  501    0 -0.58443165162E+01  0.43736141733E+02 -0.15898951109E+02  0.46901841921E+02  0.00000000000E+00 0.  1.
<scales pt_clust_5="13000.00000" pt_clust_6="13000.00000" pt_clust_7="13000.00000" pt_clust_8="13000.00000" pt_clust_9="44.12489"></scales>
<clustering>
<clus scale="   44.125">  2  9  1 -1</clus>
<clus scale="   87.098">  5  6 -1 -1</clus>
<clus scale="   91.190">  7  8 -1 -1</clus>
<clus scale="  109.253">  1  5  2 -1</clus>
<clus scale="   44.125">  2  5  1 -1</clus>
</clustering>
</event>
<event>
 9    1  0.1464797E-005  0.1058396E+03  0.7546771E-02  0.1269922E+00
          1   -1    0    0  502    0 -0.00000000000E+00  0.00000000000E+00  0.44135833377E+03  0.44135833377E+03  0.00000000000E+00 0. -1.
         21   -1    0    0  501  502  0.00000000000E+00 -0.00000000000E+00 -0.56834193710E+02  0.56834193710E+02  0.00000000000E+00 0. -1.
         23    2    1    2    0    0  0.96241095823E+01  0.22477470802E+02  0.20417664434E+03  0.22754545684E+03  0.97421623152E+02 0.  0.
         23    2    1    2    0    0 -0.46898528584E+02 -0.46345058571E+02  0.19295009266E+03  0.22462675440E+03  0.94234304245E+02 0.  0.
        -11    1    3    3    0    0  0.25361253260E+02  0.55994567627E+02  0.10483713486E+03  0.12152945987E+03  0.00000000000E+00 0.  1.
         11    1    3    3    0    0 -0.15737143678E+02 -0.33517096826E+02  0.99339509472E+02  0.10601599697E+03  0.00000000000E+00 0. -1.
        -13    1    4    4    0    0 -0.52425319767E+02 -0.30953930401E+01  0.41235012135E+02  0.66770665989E+02  0.00000000000E+00 0. -1.
         13    1    4    4    0    0  0.55267911829E+01 -0.43249665531E+02  0.15171508052E+03  0.15785608841E+03  0.00000000000E+00 0.  1.
          1    1    1    2  501    0  0.37274419002E+02  0.23867587769E+02 -0.12602596932E+02  0.46020316245E+02  0.00000000000E+00 0. -1.
<scales pt_clust_5="13000.00000" pt_clust_6="13000.00000" pt_clust_7="13000.00000" pt_clust_8="13000.00000" pt_clust_9="44.26109"></scales>
<clustering>
<clus scale="   44.261">  2  9  1 -1</clus>
<clus scale="   94.234">  7  8 -1 -1</clus>
<clus scale="   97.422">  5  6 -1 -1</clus>
<clus scale="  102.913">  2  7  1 -1</clus>
<clus scale="   44.261">  2  5  1 -1</clus>
</clustering>
</event>
<event>
 9    1  0.1464797E-005  0.1753184E+03  0.7546771E-02  0.1172536E+00
         21   -1    0    0  501  502  0.00000000000E+00  0.00000000000E+00  0.49969109308E+02  0.49969109308E+02  0.00000000000E+00 0.  1.
          2   -1    0    0  502    0 -0.00000000000E+00 -0.00000000000E+00 -0.80755058112E+03  0.80755058112E+03  0.00000000000E+00 0. -1.
         23    2    1    2    0    0 -0.11032507221E+03  0.87758624126E+02 -0.40511489010E+03  0.43859983383E+03  0.91534378158E+02 0.  0.
         23    2    1    2    0    0  0.14637503664E+03 -0.76317994229E+02 -0.30113120627E+03  0.35515616223E+03  0.90585918243E+02 0.  0.
        -13    1    4    4    0    0  0.15317344814E+03 -0.52872204088E+02 -0.27645805479E+03  0.32044754834E+03  0.00000000000E+00 0. -1.
         13    1    4    4    0    0 -0.67984114916E+01 -0.23445790141E+02 -0.24673151480E+02  0.34708613889E+02  0.00000000000E+00 0.  1.
        -13    1    3    3    0    0 -0.46019343233E+02  0.26536218715E+02 -0.51424933619E+02  0.73935611535E+02  0.00000000000E+00 0.  1.
         13    1    3    3    0    0 -0.64305728976E+02  0.61222405411E+02 -0.35368995649E+03  0.36466422229E+03  0.00000000000E+00 0. -1.
          2    1    1    2  501    0 -0.36049964436E+02 -0.11440629897E+02 -0.51335375435E+02  0.63763694367E+02  0.00000000000E+00 0. -1.
<scales pt_clust_5="13000.00000" pt_clust_6="13000.00000" pt_clust_7="13000.00000" pt_clust_8="13000.00000" pt_clust_9="37.82179"></scales>
<clustering>
<clus scale="   37.822">  1  9  2 -1</clus>
<clus scale="   90.586">  5  6 -1 -1</clus>
<clus scale="   91.534">  7  8 -1 -1</clus>
<clus scale="  174.825">  1  5  2 -1</clus>
<clus scale="   37.822">  1  5  2 -1</clus>
</clustering>
</event>
<event>
 9    1  0.1464797E-005  0.1076001E+03  0.7546771E-02  0.1265180E+00
         21   -1    0    0  501  502  0.00000000000E+00  0.00000000000E+00  0.71433581605E+02  0.71433581605E+02  0.00000000000E+00 0.  1.
          2   -1    0    0  502    0 -0.00000000000E+00 -0.00000000000E+00 -0.25885589220E+03  0.25885589220E+03  0.00000000000E+00 0. -1.
         23    2    1    2    0    0  0.17286262537E+02 -0.55129492489E+02 -0.12559654724E+03  0.16496410576E+03  0.90003264920E+02 0.  0.
         23    2    1    2    0    0  0.22696902869E+01  0.61686242271E+02 -0.81844916321E+02  0.13658179929E+03  0.90253274679E+02 0.  0.
        -11    1    3    3    0    0  0.49028295418E+02 -0.26554182546E+02 -0.37895780130E+02  0.67416529976E+02  0.00000000000E+00 0.  1.
         11    1    3    3    0    0 -0.31742032882E+02 -0.28575309942E+02 -0.87700767112E+02  0.97547575786E+02  0.00000000000E+00 0. -1.
        -11    1    4    4    0    0 -0.16786501161E+02  0.79067727651E+02 -0.47925867246E+02  0.93970106568E+02  0.00000000000E+00 0.  1.
         11    1    4    4    0    0  0.19056191448E+02 -0.17381485380E+02 -0.33919049074E+02  0.42611692722E+02  0.00000000000E+00 0. -1.
          2    1    1    2  501    0 -0.19555952824E+02 -0.65567497824E+01  0.20019152974E+02  0.28743568747E+02  0.00000000000E+00 0. -1.
<scales pt_clust_5="13000.00000" pt_clust_6="13000.00000" pt_clust_7="13000.00000" pt_clust_8="13000.00000" pt_clust_9="20.62586"></scales>
<clustering>
<clus scale="   20.626">  1  9  2 -1</clus>
<clus scale="   90.003">  5  6 -1 -1</clus>
<clus scale="   90.253">  7  8 -1 -1</clus>
<clus scale="  107.390">  2  5  1 -1</clus>
<clus scale="   20.626">  1  5  2 -1</clus>
</clustering>
</event>
<event>
 9    1  0.1464797E-005  0.1461279E+03  0.7546771E-02  0.1207122E+00
         21   -1    0    0  501  502  0.00000000000E+00  0.00000000000E+00  0.28715933416E+02  0.28715933416E+02  0.00000000000E+00 0. -1.
         -1   -1    0    0    0  501 -0.00000000000E+00 -0.00000000000E+00 -0.12485427700E+04  0.12485427700E+04  0.00000000000E+00 0.  1.
         23    2    1    2    0    0  0.42110888493E+02 -0.11371509386E+03 -0.67114557580E+03  0.68706060722E+03  0.83135098328E+02 0.  0.
         23    2    1    2    0    0 -0.93367042972E+02  0.64327539487E+02 -0.37748078985E+03  0.40479063910E+03  0.92240326047E+02 0.  0.
        -11    1    3    3    0    0 -0.19291594018E+01 -0.10100680349E+03 -0.44648928501E+03  0.45777590329E+03  0.00000000000E+00 0. -1.
         11    1    3    3    0    0  0.44040047895E+02 -0.12708290375E+02 -0.22465629079E+03  0.22928470393E+03  0.00000000000E+00 0.  1.
        -13    1    4    4    0    0 -0.95824558468E+02  0.43977162972E+02 -0.36684845904E+03  0.38169900284E+03  0.00000000000E+00 0. -1.
         13    1    4    4    0    0  0.24575154966E+01  0.20350376515E+02 -0.10632330805E+02  0.23091636258E+02  0.00000000000E+00 0.  1.
         -1    1    1    2    0  502  0.51256154479E+02  0.49387554376E+02 -0.17120047096E+03  0.18540745712E+03  0.00000000000E+00 0.  1.
<scales pt_clust_5="13000.00000" pt_clust_6="13000.00000" pt_clust_7="13000.00000" pt_clust_8="13000.00000" pt_clust_9="71.17811"></scales>
<clustering>
<clus scale="   71.178">  1  9  2 -1</clus>
<clus scale="   83.135">  5  6 -1 -1</clus>
<clus scale="   92.240">  7  8 -1 -1</clus>
<clus scale="  140.558">  2  5  1 -1</clus>
<clus scale="   71.178">  1  5  2 -1</clus>
</clustering>
</event>
<event>
 9    1  0.1464797E-005  0.1233658E+03  0.7546771E-02  0.1242989E+00
         21   -1    0    0  501  502  0.00000000000E+00  0.00000000000E+00  0.31917711788E+03  0.31917711788E+03  0.00000000000E+00 0.  1.
         -1   -1    0    0    0  501 -0.00000000000E+00 -0.00000000000E+00 -0.10420395937E+03  0.10420395937E+03  0.00000000000E+00 0.  1.
         23    2    1    2    0    0 -0.75904028534E+02 -0.44952627229E+02  0.87446624935E+00  0.11676304223E+03  0.76489758120E+02 0.  0.
         23    2    1    2    0    0  0.34194585617E+02  0.67630470736E+02  0.41501039919E+02  0.12760990167E+03  0.93908468373E+02 0.  0.
        -11    1    3    3    0    0 -0.55779136286E+02  0.11386898764E+02 -0.68185272729E-01  0.56929589472E+02  0.00000000000E+00 0.  1.
         11    1    3    3    0    0 -0.20124892248E+02 -0.56339525993E+02  0.94265152208E+00  0.59833452758E+02  0.00000000000E+00 0. -1.
        -11    1    4    4    0    0 -0.75402835415E+01  0.69159243445E+02  0.12098548578E+01  0.69579598867E+02  0.00000000000E+00 0.  1.
         11    1    4    4    0    0  0.41734869158E+02 -0.15287727089E+01  0.40291185061E+02  0.58030302802E+02  0.00000000000E+00 0. -1.
         -1    1    1    2    0  502  0.41709442917E+02 -0.22677843507E+02  0.17259765234E+03  0.17900813336E+03  0.00000000000E+00 0.  1.
<scales pt_clust_5="13000.00000" pt_clust_6="13000.00000" pt_clust_7="13000.00000" pt_clust_8="13000.00000" pt_clust_9="47.47591"></scales>
<clustering>
<clus scale="   47.476">  1  9  2 -1</clus>
<clus scale="   76.490">  5  6 -1 -1</clus>
<clus scale="   93.908">  7  8 -1 -1</clus>
<clus scale="  110.684">  2  5  1 -1</clus>
<clus scale="   47.476">  1  5  2 -1</clus>
</clustering>
</event>
<event>
 9    1  0.1464797E-005  0.1167847E+03  0.7546771E-02  0.1248597E+00
         21   -1    0    0  501  502  0.00000000000E+00  0.00000000000E+00  0.64718814624E+02  0.64718814624E+02  0.00000000000E+00 0. -1.
          3   -1    0    0  502    0 -0.00000000000E+00 -0.00000000000E+00 -0.30551187082E+03  0.30551187082E+03  0.00000000000E+00 0. -1.
         23    2    1    2    0    0  0.61336862569E+02 -0.95856133758E+01 -0.14993924298E+03  0.18653850122E+03  0.91982287208E+02 0.  0.
         23    2    1    2    0    0 -0.90965057873E+02  0.55676780838E+01 -0.75724149650E+02  0.15018277539E+03  0.92277182386E+02 0.  0.
        -11    1    4    4    0    0  0.13757238400E+02  0.17059528982E+02 -0.28880208334E+01  0.22104972333E+02  0.00000000000E+00 0.  1.
         11    1    4    4    0    0 -0.10472229627E+03 -0.11491850898E+02 -0.72836128816E+02  0.12807780305E+03  0.00000000000E+00 0. -1.
        -13    1    3    3    0    0  0.34062210114E+02 -0.50751035888E+02 -0.74349608920E+02  0.96248460498E+02  0.00000000000E+00 0.  1.
         13    1    3    3    0    0  0.27274652454E+02  0.41165422512E+02 -0.75589634059E+02  0.90290040726E+02  0.00000000000E+00 0. -1.
          3    1    1    2  501    0  0.29628195304E+02  0.40179352920E+01 -0.15129663570E+02  0.33509408839E+02  0.00000000000E+00 0. -1.
<scales pt_clust_5="13000.00000" pt_clust_6="13000.00000" pt_clust_7="13000.00000" pt_clust_8="13000.00000" pt_clust_9="29.89939"></scales>
<clustering>
<clus scale="   29.899">  1  9  2 -1</clus>
<clus scale="   91.982">  7  8 -1 -1</clus>
<clus scale="   92.277">  5  6 -1 -1</clus>
<clus scale="  116.552">  2  7  1 -1</clus>
<clus scale="   29.899">  1  5  2 -1</clus>
</clustering>
</event>
<event>
 9    1  0.1464797E-005  0.1034209E+03  0.7546771E-02  0.1273650E+00
          3   -1    0    0  502    0 -0.00000000000E+00  0.00000000000E+00  0.24620241702E+03  0.24620241702E+03  0.00000000000E+00 0. -1.
         21   -1    0    0  501  502  0.00000000000E+00 -0.00000000000E+00 -0.10750837245E+03  0.10750837245E+03  0.00000000000E+00 0. -1.
         23    2    1    2    0    0  0.27194619883E+02 -0.45334251437E+02  0.18775641430E+03  0.21581219117E+03  0.92345487404E+02 0.  0.
         23    2    1    2    0    0 -0.10242669542E+02  0.15611755427E+02 -0.27038144736E+02  0.97206315545E+02  0.91484246317E+02 0.  0.
        -11    1    3    3    0    0  0.12008469997E+02  0.23408591020E+02  0.17562204300E+02  0.31632206769E+02  0.00000000000E+00 0.  1.
         11    1    3    3    0    0  0.15186149887E+02 -0.68742842457E+02  0.17019421000E+03  0.18417998440E+03  0.00000000000E+00 0. -1.
        -13    1    4    4    0    0  0.16511460150E+02  0.48344187924E+02 -0.14125213729E+02  0.53002929025E+02  0.00000000000E+00 0.  1.
         13    1    4    4    0    0 -0.26754129692E+02 -0.32732432497E+02 -0.12912931007E+02  0.44203386521E+02  0.00000000000E+00 0. -1.
          3    1    1    2  501    0 -0.16951950341E+02  0.29722496009E+02 -0.22024224995E+02  0.40692282757E+02  0.00000000000E+00 0. -1.
<scales pt_clust_5="13000.00000" pt_clust_6="13000.00000" pt_clust_7="13000.00000" pt_clust_8="13000.00000" pt_clust_9="34.21689"></scales>
<clustering>
<clus scale="   34.217">  2  9  1 -1</clus>
<clus scale="   91.484">  7  8 -1 -1</clus>
<clus scale="   92.345">  5  6 -1 -1</clus>
<clus scale="  102.653">  2  7  1 -1</clus>
<clus scale="   34.217">  2  5  1 -1</clus>
</clustering>
</event>
<event>
 9    1  0.1464797E-005  0.1109966E+03  0.7546771E-02  0.1261104E+00
         21   -1    0    0  501  502  0.00000000000E+00  0.00000000000E+00  0.12660770898E+03  0.12660770898E+03  0.00000000000E+00 0. -1.
          1   -1    0    0  502    0 -0.00000000000E+00 -0.00000000000E+00 -0.62654565986E+03  0.62654565986E+03  0.00000000000E+00 0. -1.
         23    2    1    2    0    0 -0.69312205935E+02 -0.11474136647E+02 -0.39398998668E+03  0.41162414395E+03  0.96283376425E+02 0.  0.
         23    2    1    2    0    0  0.36596676329E+02  0.44927838039E+01 -0.21034496426E+03  0.23190359473E+03  0.90414442607E+02 0.  0.
        -11    1    3    3    0    0 -0.93688571479E+02 -0.10273928855E+02 -0.29614289373E+03  0.31077920707E+03  0.00000000000E+00 0. -1.
         11    1    3    3    0    0  0.24376365544E+02 -0.12002077925E+01 -0.97847092946E+02  0.10084493688E+03  0.00000000000E+00 0.  1.
        -13    1    4    4    0    0 -0.67818921161E+01 -0.33732057569E+02 -0.11833729181E+03  0.12323782050E+03  0.00000000000E+00 0. -1.
         13    1    4    4    0    0  0.43378568445E+02  0.38224841373E+02 -0.92007672451E+02  0.10866577423E+03  0.00000000000E+00 0.  1.
          1    1    1    2  501    0  0.32715529606E+02  0.69813528434E+01  0.10439700006E+03  0.10962563015E+03  0.00000000000E+00 0. -1.
<scales pt_clust_5="13000.00000" pt_clust_6="13000.00000" pt_clust_7="13000.00000" pt_clust_8="13000.00000" pt_clust_9="33.45213"></scales>
<clustering>
<clus scale="   33.452">  1  9  2 -1</clus>
<clus scale="   90.414">  7  8 -1 -1</clus>
<clus scale="   96.283">  5  6 -1 -1</clus>
<clus scale="  105.946">  1  7  2 -1</clus>
<clus scale="   33.452">  1  5  2 -1</clus>
</clustering>
</event>
<event>
 9    1  0.1464797E-005  0.1236111E+03  0.7546771E-02  0.1242717E+00
         21   -1    0    0  501  502  0.00000000000E+00  0.00000000000E+00  0.32383668815E+03  0.32383668815E+03  0.00000000000E+00 0.  1.
          1   -1    0    0  502    0 -0.00000000000E+00 -0.00000000000E+00 -0.92818215262E+02  0.92818215262E+02  0.00000000000E+00 0. -1.
         23    2    1    2    0    0 -0.34933448830E+02 -0.84434780192E+02 -0.24115141537E+02  0.12994154253E+03  0.89183442798E+02 0.  0.
         23    2    1    2    0    0  0.75011218747E+01  0.66927978990E+02  0.17428122845E+03  0.19955758674E+03  0.70097522291E+02 0.  0.
        -11    1    4    4    0    0  0.37163512906E+01  0.30022834125E+02  0.11118616249E+02  0.32230505164E+02  0.00000000000E+00 0. -1.
         11    1    4    4    0    0  0.37847705840E+01  0.36905144865E+02  0.16316261221E+03  0.16732708157E+03  0.00000000000E+00 0.  1.
        -11    1    3    3    0    0  0.24415102147E+02 -0.36084462058E+02  0.12156587991E+02  0.45232380508E+02  0.00000000000E+00 0.  1.
         11    1    3    3    0    0 -0.59348550977E+02 -0.48350318134E+02 -0.36271729528E+02  0.84709162017E+02  0.00000000000E+00 0. -1.
          1    1    1    2  501    0  0.27432326956E+02  0.17506801202E+02  0.80852385975E+02  0.87155774154E+02  0.00000000000E+00 0. -1.
<scales pt_clust_5="13000.00000" pt_clust_6="13000.00000" pt_clust_7="13000.00000" pt_clust_8="13000.00000" pt_clust_9="32.54260"></scales>
<clustering>
<clus scale="   32.543">  1  9  2 -1</clus>
<clus scale="   70.098">  5  6 -1 -1</clus>
<clus scale="   89.183">  7  8 -1 -1</clus>
<clus scale="  110.633">  1  5  2 -1</clus>
<clus scale="   32.543">  1  5  2 -1</clus>
</clustering>
</event>
<event>
 9    1  0.1464797E-005  0.1338523E+03  0.7546771E-02  0.1222039E+00
          1   -1    0    0  502    0 -0.00000000000E+00  0.00000000000E+00  0.92050944438E+03  0.92050944438E+03  0.00000000000E+00 0. -1.
         21   -1    0    0  501  502  0.00000000000E+00 -0.00000000000E+00 -0.58519757310E+02  0.58519757310E+02  0.00000000000E+00 0.  1.
         23    2    1    2    0    0  0.36518117744E+02  0.84955313266E+02  0.57635517664E+03  0.59055360346E+03  0.89539325094E+02 0.  0.
         23    2    1    2    0    0 -0.57651512733E+02 -0.97648928338E+02  0.31700146106E+03  0.34858031230E+03  0.90328830836E+02 0.  0.
        -11    1    3    3    0    0  0.61527387746E+02  0.33827651420E+02  0.36356709762E+03  0.37028497663E+03  0.00000000000E+00 0.  1.
         11    1    3    3    0    0 -0.25009270003E+02  0.51127661846E+02  0.21278807902E+03  0.22026862683E+03  0.00000000000E+00 0. -1.
        -13    1    4    4    0    0 -0.70867250490E+02 -0.32715728928E+02  0.18786491408E+03  0.20343478575E+03  0.00000000000E+00 0. -1.
         13    1    4    4    0    0  0.13215737757E+02 -0.64933199410E+02  0.12913654698E+03  0.14514552654E+03  0.00000000000E+00 0.  1.
          1    1    1    2  501    0  0.21133394989E+02  0.12693615072E+02 -0.31366950637E+02  0.39895285933E+02  0.00000000000E+00 0. -1.
<scales pt_clust_5="13000.00000" pt_clust_6="13000.00000" pt_clust_7="13000.00000" pt_clust_8="13000.00000" pt_clust_9="24.65255"></scales>
<clustering>
<clus scale="   24.653">  2  9  1 -1</clus>
<clus scale="   89.539">  5  6 -1 -1</clus>
<clus scale="   90.329">  7  8 -1 -1</clus>
<clus scale="  133.321">  1  5  2 -1</clus>
<clus scale="   24.653">  2  5  1 -1</clus>
</clustering>
</event>
<event>
 9    1  0.1464797E-005  0.1225593E+03  0.7546771E-02  0.1239385E+00
         21   -1    0    0  501  502  0.00000000000E+00  0.00000000000E+00  0.12558233622E+03  0.12558233622E+03  0.00000000000E+00 0. -1.
          2   -1    0    0  502    0 -0.00000000000E+00 -0.00000000000E+00 -0.20194191655E+03  0.20194191655E+03  0.00000000000E+00 0. -1.
         23    2    1    2    0    0 -0.51594594875E+02  0.55457074403E+02 -0.10309347295E+03  0.15617687587E+03  0.89584948901E+02 0.  0.
         23    2    1    2    0    0  0.51745975700E+02 -0.87714900005E+02  0.17248443563E+02  0.13772351673E+03  0.91097247872E+02 0.  0.
        -11    1    3    3    0    0  0.31932059597E+01  0.53480190566E+02 -0.21180134714E+02  0.57610115898E+02  0.00000000000E+00 0.  1.
         11    1    3    3    0    0 -0.54787800835E+02  0.19768838370E+01 -0.81913338241E+02  0.98566759974E+02  0.00000000000E+00 0. -1.
        -13    1    4    4    0    0  0.16972651630E+02 -0.98718047997E+02  0.12601159442E+02  0.10095599597E+03  0.00000000000E+00 0. -1.
         13    1    4    4    0    0  0.34773324070E+02  0.11003147992E+02  0.46472841212E+01  0.36767520753E+02  0.00000000000E+00 0.  1.
          2    1    1    2  501    0 -0.15138082479E+00  0.32257825602E+02  0.94854490642E+01  0.33623860169E+02  0.00000000000E+00 0. -1.
<scales pt_clust_5="13000.00000" pt_clust_6="13000.00000" pt_clust_7="13000.00000" pt_clust_8="13000.00000" pt_clust_9="32.25818"></scales>
<clustering>
<clus scale="   32.258">  1  9  2 -1</clus>
<clus scale="   89.585">  5  6 -1 -1</clus>
<clus scale="   91.097">  7  8 -1 -1</clus>
<clus scale="  121.439">  2  5  1 -1</clus>
<clus scale="   32.258">  1  5  2 -1</clus>
</clustering>
</event>
<event>
 9    1  0.1464797E-005  0.9413010E+02  0.7546771E-02  0.1293491E+00
         -3   -1    0    0    0  501 -0.00000000000E+00  0.00000000000E+00  0.55453611089E+02  0.55453611089E+02  0.00000000000E+00 0.  1.
         21   -1    0    0  501  502  0.00000000000E+00 -0.00000000000E+00 -0.29307933087E+03  0.29307933087E+03  0.00000000000E+00 0.  1.
         23    2    1    2    0    0  0.24599351029E+02 -0.73302388399E+01 -0.35029885092E+02  0.99851185166E+02  0.89912768042E+02 0.  0.
         23    2    1    2    0    0 -0.32851119699E+02 -0.11070873693E+02 -0.81032550486E+02  0.12545706489E+03  0.89282924362E+02 0.  0.
        -11    1    4    4    0    0 -0.36037271036E+02 -0.45023166662E+02 -0.32669360436E+02  0.66280144473E+02  0.00000000000E+00 0.  1.
         11    1    4    4    0    0  0.31861513369E+01  0.33952292969E+02 -0.48363190050E+02  0.59176920417E+02  0.00000000000E+00 0. -1.
        -13    1    3    3    0    0  0.33127863691E+02 -0.44087672851E+02 -0.26413095357E+02  0.61145971711E+02  0.00000000000E+00 0.  1.
         13    1    3    3    0    0 -0.85285126616E+01  0.36757434011E+02 -0.86167897349E+01  0.38705213455E+02  0.00000000000E+00 0. -1.
         -3    1    1    2    0  502  0.82517686696E+01  0.18401112533E+02 -0.12156328421E+03  0.12322469191E+03  0.00000000000E+00 0.  1.
<scales pt_clust_5="13000.00000" pt_clust_6="13000.00000" pt_clust_7="13000.00000" pt_clust_8="13000.00000" pt_clust_9="20.16662"></scales>
<clustering>
<clus scale="   20.167">  2  9  1 -1</clus>
<clus scale="   89.283">  5  6 -1 -1</clus>
<clus scale="   89.913">  7  8 -1 -1</clus>
<clus scale="   93.529">  2  5  1 -1</clus>
<clus scale="   20.167">  2  5  1 -1</clus>
</clustering>
</event>
<event>
 9    1  0.1464797E-005  0.1094068E+03  0.7546771E-02  0.1262832E+00
          1   -1    0    0  502    0 -0.00000000000E+00  0.00000000000E+00  0.70475470595E+03  0.70475470595E+03  0.00000000000E+00 0. -1.
         21   -1    0    0  501  502  0.00000000000E+00 -0.00000000000E+00 -0.40006861739E+02  0.40006861739E+02  0.00000000000E+00 0. -1.
         23    2    1    2    0    0 -0.47772963914E+02  0.60420432189E+02  0.22752502322E+03  0.25627170434E+03  0.89300982925E+02 0.  0.
         23    2    1    2    0    0  0.64460186707E+02  0.29603834584E+02  0.16989455542E+03  0.20591733533E+03  0.92229530714E+02 0.  0.
        -11    1    3    3    0    0  0.83058327769E+01  0.19164802505E+02  0.28784121186E+01  0.21084633492E+02  0.00000000000E+00 0.  1.
         11    1    3    3    0    0 -0.56078796690E+02  0.41255629684E+02  0.22464661110E+03  0.23518707085E+03  0.00000000000E+00 0. -1.
        -13    1    4    4    0    0  0.80944325323E+02  0.45334371413E+02  0.14527612915E+03  0.17237268558E+03  0.00000000000E+00 0. -1.
         13    1    4    4    0    0 -0.16484138615E+02 -0.15730536829E+02  0.24618426268E+02  0.33544649748E+02  0.00000000000E+00 0.  1.
          1    1    1    2  501    0 -0.16687222794E+02 -0.90024266773E+02  0.26732826558E+03  0.28257252802E+03  0.00000000000E+00 0. -1.
<scales pt_clust_5="13000.00000" pt_clust_6="13000.00000" pt_clust_7="13000.00000" pt_clust_8="13000.00000" pt_clust_9="91.55785"></scales>
<clustering>
<clus scale="   89.301">  5  6 -1 -1</clus>
<clus scale="   91.558">  2  9  1 -1</clus>
<clus scale="   92.230">  7  8 -1 -1</clus>
<clus scale="  106.950">  1  5  2 -1</clus>
<clus scale="   91.558">  2  5  1 -1</clus>
</clustering>
</event>
<event>
 9    1  0.1464797E-005  0.2129107E+03  0.7546771E-02  0.1139294E+00
         21   -1    0    0  501  502  0.00000000000E+00  0.00000000000E+00  0.38267708386E+03  0.38267708386E+03  0.00000000000E+00 0. -1.
          1   -1    0    0  502    0 -0.00000000000E+00 -0.00000000000E+00 -0.74410503790E+03  0.74410503790E+03  0.00000000000E+00 0. -1.
         23    2    1    2    0    0 -0.18570729035E+03 -0.41189309134E+02 -0.64685223783E+03  0.68046318977E+03  0.91807288210E+02 0.  0.
         23    2    1    2    0    0  0.21891261912E+03 -0.66200369172E+01  0.11033003158E+03  0.26180247043E+03  0.91658376364E+02 0.  0.
        -11    1    4    4    0    0  0.13340561116E+03 -0.67727403327E+01  0.16075316752E+02  0.13454123126E+03  0.00000000000E+00 0. -1.
         11    1    4    4    0    0  0.85507007963E+02  0.15270341549E+00  0.94254714828E+02  0.12726123918E+03  0.00000000000E+00 0.  1.
        -13    1    3    3    0    0 -0.14886996985E+02 -0.37488467582E+02 -0.11992019780E+03  0.12652217877E+03  0.00000000000E+00 0.  1.
         13    1    3    3    0    0 -0.17082029337E+03 -0.37008415519E+01 -0.52693204004E+03  0.55394101100E+03  0.00000000000E+00 0. -1.
          1    1    1    2  501    0 -0.33205328766E+02  0.47809346051E+02  0.17509425221E+03  0.18451646156E+03  0.00000000000E+00 0. -1.
<scales pt_clust_5="13000.00000" pt_clust_6="13000.00000" pt_clust_7="13000.00000" pt_clust_8="13000.00000" pt_clust_9="58.20934"></scales>
<clustering>
<clus scale="   58.209">  1  9  2 -1</clus>
<clus scale="   91.658">  5  6 -1 -1</clus>
<clus scale="   91.807">  7  8 -1 -1</clus>
<clus scale="  212.847">  1  5  2 -1</clus>
<clus scale="   58.209">  1  5  2 -1</clus>
</clustering>
</event>
<event>
 9    1  0.1464797E-005  0.1279351E+03  0.7546771E-02  0.1230595E+00
         21   -1    0    0  501  502  0.00000000000E+00  0.00000000000E+00  0.98048017712E+02  0.98048017712E+02  0.00000000000E+00 0.  1.
          1   -1    0    0  502    0 -0.00000000000E+00 -0.00000000000E+00 -0.52665845921E+03  0.52665845921E+03  0.00000000000E+00 0. -1.
         23    2    1    2    0    0 -0.46470569635E+02 -0.79937788290E+02 -0.41901381327E+03  0.43807596187E+03  0.88251962147E+02 0.  0.
         23    2    1    2    0    0  0.83886466157E+02  0.56355415272E+02 -0.30522420591E+02  0.13770233896E+03  0.88416310492E+02 0.  0.
        -11    1    3    3    0    0 -0.14603623010E+02 -0.91625275587E+02 -0.27971581160E+03  0.29470220934E+03  0.00000000000E+00 0. -1.
         11    1    3    3    0    0 -0.31866946624E+02  0.11687487297E+02 -0.13929800166E+03  0.14337375253E+03  0.00000000000E+00 0.  1.
        -11    1    4    4    0    0  0.80507877445E+02  0.78162574374E+02 -0.25370595136E+02  0.11504161621E+03  0.00000000000E+00 0.  1.
         11    1    4    4    0    0  0.33785887124E+01 -0.21807159102E+02 -0.51518254556E+01  0.22660722745E+02  0.00000000000E+00 0. -1.
          1    1    1    2  501    0 -0.37415896522E+02  0.23582373017E+02  0.20925792360E+02  0.48928176091E+02  0.00000000000E+00 0. -1.
<scales pt_clust_5="13000.00000" pt_clust_6="13000.00000" pt_clust_7="13000.00000" pt_clust_8="13000.00000" pt_clust_9="44.22757"></scales>
<clustering>
<clus scale="   44.228">  1  9  2 -1</clus>
<clus scale="   88.252">  5  6 -1 -1</clus>
<clus scale="   88.416">  7  8 -1 -1</clus>
<clus scale="  127.822">  2  5  1 -1</clus>
<clus scale="   44.228">  1  5  2 -1</clus>
</clustering>
</event>
<event>
 9    1  0.1464797E-005  0.1439867E+03  0.7546771E-02  0.1208989E+00
          1   -1    0    0  502    0 -0.00000000000E+00  0.00000000000E+00  0.76058322402E+03  0.76058322402E+03  0.00000000000E+00 0. -1.
         21   -1    0    0  501  502  0.00000000000E+00 -0.00000000000E+00 -0.55081146352E+02  0.55081146352E+02  0.00000000000E+00 0. -1.
         23    2    1    2    0    0 -0.46872975492E+02 -0.11691870287E+03  0.48308245459E+03  0.50796457201E+03  0.93767209499E+02 0.  0.
         23    2    1    2    0    0 -0.18421524614E+02  0.91530918113E+02  0.19171460951E+03  0.23120986950E+03  0.89365825191E+02 0.  0.
        -11    1    3    3    0    0  0.11722564788E+02 -0.90297294636E+02  0.24633846149E+03  0.26262836396E+03  0.00000000000E+00 0. -1.
         11    1    3    3    0    0 -0.58595540280E+02 -0.26621408236E+02  0.23674399309E+03  0.24533620805E+03  0.00000000000E+00 0.  1.
        -13    1    4    4    0    0  0.79241173761E+01  0.84497034542E+02  0.81470529862E+02  0.11764347716E+03  0.00000000000E+00 0. -1.
         13    1    4    4    0    0 -0.26345641991E+02  0.70338835711E+01  0.11024407965E+03  0.11356639234E+03  0.00000000000E+00 0.  1.
          1    1    1    2  501    0  0.65294500106E+02  0.25387784760E+02  0.30705013567E+02  0.76489928862E+02  0.00000000000E+00 0. -1.
<scales pt_clust_5="13000.00000" pt_clust_6="13000.00000" pt_clust_7="13000.00000" pt_clust_8="13000.00000" pt_clust_9="70.05649"></scales>
<clustering>
<clus scale="   70.056">  2  9  1 -1</clus>
<clus scale="   89.366">  7  8 -1 -1</clus>
<clus scale="   93.767">  5  6 -1 -1</clus>
<clus scale="  141.160">  2  7  1 -1</clus>
<clus scale="   70.056">  2  5  1 -1</clus>
</clustering>
</event>
<event>
 9    1  0.1464797E-005  0.1936979E+03  0.7546771E-02  0.1179883E+00
         -2   -1    0    0    0  501 -0.00000000000E+00  0.00000000000E+00  0.65210538863E+03  0.65210538863E+03  0.00000000000E+00 0.  1.
         21   -1    0    0  501  502  0.00000000000E+00 -0.00000000000E+00 -0.10631689107E+03  0.10631689107E+03  0.00000000000E+00 0. -1.
         23    2    1    2    0    0 -0.57038621202E+02 -0.23030205366E+02  0.21772896677E+03  0.24383788667E+03  0.90924239546E+02 0.  0.
         23    2    1    2    0    0  0.16590269880E+03  0.97614205538E+02  0.68317676541E+02  0.22324268418E+03  0.90098571113E+02 0.  0.
        -11    1    4    4    0    0  0.15112669353E+03  0.11481890061E+03  0.59412977619E+02  0.19887825257E+03  0.00000000000E+00 0. -1.
         11    1    4    4    0    0  0.14776005270E+02 -0.17204695077E+02  0.89046989226E+01  0.24364431603E+02  0.00000000000E+00 0.  1.
        -13    1    3    3    0    0 -0.17139159776E+02  0.15289308149E+02  0.43137218981E+01  0.23369251980E+02  0.00000000000E+00 0.  1.
         13    1    3    3    0    0 -0.39899461426E+02 -0.38319513516E+02  0.21341524487E+03  0.22046863469E+03  0.00000000000E+00 0. -1.
         -2    1    1    2    0  502 -0.10886407760E+03 -0.74584000172E+02  0.25974185425E+03  0.29134170886E+03  0.00000000000E+00 0.  1.
<scales pt_clust_5="13000.00000" pt_clust_6="13000.00000" pt_clust_7="13000.00000" pt_clust_8="13000.00000" pt_clust_9="171.46762"></scales>
<clustering>
<clus scale="   90.099">  5  6 -1 -1</clus>
<clus scale="   90.924">  7  8 -1 -1</clus>
<clus scale="  109.777">  1  7  2 -1</clus>
<clus scale="  171.468">  2  9  1 -1</clus>
<clus scale="  171.468">  2  5  1 -1</clus>
</clustering>
</event>
<event>
 9    1  0.1464797E-005  0.9022226E+02  0.7546771E-02  0.1302822E+00
         21   -1    0    0  501  502  0.00000000000E+00  0.00000000000E+00  0.22222124839E+03  0.22222124839E+03  0.00000000000E+00 0.  1.
         -3   -1    0    0    0  501 -0.00000000000E+00 -0.00000000000E+00 -0.13357506373E+03  0.13357506373E+03  0.00000000000E+00 0.  1.
         23    2    1    2    0    0 -0.89149383785E+00  0.73461811126E+01 -0.65249567634E+02  0.11086666138E+03  0.89326084607E+02 0.  0.
         23    2    1    2    0    0 -0.15911663768E+01  0.26870312275E+02  0.73059885700E+01  0.94379025194E+02  0.90163614809E+02 0.  0.
        -11    1    3    3    0    0  0.65214210433E+01  0.26654683413E+02 -0.80578490592E+02  0.85122818483E+02  0.00000000000E+00 0.  1.
         11    1    3    3    0    0 -0.74129148811E+01 -0.19308502300E+02  0.15328922958E+02  0.25743842898E+02  0.00000000000E+00 0. -1.
        -13    1    4    4    0    0  0.26867053212E+02  0.49787904971E+02 -0.22227815311E+01  0.56618148923E+02  0.00000000000E+00 0.  1.
         13    1    4    4    0    0 -0.28458219589E+02 -0.22917592696E+02  0.95287701010E+01  0.37760876272E+02  0.00000000000E+00 0. -1.
         -3    1    1    2    0  502  0.24826602147E+01 -0.34216493388E+02  0.14658976373E+03  0.15055062554E+03  0.00000000000E+00 0.  1.
<scales pt_clust_5="13000.00000" pt_clust_6="13000.00000" pt_clust_7="13000.00000" pt_clust_8="13000.00000" pt_clust_9="34.30644"></scales>
<clustering>
<clus scale="   34.306">  1  9  2 -1</clus>
<clus scale="   89.326">  5  6 -1 -1</clus>
<clus scale="   89.385">  2  5  1 -1</clus>
<clus scale="   90.164">  7  8 -1 -1</clus>
<clus scale="   34.306">  1  5  2 -1</clus>
</clustering>
</event>
<event>
 9    1  0.1464797E-005  0.1143507E+03  0.7546771E-02  0.1259536E+00
          2   -1    0    0  502    0 -0.00000000000E+00  0.00000000000E+00  0.44749274551E+03  0.44749274551E+03  0.00000000000E+00 0. -1.
         21   -1    0    0  501  502  0.00000000000E+00 -0.00000000000E+00 -0.37370801637E+02  0.37370801637E+02  0.00000000000E+00 0.  1.
         23    2    1    2    0    0 -0.26855418313E+02 -0.12501367387E+02  0.27033824028E+03  0.29258802663E+03  0.10792354463E+03 0.  0.
         23    2    1    2    0    0  0.48441148981E+02  0.18017415425E+02  0.13059681392E+03  0.16817636086E+03  0.92501829034E+02 0.  0.
        -11    1    3    3    0    0 -0.63780865989E+02  0.22568760734E+01  0.21614629630E+03  0.22537150165E+03  0.00000000000E+00 0. -1.
         11    1    3    3    0    0  0.36925447675E+02 -0.14758243461E+02  0.54191943987E+02  0.67216524971E+02  0.00000000000E+00 0.  1.
        -13    1    4    4    0    0  0.13682746191E+02  0.40467513412E+02  0.11710652840E+03  0.12465462758E+03  0.00000000000E+00 0. -1.
         13    1    4    4    0    0  0.34758402790E+02 -0.22450097988E+02  0.13490285521E+02  0.43521733279E+02  0.00000000000E+00 0.  1.
          2    1    1    2  501    0 -0.21585730668E+02 -0.55160480372E+01  0.91868896738E+01  0.24099159659E+02  0.00000000000E+00 0. -1.
<scales pt_clust_5="13000.00000" pt_clust_6="13000.00000" pt_clust_7="13000.00000" pt_clust_8="13000.00000" pt_clust_9="22.27938"></scales>
<clustering>
<clus scale="   22.279">  2  9  1 -1</clus>
<clus scale="   92.502">  7  8 -1 -1</clus>
<clus scale="   99.926">  2  7  1 -1</clus>
<clus scale="  107.924">  5  6 -1 -1</clus>
<clus scale="   22.279">  2  5  1 -1</clus>
</clustering>
</event>
<event>
 9    1  0.1464797E-005  0.1369479E+03  0.7546771E-02  0.1226348E+00
         21   -1    0    0  501  502  0.00000000000E+00  0.00000000000E+00  0.27706634432E+03  0.27706634432E+03  0.00000000000E+00 0. -1.
          1   -1    0    0  502    0 -0.00000000000E+00 -0.00000000000E+00 -0.12250514553E+03  0.12250514553E+03  0.00000000000E+00 0. -1.
         23    2    1    2    0    0 -0.10739627722E+02  0.62946079299E+02 -0.18053025283E+02  0.13604365556E+03  0.11876201411E+03 0.  0.
         23    2    1    2    0    0 -0.31633477729E+02 -0.75529224143E+02  0.48429660608E+02  0.13171121393E+03  0.91088260696E+02 0.  0.
        -13    1    3    3    0    0  0.39899205933E+02  0.23058154476E+02  0.30569537129E+02  0.55300286819E+02  0.00000000000E+00 0.  1.
         13    1    3    3    0    0 -0.50638833655E+02  0.39887924823E+02 -0.48622562412E+02  0.80743368744E+02  0.00000000000E+00 0. -1.
        -13    1    4    4    0    0  0.28624131644E+02 -0.48062692953E+02  0.17437102796E+02  0.58595357496E+02  0.00000000000E+00 0.  1.
         13    1    4    4    0    0 -0.60257609372E+02 -0.27466531191E+02  0.30992557812E+02  0.73115856438E+02  0.00000000000E+00 0. -1.
          1    1    1    2  501    0  0.42373105451E+02  0.12583144844E+02  0.12418456346E+03  0.13181662036E+03  0.00000000000E+00 0. -1.
<scales pt_clust_5="13000.00000" pt_clust_6="13000.00000" pt_clust_7="13000.00000" pt_clust_8="13000.00000" pt_clust_9="44.20199"></scales>
<clustering>
<clus scale="   44.202">  1  9  2 -1</clus>
<clus scale="   91.088">  7  8 -1 -1</clus>
<clus scale="  113.787">  1  7  2 -1</clus>
<clus scale="  118.762">  5  6 -1 -1</clus>
<clus scale="   44.202">  1  5  2 -1</clus>
</clustering>
</event>
<event>
 9    1  0.1464797E-005  0.9704179E+02  0.7546771E-02  0.1288545E+00
         -1   -1    0    0    0  501 -0.00000000000E+00  0.00000000000E+00  0.60801688339E+02  0.60801688339E+02  0.00000000000E+00 0.  1.
         21   -1    0    0  501  502  0.00000000000E+00 -0.00000000000E+00 -0.45084146358E+03  0.45084146358E+03  0.00000000000E+00 0. -1.
         23    2    1    2    0    0 -0.12961687449E+02 -0.13069386775E+02 -0.23340469476E+02  0.96997239623E+02  0.92330237554E+02 0.  0.
         23    2    1    2    0    0  0.46575867329E+02  0.71261624645E+02 -0.27218398016E+03  0.29867437953E+03  0.88739705711E+02 0.  0.
        -11    1    4    4    0    0  0.41760505124E+02  0.30990959412E+02 -0.24351836543E+03  0.24900918388E+03  0.00000000000E+00 0. -1.
         11    1    4    4    0    0  0.48153622044E+01  0.40270665233E+02 -0.28665614722E+02  0.49665195649E+02  0.00000000000E+00 0.  1.
        -13    1    3    3    0    0  0.22885392882E+02 -0.13905209606E+02 -0.46961054427E+02  0.54059566170E+02  0.00000000000E+00 0. -1.
         13    1    3    3    0    0 -0.35847080332E+02  0.83582283137E+00  0.23620584951E+02  0.42937673453E+02  0.00000000000E+00 0.  1.
         -1    1    1    2    0  502 -0.33614179880E+02 -0.58192237870E+02 -0.94515325613E+02  0.11597153277E+03  0.00000000000E+00 0.  1.
<scales pt_clust_5="13000.00000" pt_clust_6="13000.00000" pt_clust_7="13000.00000" pt_clust_8="13000.00000" pt_clust_9="67.20305"></scales>
<clustering>
<clus scale="   67.203">  2  9  1 -1</clus>
<clus scale="   88.740">  5  6 -1 -1</clus>
<clus scale="   92.330">  7  8 -1 -1</clus>
<clus scale="   93.632">  2  5  1 -1</clus>
<clus scale="   67.203">  2  5  1 -1</clus>
</clustering>
</event>
<event>
 9    1  0.1464797E-005  0.1209937E+03  0.7546771E-02  0.1242124E+00
         21   -1    0    0  501  502  0.00000000000E+00  0.00000000000E+00  0.65503357838E+02  0.65503357838E+02  0.00000000000E+00 0.  1.
          2   -1    0    0  502    0 -0.00000000000E+00 -0.00000000000E+00 -0.57679699760E+03  0.57679699760E+03  0.00000000000E+00 0. -1.
         23    2    1    2    0    0 -0.64630329625E+02 -0.18386961635E+02 -0.32838473374E+03  0.34766019971E+03  0.92281749254E+02 0.  0.
         23    2    1    2    0    0  0.12168181302E+03  0.48274911622E+02 -0.93405085076E+02  0.18437186801E+03  0.90175080161E+02 0.  0.
        -13    1    3    3    0    0 -0.13354465003E+02 -0.41379160964E+02 -0.23242517565E+03  0.23645726669E+03  0.00000000000E+00 0. -1.
         13    1    3    3    0    0 -0.51275864622E+02  0.22992199329E+02 -0.95959558089E+02  0.11120293302E+03  0.00000000000E+00 0.  1.
        -13    1    4    4    0    0  0.10270555793E+03  0.31431969318E+02 -0.23422780632E+02  0.10993191974E+03  0.00000000000E+00 0.  1.
         13    1    4    4    0    0  0.18976255090E+02  0.16842942304E+02 -0.69982304444E+02  0.74439948267E+02  0.00000000000E+00 0. -1.
          2    1    1    2  501    0 -0.57051483398E+02 -0.29887949987E+02 -0.89503820948E+02  0.11026828772E+03  0.00000000000E+00 0. -1.
<scales pt_clust_5="13000.00000" pt_clust_6="13000.00000" pt_clust_7="13000.00000" pt_clust_8="13000.00000" pt_clust_9="64.40625"></scales>
<clustering>
<clus scale="   64.406">  1  9  2 -1</clus>
<clus scale="   90.175">  7  8 -1 -1</clus>
<clus scale="   92.282">  5  6 -1 -1</clus>
<clus scale="  119.395">  1  7  2 -1</clus>
<clus scale="   64.406">  1  5  2 -1</clus>
</clustering>
</event>
<event>
 9    1  0.1464797E-005  0.1311301E+03  0.7546771E-02  0.1226234E+00
         21   -1    0    0  501  502  0.00000000000E+00  0.00000000000E+00  0.21728980497E+03  0.21728980497E+03  0.00000000000E+00 0. -1.
         -2   -1    0    0    0  501 -0.00000000000E+00 -0.00000000000E+00 -0.10887021760E+03  0.10887021760E+03  0.00000000000E+00 0.  1.
         23    2    1    2    0    0  0.44865615220E+02 -0.71324937254E+02  0.25682195003E+02  0.12552990132E+03  0.89431598902E+02 0.  0.
         23    2    1    2    0    0 -0.61274549831E+02  0.86054531438E+02  0.28979224849E+02  0.14252543422E+03  0.91179773467E+02 0.  0.
        -11    1    3    3    0    0 -0.24149569989E+02 -0.74936806677E+00  0.53147159843E+01  0.24738825541E+02  0.00000000000E+00 0. -1.
         11    1    3    3    0    0  0.69015185209E+02 -0.70575569187E+02  0.20367479019E+02  0.10079107578E+03  0.00000000000E+00 0.  1.
        -13    1    4    4    0    0 -0.22115547127E+02 -0.17878957772E+02  0.73527800902E+01  0.29373762626E+02  0.00000000000E+00 0.  1.
         13    1    4    4    0    0 -0.39159002705E+02  0.10393348921E+03  0.21626444759E+02  0.11315167160E+03  0.00000000000E+00 0. -1.
         -2    1    1    2    0  502  0.16408934611E+02 -0.14729594184E+02  0.53758167519E+02  0.58104687030E+02  0.00000000000E+00 0.  1.
<scales pt_clust_5="13000.00000" pt_clust_6="13000.00000" pt_clust_7="13000.00000" pt_clust_8="13000.00000" pt_clust_9="22.05026"></scales>
<clustering>
<clus scale="   22.050">  1  9  2 -1</clus>
<clus scale="   89.432">  5  6 -1 -1</clus>
<clus scale="   91.180">  7  8 -1 -1</clus>
<clus scale="  129.921">  2  5  1 -1</clus>
<clus scale="   22.050">  1  5  2 -1</clus>
</clustering>
</event>
<event>
 9    1  0.1464797E-005  0.1633579E+03  0.7546771E-02  0.1185044E+00
          1   -1    0    0  502    0 -0.00000000000E+00  0.00000000000E+00  0.38993811304E+03  0.38993811304E+03  0.00000000000E+00 0. -1.
         21   -1    0    0  501  502  0.00000000000E+00 -0.00000000000E+00 -0.94462293072E+02  0.94462293072E+02  0.00000000000E+00 0. -1.
         23    2    1    2    0    0  0.86996031736E+02  0.93375298351E+02  0.21552271128E+03  0.26666933113E+03  0.91516322094E+02 0.  0.
         23    2    1    2    0    0 -0.10122188152E+03 -0.11273418600E+03  0.77790161573E+02  0.19361013649E+03  0.92079909438E+02 0.  0.
        -11    1    3    3    0    0  0.49270365790E+02  0.36389730610E+01  0.31808073587E+02  0.58758528022E+02  0.00000000000E+00 0.  1.
         11    1    3    3    0    0  0.37725665946E+02  0.89736325290E+02  0.18371463769E+03  0.20791080311E+03  0.00000000000E+00 0. -1.
        -11    1    4    4    0    0 -0.55497430528E+02 -0.80223371772E+02  0.93734261656E+02  0.13528438928E+03  0.00000000000E+00 0. -1.
         11    1    4    4    0    0 -0.45724450996E+02 -0.32510814229E+02 -0.15944100083E+02  0.58325747215E+02  0.00000000000E+00 0.  1.
          1    1    1    2  501    0  0.14225849788E+02  0.19358887650E+02  0.21629471149E+01  0.24120938487E+02  0.00000000000E+00 0. -1.
<scales pt_clust_5="13000.00000" pt_clust_6="13000.00000" pt_clust_7="13000.00000" pt_clust_8="13000.00000" pt_clust_9="24.02377"></scales>
<clustering>
<clus scale="   24.024">  2  9  1 -1</clus>
<clus scale="   91.516">  5  6 -1 -1</clus>
<clus scale="   92.080">  7  8 -1 -1</clus>
<clus scale="  163.041">  1  5  2 -1</clus>
<clus scale="   24.024">  2  5  1 -1</clus>
</clustering>
</event>
<event>
 9    1  0.1464797E-005  0.9348690E+02  0.7546771E-02  0.1295443E+00
          2   -1    0    0  502    0 -0.00000000000E+00  0.00000000000E+00  0.17094932285E+03  0.17094932285E+03  0.00000000000E+00 0. -1.
         21   -1    0    0  501  502  0.00000000000E+00 -0.00000000000E+00 -0.11190428261E+03  0.11190428261E+03  0.00000000000E+00 0. -1.
         23    2    1    2    0    0 -0.11405646897E+02  0.56036987063E+01  0.93153906853E+02  0.13061612064E+03  0.90672103692E+02 0.  0.
         23    2    1    2    0    0  0.46621997659E+02 -0.27705025317E+02 -0.11834121402E+02  0.10506944190E+03  0.89209652499E+02 0.  0.
        -11    1    3    3    0    0 -0.10025726134E+02 -0.35319948340E+02  0.79303331426E+02  0.87390115634E+02  0.00000000000E+00 0.  1.
         11    1    3    3    0    0 -0.13799207636E+01  0.40923647046E+02  0.13850575428E+02  0.43226005004E+02  0.00000000000E+00 0. -1.
        -11    1    4    4    0    0  0.23254758300E+02 -0.45373822397E+02 -0.39714132628E+02  0.64628011519E+02  0.00000000000E+00 0.  1.
         11    1    4    4    0    0  0.23367239359E+02  0.17668797081E+02  0.27880011226E+02  0.40441430384E+02  0.00000000000E+00 0. -1.
          2    1    1    2  501    0 -0.35216350762E+02  0.22101326610E+02 -0.22274745208E+02  0.47168042921E+02  0.00000000000E+00 0. -1.
<scales pt_clust_5="13000.00000" pt_clust_6="13000.00000" pt_clust_7="13000.00000" pt_clust_8="13000.00000" pt_clust_9="41.57716"></scales>
<clustering>
<clus scale="   41.577">  2  9  1 -1</clus>
<clus scale="   89.210">  7  8 -1 -1</clus>
<clus scale="   90.672">  5  6 -1 -1</clus>
<clus scale="   92.069">  2  7  1 -1</clus>
<clus scale="   41.577">  2  5  1 -1</clus>
</clustering>
</event>
<event>
 9    1  0.1464797E-005  0.1296158E+03  0.7546771E-02  0.1231648E+00
         21   -1    0    0  501  502  0.00000000000E+00  0.00000000000E+00  0.57167764267E+03  0.57167764267E+03  0.00000000000E+00 0.  1.
         -1   -1    0    0    0  501 -0.00000000000E+00 -0.00000000000E+00 -0.31766788614E+03  0.31766788614E+03  0.00000000000E+00 0.  1.
         23    2    1    2    0    0  0.77855964820E+02 -0.99847439577E+01 -0.19032487290E+03  0.22514432238E+03  0.91132663119E+02 0.  0.
         23    2    1    2    0    0  0.87000548493E+02  0.74035766023E+01  0.47944380072E+03  0.49562782088E+03  0.90314286802E+02 0.  0.
        -11    1    4    4    0    0  0.56314238925E+02  0.44248073930E+02  0.35734787454E+03  0.36445396005E+03  0.00000000000E+00 0. -1.
         11    1    4    4    0    0  0.30686309569E+02 -0.36844497328E+02  0.12209592617E+03  0.13117386084E+03  0.00000000000E+00 0.  1.
        -11    1    3    3    0    0  0.42695193958E+02 -0.26139376988E+02 -0.26166986775E+02  0.56487678421E+02  0.00000000000E+00 0.  1.
         11    1    3    3    0    0  0.35160770861E+02  0.16154633030E+02 -0.16415788612E+03  0.16865664396E+03  0.00000000000E+00 0. -1.
         -1    1    1    2    0  502 -0.16485651331E+03  0.25811673554E+01 -0.35109171294E+02  0.16857338555E+03  0.00000000000E+00 0.  1.
<scales pt_clust_5="13000.00000" pt_clust_6="13000.00000" pt_clust_7="13000.00000" pt_clust_8="13000.00000" pt_clust_9="92.97092"></scales>
<clustering>
<clus scale="   90.314">  5  6 -1 -1</clus>
<clus scale="   91.133">  7  8 -1 -1</clus>
<clus scale="  120.276">  2  7  1 -1</clus>
<clus scale="   92.971">  1  9  2 -1</clus>
<clus scale="   92.971">  1  5  2 -1</clus>
</clustering>
</event>
<event>
 9    1  0.1464797E-005  0.1273451E+03  0.7546771E-02  0.1232427E+00
          1   -1    0    0  502    0 -0.00000000000E+00  0.00000000000E+00  0.20075378099E+03  0.20075378099E+03  0.00000000000E+00 0. -1.
         21   -1    0    0  501  502  0.00000000000E+00 -0.00000000000E+00 -0.20932505299E+03  0.20932505299E+03  0.00000000000E+00 0. -1.
         23    2    1    2    0    0 -0.61551816259E+00  0.90660151081E+02  0.11760759382E+03  0.17489847597E+03  0.92402862059E+02 0.  0.
         23    2    1    2    0    0  0.62380435388E+02 -0.51960170864E+02 -0.79192692485E+02  0.14846072959E+03  0.95801501099E+02 0.  0.
        -13    1    3    3    0    0  0.14557154366E+02  0.46130496295E+02  0.15304736320E+00  0.48373100533E+02  0.00000000000E+00 0.  1.
         13    1    3    3    0    0 -0.15172672529E+02  0.44529654785E+02  0.11745454645E+03  0.12652537544E+03  0.00000000000E+00 0. -1.
        -13    1    4    4    0    0  0.33952602327E+02  0.21170416303E+02 -0.51584844037E+02  0.65283702909E+02  0.00000000000E+00 0.  1.
         13    1    4    4    0    0  0.28427833061E+02 -0.73130587168E+02 -0.27607848448E+02  0.83177026684E+02  0.00000000000E+00 0. -1.
          1    1    1    2  501    0 -0.61764917226E+02 -0.38699980217E+02 -0.46986173332E+02  0.86719628418E+02  0.00000000000E+00 0. -1.
<scales pt_clust_5="13000.00000" pt_clust_6="13000.00000" pt_clust_7="13000.00000" pt_clust_8="13000.00000" pt_clust_9="72.88754"></scales>
<clustering>
<clus scale="   72.888">  2  9  1 -1</clus>
<clus scale="   92.403">  5  6 -1 -1</clus>
<clus scale="   95.802">  7  8 -1 -1</clus>
<clus scale="  124.808">  1  5  2 -1</clus>
<clus scale="   72.888">  2  5  1 -1</clus>
</clustering>
</event>
<event>
 9    1  0.1464797E-005  0.1340176E+03  0.7546771E-02  0.1223091E+00
          1   -1    0    0  502    0 -0.00000000000E+00  0.00000000000E+00  0.70777439121E+02  0.70777439121E+02  0.00000000000E+00 0. -1.
         21   -1    0    0  501  502  0.00000000000E+00 -0.00000000000E+00 -0.54175115578E+03  0.54175115578E+03  0.00000000000E+00 0. -1.
         23    2    1    2    0    0 -0.80247096881E+02 -0.46037562611E+02 -0.26310844859E+02  0.13184412438E+03  0.90175156492E+02 0.  0.
         23    2    1    2    0    0  0.98292835277E+02  0.22298001505E+02 -0.27272100874E+03  0.30617596153E+03  0.95959827391E+02 0.  0.
        -11    1    3    3    0    0 -0.83595651469E+02 -0.24010377750E+02 -0.49179149634E+02  0.99916564908E+02  0.00000000000E+00 0.  1.
         11    1    3    3    0    0  0.33485545885E+01 -0.22027184861E+02  0.22868304776E+02  0.31927559475E+02  0.00000000000E+00 0. -1.
        -13    1    4    4    0    0  0.73340682359E+02  0.42214194346E+02 -0.10217453782E+03  0.13266698938E+03  0.00000000000E+00 0. -1.
         13    1    4    4    0    0  0.24952152918E+02 -0.19916192841E+02 -0.17054647092E+03  0.17350897215E+03  0.00000000000E+00 0.  1.
          1    1    1    2  501    0 -0.18045738397E+02  0.23739561106E+02 -0.17194186306E+03  0.17450850898E+03  0.00000000000E+00 0. -1.
<scales pt_clust_5="13000.00000" pt_clust_6="13000.00000" pt_clust_7="13000.00000" pt_clust_8="13000.00000" pt_clust_9="29.81972"></scales>
<clustering>
<clus scale="   29.820">  2  9  1 -1</clus>
<clus scale="   90.175">  5  6 -1 -1</clus>
<clus scale="   95.960">  7  8 -1 -1</clus>
<clus scale="  129.938">  1  5  2 -1</clus>
<clus scale="   29.820">  2  5  1 -1</clus>
</clustering>
</event>
<event>
 9    1  0.1464797E-005  0.1333557E+03  0.7546771E-02  0.1244663E+00
          1   -1    0    0  502    0 -0.00000000000E+00  0.00000000000E+00  0.24935404895E+03  0.24935404895E+03  0.00000000000E+00 0. -1.
         21   -1    0    0  501  502  0.00000000000E+00 -0.00000000000E+00 -0.15743645039E+03  0.15743645039E+03  0.00000000000E+00 0. -1.
         23    2    1    2    0    0 -0.38957707601E+02 -0.20594946657E+02  0.50147972183E+02  0.98446328062E+02  0.72353338455E+02 0.  0.
         23    2    1    2    0    0  0.84654530315E+02  0.98988429845E+02  0.11053590006E+03  0.19449102812E+03  0.92970296704E+02 0.  0.
        -11    1    3    3    0    0 -0.38157470117E+02  0.11252087984E+02  0.53215785216E+02  0.66441867869E+02  0.00000000000E+00 0.  1.
         11    1    3    3    0    0 -0.80023748342E+00 -0.31847034641E+02 -0.30678130335E+01  0.32004460193E+02  0.00000000000E+00 0. -1.
        -11    1    4    4    0    0  0.63189792852E+00  0.48178699302E+02  0.21346747634E+01  0.48230106756E+02  0.00000000000E+00 0.  1.
         11    1    4    4    0    0  0.84022632386E+02  0.50809730544E+02  0.10840122530E+03  0.14626092136E+03  0.00000000000E+00 0. -1.
          1    1    1    2  501    0 -0.45696822714E+02 -0.78393483189E+02 -0.68766273677E+02  0.11385314316E+03  0.00000000000E+00 0. -1.
<scales pt_clust_5="13000.00000" pt_clust_6="13000.00000" pt_clust_7="13000.00000" pt_clust_8="13000.00000" pt_clust_9="95.60480"></scales>
<clustering>
<clus scale="   72.353">  5  6 -1 -1</clus>
<clus scale="   84.716">  1  5  2 -1</clus>
<clus scale="   92.970">  7  8 -1 -1</clus>
<clus scale="   95.605">  2  9  1 -1</clus>
<clus scale="   95.605">  2  5  1 -1</clus>
</clustering>
</event>
<event>
 9    1  0.1464797E-005  0.1366991E+03  0.7546771E-02  0.1218037E+00
         21   -1    0    0  501  502  0.00000000000E+00  0.00000000000E+00  0.71836546710E+03  0.71836546710E+03  0.00000000000E+00 0. -1.
          2   -1    0    0  502    0 -0.00000000000E+00 -0.00000000000E+00 -0.96909390485E+02  0.96909390485E+02  0.00000000000E+00 0. -1.
         23    2    1    2    0    0  0.41722563514E+02 -0.93564380434E+02 -0.11428433157E+02  0.13968019801E+03  0.94259657544E+02 0.  0.
         23    2    1    2    0    0 -0.10432243716E+03  0.25509031019E+02  0.40597441122E+03  0.43056717624E+03  0.95073598490E+02 0.  0.
        -13    1    4    4    0    0  0.70006442991E+01  0.24078682212E+02  0.33725784544E+02  0.42026426219E+02  0.00000000000E+00 0.  1.
         13    1    4    4    0    0 -0.11132308146E+03  0.14303488072E+01  0.37224862668E+03  0.38854075002E+03  0.00000000000E+00 0. -1.
        -13    1    3    3    0    0 -0.26641583053E+02 -0.52833950780E+02  0.75138022703E+00  0.59175711866E+02  0.00000000000E+00 0.  1.
         13    1    3    3    0    0  0.68364146567E+02 -0.40730429653E+02 -0.12179813384E+02  0.80504486146E+02  0.00000000000E+00 0. -1.
          2    1    1    2  501    0  0.62599873642E+02  0.68055349415E+02  0.22691009855E+03  0.24502748333E+03  0.00000000000E+00 0. -1.
<scales pt_clust_5="13000.00000" pt_clust_6="13000.00000" pt_clust_7="13000.00000" pt_clust_8="13000.00000" pt_clust_9="92.46770"></scales>
<clustering>
<clus scale="   92.468">  1  9  2 -1</clus>
<clus scale="   94.260">  7  8 -1 -1</clus>
<clus scale="   95.074">  5  6 -1 -1</clus>
<clus scale="  136.134">  2  7  1 -1</clus>
<clus scale="   92.468">  1  5  2 -1</clus>
</clustering>
</event>
<event>
 9    1  0.1464797E-005  0.2104425E+03  0.7546771E-02  0.1141227E+00
         21   -1    0    0  501  502  0.00000000000E+00  0.00000000000E+00  0.93080140380E+03  0.93080140380E+03  0.00000000000E+00 0.  1.
          1   -1    0    0  502    0 -0.00000000000E+00 -0.00000000000E+00 -0.61729200570E+02  0.61729200570E+02  0.00000000000E+00 0. -1.
         23    2    1    2    0    0  0.14804538806E+03  0.10891179327E+03  0.30624279663E+03  0.36932664552E+03  0.94012259665E+02 0.  0.
         23    2    1    2    0    0 -0.17106457946E+03 -0.92688489868E+02  0.37096136575E+03  0.42928020103E+03  0.93887750082E+02 0.  0.
        -13    1    3    3    0    0  0.16893106708E+02 -0.12740936702E+02  0.69179104673E+02  0.72342636430E+02  0.00000000000E+00 0.  1.
         13    1    3    3    0    0  0.13115228136E+03  0.12165272997E+03  0.23706369195E+03  0.29698400909E+03  0.00000000000E+00 0. -1.
        -13    1    4    4    0    0 -0.11073645172E+03 -0.61154624012E+02  0.32044747719E+03  0.34451275073E+03  0.00000000000E+00 0.  1.
         13    1    4    4    0    0 -0.60328127743E+02 -0.31533865857E+02  0.50513888558E+02  0.84767450298E+02  0.00000000000E+00 0. -1.
          1    1    1    2  501    0  0.23019191401E+02 -0.16223303397E+02  0.19186804085E+03  0.19392375782E+03  0.00000000000E+00 0. -1.
<scales pt_clust_5="13000.00000" pt_clust_6="13000.00000" pt_clust_7="13000.00000" pt_clust_8="13000.00000" pt_clust_9="28.16165"></scales>
<clustering>
<clus scale="   28.162">  1  9  2 -1</clus>
<clus scale="   93.888">  7  8 -1 -1</clus>
<clus scale="   94.012">  5  6 -1 -1</clus>
<clus scale="  210.387">  1  7  2 -1</clus>
<clus scale="   28.162">  1  5  2 -1</clus>
</clustering>
</event>
<event>
 9    1  0.1464797E-005  0.1051399E+03  0.7546771E-02  0.1269990E+00
          1   -1    0    0  502    0 -0.00000000000E+00  0.00000000000E+00  0.23560136622E+03  0.23560136622E+03  0.00000000000E+00 0. -1.
         21   -1    0    0  501  502  0.00000000000E+00 -0.00000000000E+00 -0.18977732240E+03  0.18977732240E+03  0.00000000000E+00 0. -1.
         23    2    1    2    0    0  0.54351226435E+02 -0.93699429151E+01  0.14781738036E+03  0.18146799020E+03  0.89659365849E+02 0.  0.
         23    2    1    2    0    0 -0.53989819231E+02 -0.11026130428E+02  0.30501762786E+02  0.10985443498E+03  0.90006462092E+02 0.  0.
        -11    1    3    3    0    0  0.42098056018E+01  0.36606939078E+02  0.44673454885E+02  0.57909481290E+02  0.00000000000E+00 0. -1.
         11    1    3    3    0    0  0.50141420833E+02 -0.45976881993E+02  0.10314392548E+03  0.12355850891E+03  0.00000000000E+00 0.  1.
        -11    1    4    4    0    0 -0.36639989184E+02  0.37583397444E+02  0.63522389987E+01  0.52871083884E+02  0.00000000000E+00 0. -1.
         11    1    4    4    0    0 -0.17349830047E+02 -0.48609527872E+02  0.24149523788E+02  0.56983351093E+02  0.00000000000E+00 0.  1.
          1    1    1    2  501    0 -0.36140720438E+00  0.20396073343E+02 -0.13249509932E+03  0.13405626344E+03  0.00000000000E+00 0. -1.
<scales pt_clust_5="13000.00000" pt_clust_6="13000.00000" pt_clust_7="13000.00000" pt_clust_8="13000.00000" pt_clust_9="20.39928"></scales>
<clustering>
<clus scale="   20.399">  2  9  1 -1</clus>
<clus scale="   89.659">  5  6 -1 -1</clus>
<clus scale="   90.006">  7  8 -1 -1</clus>
<clus scale="  104.843">  1  5  2 -1</clus>
<clus scale="   20.399">  2  5  1 -1</clus>
</clustering>
</event>
<event>
 9    1  0.4072848E-005  0.9359897E+02  0.7546771E-02  0.1295903E+00
          1   -1    0    0  502    0 -0.00000000000E+00  0.00000000000E+00  0.15121644869E+03  0.15121644869E+03  0.00000000000E+00 0. -1.
         21   -1    0    0  501  502  0.00000000000E+00 -0.00000000000E+00 -0.64111146986E+03  0.64111146986E+03  0.00000000000E+00 0. -1.
         23    2    1    2    0    0 -0.31977135873E+02  0.72407313359E+01  0.10440741514E+03  0.14132913351E+03  0.89431818912E+02 0.  0.
         23    2    1    2    0    0 -0.25640981421E+01  0.69004378817E+02 -0.98750329659E+02  0.14842709457E+03  0.86664848112E+02 0.  0.
        -13    1    4    4    0    0 -0.16298883348E+02  0.86366553098E+02 -0.71384731992E+02  0.11322815486E+03  0.00000000000E+00 0. -1.
         13    1    4    4    0    0  0.13734785206E+02 -0.17362174281E+02 -0.27365597667E+02  0.35198939702E+02  0.00000000000E+00 0.  1.
        -13    1    3    3    0    0 -0.22504798095E+02 -0.37818008363E+02  0.28122746742E+02  0.52226014381E+02  0.00000000000E+00 0.  1.
         13    1    3    3    0    0 -0.94723377785E+01  0.45058739699E+02  0.76284668395E+02  0.89103119128E+02  0.00000000000E+00 0. -1.
          1    1    1    2  501    0  0.34541234016E+02 -0.76245110153E+02 -0.49555210664E+03  0.50257169048E+03  0.00000000000E+00 0. -1.
<scales pt_clust_5="13000.00000" pt_clust_6="13000.00000" pt_clust_7="13000.00000" pt_clust_8="13000.00000" pt_clust_9="83.70432"></scales>
<clustering>
<clus scale="   83.704">  2  9  1 -1</clus>
<clus scale="   86.665">  5  6 -1 -1</clus>
<clus scale="   89.432">  7  8 -1 -1</clus>
<clus scale="   90.959">  2  5  1 -1</clus>
<clus scale="   83.704">  2  5  1 -1</clus>
</clustering>
</event>
<event>
 9    1  0.1464797E-005  0.1994078E+03  0.7546771E-02  0.1150276E+00
         21   -1    0    0  501  502  0.00000000000E+00  0.00000000000E+00  0.21295942400E+03  0.21295942400E+03  0.00000000000E+00 0.  1.
         -1   -1    0    0    0  501 -0.00000000000E+00 -0.00000000000E+00 -0.49613102124E+03  0.49613102124E+03  0.00000000000E+00 0.  1.
         23    2    1    2    0    0 -0.19014677954E+03 -0.11910979567E+02 -0.39801753303E+03  0.45083102267E+03  0.92374158737E+02 0.  0.
         23    2    1    2    0    0  0.10536408038E+03  0.80000021019E+01  0.99917543246E+02  0.17208367932E+03  0.91998303083E+02 0.  0.
        -11    1    3    3    0    0 -0.10728313180E+03  0.38626320925E+02 -0.23248428236E+03  0.25894131494E+03  0.00000000000E+00 0.  1.
         11    1    3    3    0    0 -0.82863647741E+02 -0.50537300493E+02 -0.16553325067E+03  0.19188970773E+03  0.00000000000E+00 0. -1.
        -11    1    4    4    0    0  0.36557999802E+02  0.29802621741E+02 -0.19854686461E+01  0.47208322337E+02  0.00000000000E+00 0. -1.
         11    1    4    4    0    0  0.68806080579E+02 -0.21802619639E+02  0.10190301189E+03  0.12487535698E+03  0.00000000000E+00 0.  1.
         -1    1    1    2    0  502  0.84782699155E+02  0.39109774655E+01  0.14928392550E+02  0.86175743251E+02  0.00000000000E+00 0.  1.
<scales pt_clust_5="13000.00000" pt_clust_6="13000.00000" pt_clust_7="13000.00000" pt_clust_8="13000.00000" pt_clust_9="84.87286"></scales>
<clustering>
<clus scale="   84.873">  1  9  2 -1</clus>
<clus scale="   91.998">  7  8 -1 -1</clus>
<clus scale="   92.374">  5  6 -1 -1</clus>
<clus scale="  199.234">  1  7  2 -1</clus>
<clus scale="   84.873">  1  5  2 -1</clus>
</clustering>
</event>
<event>
 9    1  0.1464797E-005  0.1136300E+03  0.7546771E-02  0.1255648E+00
         21   -1    0    0  501  502  0.00000000000E+00  0.00000000000E+00  0.95062332193E+02  0.95062332193E+02  0.00000000000E+00 0. -1.
          3   -1    0    0  502    0 -0.00000000000E+00 -0.00000000000E+00 -0.43157136479E+03  0.43157136479E+03  0.00000000000E+00 0. -1.
         23    2    1    2    0    0 -0.72761345065E+02  0.96353531863E+01 -0.29085729339E+03  0.31370731397E+03  0.91800110840E+02 0.  0.
         23    2    1    2    0    0  0.35449033136E+02 -0.93038373683E+01 -0.10229025108E+03  0.14510131721E+03  0.96166009855E+02 0.  0.
        -11    1    4    4    0    0 -0.22952631332E+02 -0.32381451584E+02 -0.33283832711E+02  0.51799567678E+02  0.00000000000E+00 0. -1.
         11    1    4    4    0    0  0.58401664468E+02  0.23077614215E+02 -0.69006418367E+02  0.93301749535E+02  0.00000000000E+00 0.  1.
        -11    1    3    3    0    0 -0.28529684692E+02  0.20630178190E+02 -0.23123507487E+02  0.42121772983E+02  0.00000000000E+00 0.  1.
         11    1    3    3    0    0 -0.44231660373E+02 -0.10994825003E+02 -0.26773378590E+03  0.27158554098E+03  0.00000000000E+00 0. -1.
          3    1    1    2  501    0  0.37312311929E+02 -0.33151581798E+00  0.56638511872E+02  0.67825065804E+02  0.00000000000E+00 0. -1.
<scales pt_clust_5="13000.00000" pt_clust_6="13000.00000" pt_clust_7="13000.00000" pt_clust_8="13000.00000" pt_clust_9="37.31378"></scales>
<clustering>
<clus scale="   37.314">  1  9  2 -1</clus>
<clus scale="   91.800">  7  8 -1 -1</clus>
<clus scale="   96.166">  5  6 -1 -1</clus>
<clus scale="  109.960">  2  7  1 -1</clus>
<clus scale="   37.314">  1  5  2 -1</clus>
</clustering>
</event>
<event>
 9    1  0.1464797E-005  0.2220623E+03  0.7546771E-02  0.1147189E+00
         21   -1    0    0  501  502  0.00000000000E+00  0.00000000000E+00  0.20674767636E+03  0.20674767636E+03  0.00000000000E+00 0. -1.
          2   -1    0    0  502    0 -0.00000000000E+00 -0.00000000000E+00 -0.52735830093E+03  0.52735830093E+03  0.00000000000E+00 0. -1.
         23    2    1    2    0    0  0.12608882082E+03 -0.35774289785E+01 -0.13439549728E+03  0.20533527762E+03  0.90494407625E+02 0.  0.
         23    2    1    2    0    0 -0.17822595706E+02 -0.20107941888E+03  0.15616423948E+02  0.22161931036E+03  0.90114751357E+02 0.  0.
        -13    1    3    3    0    0  0.47541859723E+02  0.36754413948E+02 -0.85195877441E+02  0.10425666839E+03  0.00000000000E+00 0.  1.
         13    1    3    3    0    0  0.78546961093E+02 -0.40331842927E+02 -0.49199619839E+02  0.10107860923E+03  0.00000000000E+00 0. -1.
        -13    1    4    4    0    0  0.14782480733E+02 -0.18277227679E+03  0.85783499694E+01  0.18356964615E+03  0.00000000000E+00 0. -1.
         13    1    4    4    0    0 -0.32605076438E+02 -0.18307142091E+02  0.70380739786E+01  0.38049664209E+02  0.00000000000E+00 0.  1.
          2    1    1    2  501    0 -0.10826622511E+03  0.20465684786E+03 -0.20183155125E+03  0.30715138931E+03  0.00000000000E+00 0. -1.
<scales pt_clust_5="13000.00000" pt_clust_6="13000.00000" pt_clust_7="13000.00000" pt_clust_8="13000.00000" pt_clust_9="202.95576"></scales>
<clustering>
<clus scale="   90.115">  7  8 -1 -1</clus>
<clus scale="   90.494">  5  6 -1 -1</clus>
<clus scale="  155.243">  2  5  1 -1</clus>
<clus scale="  202.956">  1  9  2 -1</clus>
<clus scale="  202.956">  1  5  2 -1</clus>
</clustering>
</event>
<event>
 9    1  0.1464797E-005  0.9928161E+02  0.7546771E-02  0.1283411E+00
          1   -1    0    0  502    0 -0.00000000000E+00  0.00000000000E+00  0.23486970260E+03  0.23486970260E+03  0.00000000000E+00 0. -1.
         21   -1    0    0  501  502  0.00000000000E+00 -0.00000000000E+00 -0.54555669472E+02  0.54555669472E+02  0.00000000000E+00 0. -1.
         23    2    1    2    0    0 -0.27999444306E+01  0.22316012726E+02  0.91732427513E+02  0.13104015236E+03  0.90834129936E+02 0.  0.
         23    2    1    2    0    0  0.68350605090E+00 -0.43674444704E+02  0.89470345160E+02  0.13690379085E+03  0.93966914306E+02 0.  0.
        -13    1    4    4    0    0 -0.34650643438E+02 -0.56208604656E+02  0.59943082977E+02  0.89180981857E+02  0.00000000000E+00 0. -1.
         13    1    4    4    0    0  0.35334149489E+02  0.12534159952E+02  0.29527262183E+02  0.47722808989E+02  0.00000000000E+00 0.  1.
        -13    1    3    3    0    0 -0.15956039052E+02 -0.21241830622E+02 -0.22095448875E+01  0.26658819160E+02  0.00000000000E+00 0. -1.
         13    1    3    3    0    0  0.13156094621E+02  0.43557843348E+02  0.93941972400E+02  0.10438133320E+03  0.00000000000E+00 0.  1.
          1    1    1    2  501    0  0.21164383797E+01  0.21358431978E+02 -0.88873954574E+00  0.21481428862E+02  0.00000000000E+00 0. -1.
<scales pt_clust_5="13000.00000" pt_clust_6="13000.00000" pt_clust_7="13000.00000" pt_clust_8="13000.00000" pt_clust_9="21.46304"></scales>
<clustering>
<clus scale="   21.463">  2  9  1 -1</clus>
<clus scale="   90.834">  7  8 -1 -1</clus>
<clus scale="   93.967">  5  6 -1 -1</clus>
<clus scale="   96.322">  1  7  2 -1</clus>
<clus scale="   21.463">  2  5  1 -1</clus>
</clustering>
</event>
<event>
 9    1  0.1464797E-005  0.1199208E+03  0.7546771E-02  0.1243452E+00
         21   -1    0    0  501  502  0.00000000000E+00  0.00000000000E+00  0.43820528846E+03  0.43820528846E+03  0.00000000000E+00 0.  1.
         -2   -1    0    0    0  501 -0.00000000000E+00 -0.00000000000E+00 -0.94266929594E+02  0.94266929594E+02  0.00000000000E+00 0.  1.
         23    2    1    2    0    0 -0.57843275293E+02  0.68585797935E+02 -0.17092332275E+01  0.12987016185E+03  0.93880143190E+02 0.  0.
         23    2    1    2    0    0  0.63511330998E+02  0.20468724375E+02  0.16227598319E+03  0.19867073995E+03  0.93187501030E+02 0.  0.
        -11    1    3    3    0    0 -0.23193297861E+02  0.71362812150E+02  0.31883202237E+02  0.81529863293E+02  0.00000000000E+00 0.  1.
         11    1    3    3    0    0 -0.34649977432E+02 -0.27770142150E+01 -0.33592435465E+02  0.48340298556E+02  0.00000000000E+00 0. -1.
        -13    1    4    4    0    0  0.11591159066E+02 -0.35950296151E+02  0.58708505006E+02  0.69810223620E+02  0.00000000000E+00 0.  1.
         13    1    4    4    0    0  0.51920171932E+02  0.56419020527E+02  0.10356747819E+03  0.12886051633E+03  0.00000000000E+00 0. -1.
         -2    1    1    2    0  502 -0.56680557045E+01 -0.89054522310E+02  0.18337160890E+03  0.20393131626E+03  0.00000000000E+00 0.  1.
<scales pt_clust_5="13000.00000" pt_clust_6="13000.00000" pt_clust_7="13000.00000" pt_clust_8="13000.00000" pt_clust_9="89.23472"></scales>
<clustering>
<clus scale="   89.235">  1  9  2 -1</clus>
<clus scale="   93.188">  7  8 -1 -1</clus>
<clus scale="   93.880">  5  6 -1 -1</clus>
<clus scale="  119.379">  1  7  2 -1</clus>
<clus scale="   89.235">  1  5  2 -1</clus>
</clustering>
</event>
<event>
 9    1  0.1464797E-005  0.1007181E+03  0.7546771E-02  0.1279407E+00
         21   -1    0    0  501  502  0.00000000000E+00  0.00000000000E+00  0.32581778468E+02  0.32581778468E+02  0.00000000000E+00 0.  1.
          1   -1    0    0  502    0 -0.00000000000E+00 -0.00000000000E+00 -0.69547969432E+03  0.69547969432E+03  0.00000000000E+00 0. -1.
         23    2    1    2    0    0  0.20199910732E+02 -0.43881315117E+02 -0.47346886310E+03  0.48429461364E+03  0.89637616316E+02 0.  0.
         23    2    1    2    0    0 -0.25944293296E+02  0.23386813793E+02 -0.19812172015E+03  0.22077588305E+03  0.90938029055E+02 0.  0.
        -11    1    3    3    0    0  0.51627346305E+02 -0.80484937139E+01 -0.29387007980E+03  0.29847911977E+03  0.00000000000E+00 0. -1.
         11    1    3    3    0    0 -0.31427435573E+02 -0.35832821403E+02 -0.17959878330E+03  0.18581549387E+03  0.00000000000E+00 0.  1.
        -11    1    4    4    0    0  0.32467799340E+02  0.21556646283E+02 -0.80012095215E+02  0.88998777372E+02  0.00000000000E+00 0. -1.
         11    1    4    4    0    0 -0.58412092636E+02  0.18301675096E+01 -0.11810962493E+03  0.13177710568E+03  0.00000000000E+00 0.  1.
          1    1    1    2  501    0  0.57443825637E+01  0.20494501324E+02  0.86926673988E+01  0.22990976101E+02  0.00000000000E+00 0. -1.
<scales pt_clust_5="13000.00000" pt_clust_6="13000.00000" pt_clust_7="13000.00000" pt_clust_8="13000.00000" pt_clust_9="21.28433"></scales>
<clustering>
<clus scale="   21.284">  1  9  2 -1</clus>
<clus scale="   89.638">  5  6 -1 -1</clus>
<clus scale="   90.938">  7  8 -1 -1</clus>
<clus scale="   99.546">  2  5  1 -1</clus>
<clus scale="   21.284">  1  5  2 -1</clus>
</clustering>
</event>
<event>
 9    1  0.1464797E-005  0.3473529E+03  0.7546771E-02  0.1109989E+00
         -3   -1    0    0    0  501 -0.00000000000E+00  0.00000000000E+00  0.36095633933E+03  0.36095633933E+03  0.00000000000E+00 0.  1.
         21   -1    0    0  501  502  0.00000000000E+00 -0.00000000000E+00 -0.49597772336E+03  0.49597772336E+03  0.00000000000E+00 0.  1.
         23    2    1    2    0    0 -0.12249764950E+02 -0.32060459447E+02 -0.22979831967E+02  0.10396627219E+03  0.95409555470E+02 0.  0.
         23    2    1    2    0    0  0.32078583022E+03  0.14747831402E+03  0.79008775618E+02  0.37215811044E+03  0.87211642368E+02 0.  0.
        -11    1    3    3    0    0  0.10093451104E+02 -0.56627644958E+02  0.85766296724E+01  0.58156053040E+02  0.00000000000E+00 0. -1.
         11    1    3    3    0    0 -0.22343216053E+02  0.24567185511E+02 -0.31556461639E+02  0.45810219151E+02  0.00000000000E+00 0.  1.
        -11    1    4    4    0    0  0.25088059098E+03  0.13590233401E+03  0.92667780121E+02  0.29999638797E+03  0.00000000000E+00 0.  1.
         11    1    4    4    0    0  0.69905239236E+02  0.11575980012E+02 -0.13659004503E+02  0.72161722470E+02  0.00000000000E+00 0. -1.
         -3    1    1    2    0  502 -0.30853606527E+03 -0.11541785458E+03 -0.19105032767E+03  0.38080968006E+03  0.00000000000E+00 0.  1.
<scales pt_clust_5="13000.00000" pt_clust_6="13000.00000" pt_clust_7="13000.00000" pt_clust_8="13000.00000" pt_clust_9="336.22635"></scales>
<clustering>
<clus scale="   87.212">  7  8 -1 -1</clus>
<clus scale="   95.410">  5  6 -1 -1</clus>
<clus scale="  101.395">  1  5  2 -1</clus>
<clus scale="  336.226">  2  9  1 -1</clus>
<clus scale="  336.226">  2  5  1 -1</clus>
</clustering>
</event>
<event>
 9    1  0.1464797E-005  0.1049619E+03  0.7546771E-02  0.1270502E+00
          1   -1    0    0  502    0 -0.00000000000E+00  0.00000000000E+00  0.12003830092E+04  0.12003830092E+04  0.00000000000E+00 0. -1.
         21   -1    0    0  501  502  0.00000000000E+00 -0.00000000000E+00 -0.19242104812E+02  0.19242104812E+02  0.00000000000E+00 0.  1.
         23    2    1    2    0    0 -0.25787760622E+02  0.23933124948E+02  0.41200593840E+03  0.42377398732E+03  0.92723761693E+02 0.  0.
         23    2    1    2    0    0  0.83407347524E+02  0.18701634494E+02  0.39134678212E+03  0.41132329756E+03  0.93423843247E+02 0.  0.
        -11    1    3    3    0    0 -0.10620379891E+01 -0.33409673718E+02  0.19957000108E+03  0.20234999272E+03  0.00000000000E+00 0. -1.
         11    1    3    3    0    0 -0.24725722633E+02  0.57342798666E+02  0.21243593732E+03  0.22142399460E+03  0.00000000000E+00 0.  1.
        -13    1    4    4    0    0 -0.20234001802E+02  0.78116082851E+01  0.52203818203E+02  0.56530298848E+02  0.00000000000E+00 0. -1.
         13    1    4    4    0    0  0.10364134933E+03  0.10890026209E+02  0.33914296392E+03  0.35479299871E+03  0.00000000000E+00 0.  1.
          1    1    1    2  501    0 -0.57619586902E+02 -0.42634759442E+02  0.37778818386E+03  0.38452782912E+03  0.00000000000E+00 0. -1.
<scales pt_clust_5="13000.00000" pt_clust_6="13000.00000" pt_clust_7="13000.00000" pt_clust_8="13000.00000" pt_clust_9="71.67806"></scales>
<clustering>
<clus scale="   71.678">  2  9  1 -1</clus>
<clus scale="   92.724">  5  6 -1 -1</clus>
<clus scale="   93.424">  7  8 -1 -1</clus>
<clus scale="  104.339">  1  5  2 -1</clus>
<clus scale="   71.678">  2  5  1 -1</clus>
</clustering>
</event>
<event>
 9    1  0.1464797E-005  0.1010851E+03  0.7546771E-02  0.1278194E+00
         21   -1    0    0  501  502  0.00000000000E+00  0.00000000000E+00  0.41781354533E+03  0.41781354533E+03  0.00000000000E+00 0. -1.
          3   -1    0    0  502    0 -0.00000000000E+00 -0.00000000000E+00 -0.18601236054E+03  0.18601236054E+03  0.00000000000E+00 0. -1.
         23    2    1    2    0    0 -0.28141316820E+02  0.16368348814E+02 -0.11482480609E+03  0.15064753920E+03  0.91924362491E+02 0.  0.
         23    2    1    2    0    0  0.54831009873E+02 -0.10131689425E+03  0.70752623598E+02  0.16329095772E+03  0.91577565066E+02 0.  0.
        -11    1    4    4    0    0 -0.11727513345E+02 -0.49951836090E+02 -0.30761906161E+01  0.51402173560E+02  0.00000000000E+00 0.  1.
         11    1    4    4    0    0  0.66558523218E+02 -0.51365058157E+02  0.73828814214E+02  0.11188878416E+03  0.00000000000E+00 0. -1.
        -11    1    3    3    0    0 -0.51690837010E+02 -0.14177051240E+02 -0.90087188595E+02  0.10482668058E+03  0.00000000000E+00 0.  1.
         11    1    3    3    0    0  0.23549520190E+02  0.30545400054E+02 -0.24737617496E+02  0.45820858624E+02  0.00000000000E+00 0. -1.
          3    1    1    2  501    0 -0.26689693053E+02  0.84948545433E+02  0.27587336728E+03  0.28988740894E+03  0.00000000000E+00 0. -1.
<scales pt_clust_5="13000.00000" pt_clust_6="13000.00000" pt_clust_7="13000.00000" pt_clust_8="13000.00000" pt_clust_9="89.04266"></scales>
<clustering>
<clus scale="   89.043">  1  9  2 -1</clus>
<clus scale="   91.578">  5  6 -1 -1</clus>
<clus scale="   91.924">  7  8 -1 -1</clus>
<clus scale="  100.770">  1  5  2 -1</clus>
<clus scale="   89.043">  1  5  2 -1</clus>
</clustering>
</event>
<event>
 9    1  0.1464797E-005  0.1123641E+03  0.7546771E-02  0.1258068E+00
         21   -1    0    0  501  502  0.00000000000E+00  0.00000000000E+00  0.68681854146E+03  0.68681854146E+03  0.00000000000E+00 0.  1.
          1   -1    0    0  502    0 -0.00000000000E+00 -0.00000000000E+00 -0.38087932290E+02  0.38087932290E+02  0.00000000000E+00 0. -1.
         23    2    1    2    0    0  0.70952761123E+02  0.33349671427E+02  0.12389823432E+03  0.17155102436E+03  0.89064508053E+02 0.  0.
         23    2    1    2    0    0 -0.70777035296E+01 -0.47699109926E+02  0.26087720667E+03  0.28140276937E+03  0.93836574268E+02 0.  0.
        -11    1    3    3    0    0  0.89716015072E+02  0.23410748325E+02  0.11687391413E+03  0.14918625373E+03  0.00000000000E+00 0.  1.
         11    1    3    3    0    0 -0.18763253948E+02  0.99389231012E+01  0.70243201920E+01  0.22364770629E+02  0.00000000000E+00 0. -1.
        -13    1    4    4    0    0 -0.18444723858E+02  0.25327355415E+02  0.87034946939E+02  0.92502782440E+02  0.00000000000E+00 0. -1.
         13    1    4    4    0    0  0.11367020328E+02 -0.73026465340E+02  0.17384225973E+03  0.18889998693E+03  0.00000000000E+00 0.  1.
          1    1    1    2  501    0 -0.63875057594E+02  0.14349438499E+02  0.26395516818E+03  0.27195268003E+03  0.00000000000E+00 0. -1.
<scales pt_clust_5="13000.00000" pt_clust_6="13000.00000" pt_clust_7="13000.00000" pt_clust_8="13000.00000" pt_clust_9="65.46701"></scales>
<clustering>
<clus scale="   65.467">  1  9  2 -1</clus>
<clus scale="   89.065">  5  6 -1 -1</clus>
<clus scale="   93.837">  7  8 -1 -1</clus>
<clus scale="  108.411">  2  5  1 -1</clus>
<clus scale="   65.467">  1  5  2 -1</clus>
</clustering>
</event>
<event>
 9    1  0.1464797E-005  0.9537047E+02  0.7546771E-02  0.1290958E+00
          1   -1    0    0  502    0 -0.00000000000E+00  0.00000000000E+00  0.52726254136E+03  0.52726254136E+03  0.00000000000E+00 0. -1.
         21   -1    0    0  501  502  0.00000000000E+00 -0.00000000000E+00 -0.22624123431E+02  0.22624123431E+02  0.00000000000E+00 0.  1.
         23    2    1    2    0    0 -0.14940448290E+01 -0.33345175950E+02  0.29055589486E+03  0.30627817163E+03  0.90936557293E+02 0.  0.
         23    2    1    2    0    0 -0.16678916499E+02  0.20141444901E+02  0.16586805190E+03  0.19041798397E+03  0.89793841221E+02 0.  0.
        -11    1    4    4    0    0 -0.98871463322E+01  0.55432537494E+02  0.11606012688E+03  0.12899796482E+03  0.00000000000E+00 0.  1.
         11    1    4    4    0    0 -0.67917701668E+01 -0.35291092593E+02  0.49807925021E+02  0.61420019157E+02  0.00000000000E+00 0. -1.
        -13    1    3    3    0    0 -0.32079140525E+02  0.17782605228E+02  0.12786609664E+03  0.13302267091E+03  0.00000000000E+00 0.  1.
         13    1    3    3    0    0  0.30585095696E+02 -0.51127781178E+02  0.16268979822E+03  0.17325550072E+03  0.00000000000E+00 0. -1.
          1    1    1    2  501    0  0.18172961328E+02  0.13203731049E+02  0.48214471175E+02  0.53190509188E+02  0.00000000000E+00 0. -1.
<scales pt_clust_5="13000.00000" pt_clust_6="13000.00000" pt_clust_7="13000.00000" pt_clust_8="13000.00000" pt_clust_9="22.46319"></scales>
<clustering>
<clus scale="   22.463">  2  9  1 -1</clus>
<clus scale="   89.794">  5  6 -1 -1</clus>
<clus scale="   90.937">  7  8 -1 -1</clus>
<clus scale="   94.282">  2  5  1 -1</clus>
<clus scale="   22.463">  2  5  1 -1</clus>
</clustering>
</event>
<event>
 9    1  0.1464797E-005  0.1456137E+03  0.7546771E-02  0.1207482E+00
         21   -1    0    0  501  502  0.00000000000E+00  0.00000000000E+00  0.96945027220E+02  0.96945027220E+02  0.00000000000E+00 0.  1.
         -4   -1    0    0    0  501 -0.00000000000E+00 -0.00000000000E+00 -0.57358469597E+03  0.57358469597E+03  0.00000000000E+00 0.  1.
         23    2    1    2    0    0 -0.43270544801E+02  0.55568692030E+02 -0.17630709190E+03  0.21349129416E+03  0.97642831004E+02 0.  0.
         23    2    1    2    0    0  0.12838057156E+03 -0.98388069142E+02 -0.31008247674E+03  0.36126642760E+03  0.90556645418E+02 0.  0.
        -11    1    4    4    0    0  0.10055311857E+03 -0.11181406791E+03 -0.28163766577E+03  0.31926961994E+03  0.00000000000E+00 0.  1.
         11    1    4    4    0    0  0.27827452990E+02  0.13425998765E+02 -0.28444810961E+02  0.41996807657E+02  0.00000000000E+00 0. -1.
        -11    1    3    3    0    0 -0.50440585445E+02 -0.12433742557E+02 -0.72720562708E+02  0.89370749435E+02  0.00000000000E+00 0.  1.
         11    1    3    3    0    0  0.71700406446E+01  0.68002434588E+02 -0.10358652919E+03  0.12412054472E+03  0.00000000000E+00 0. -1.
         -4    1    1    2    0  502 -0.85110026756E+02  0.42819377111E+02  0.97498998828E+01  0.95772001432E+02  0.00000000000E+00 0.  1.
<scales pt_clust_5="13000.00000" pt_clust_6="13000.00000" pt_clust_7="13000.00000" pt_clust_8="13000.00000" pt_clust_9="95.27442"></scales>
<clustering>
<clus scale="   90.557">  5  6 -1 -1</clus>
<clus scale="   95.274">  1  9  2 -1</clus>
<clus scale="   97.643">  7  8 -1 -1</clus>
<clus scale="  140.960">  1  5  2 -1</clus>
<clus scale="   95.274">  1  5  2 -1</clus>
</clustering>
</event>
<event>
 9    1  0.1464797E-005  0.1670118E+03  0.7546771E-02  0.1181276E+00
         -1   -1    0    0    0  501 -0.00000000000E+00  0.00000000000E+00  0.16308930405E+03  0.16308930405E+03  0.00000000000E+00 0.  1.
         21   -1    0    0  501  502  0.00000000000E+00 -0.00000000000E+00 -0.24786516026E+03  0.24786516026E+03  0.00000000000E+00 0. -1.
         23    2    1    2    0    0 -0.83818330996E+02  0.94053391013E+02 -0.35452032456E+02  0.15943511073E+03  0.91055779370E+02 0.  0.
         23    2    1    2    0    0  0.13096377990E+03 -0.90204359090E+02 -0.73610688526E+02  0.19834642627E+03  0.92921651439E+02 0.  0.
        -11    1    3    3    0    0 -0.93202626456E+02  0.53635820443E+02 -0.44253483205E+01  0.10762487873E+03  0.00000000000E+00 0.  1.
         11    1    3    3    0    0  0.93842954598E+01  0.40417570571E+02 -0.31026684136E+02  0.51810232007E+02  0.00000000000E+00 0. -1.
        -13    1    4    4    0    0  0.23510155859E+01 -0.47253886604E+02 -0.90657373457E+01  0.48173069936E+02  0.00000000000E+00 0.  1.
         13    1    4    4    0    0  0.12861276431E+03 -0.42950472486E+02 -0.64544951180E+02  0.15017335634E+03  0.00000000000E+00 0. -1.
         -1    1    1    2    0  502 -0.47145448900E+02 -0.38490319235E+01  0.24286864773E+02  0.53172927315E+02  0.00000000000E+00 0.  1.
<scales pt_clust_5="13000.00000" pt_clust_6="13000.00000" pt_clust_7="13000.00000" pt_clust_8="13000.00000" pt_clust_9="47.30233"></scales>
<clustering>
<clus scale="   47.302">  2  9  1 -1</clus>
<clus scale="   91.056">  5  6 -1 -1</clus>
<clus scale="   92.922">  7  8 -1 -1</clus>
<clus scale="  165.981">  1  5  2 -1</clus>
<clus scale="   47.302">  2  5  1 -1</clus>
</clustering>
</event>
<event>
 9    1  0.1464797E-005  0.1097327E+03  0.7546771E-02  0.1261520E+00
          2   -1    0    0  502    0 -0.00000000000E+00  0.00000000000E+00  0.37663733409E+03  0.37663733409E+03  0.00000000000E+00 0. -1.
         21   -1    0    0  501  502  0.00000000000E+00 -0.00000000000E+00 -0.77264222875E+02  0.77264222875E+02  0.00000000000E+00 0.  1.
         23    2    1    2    0    0 -0.39323918478E+02  0.46262526946E+02  0.22964716736E+03  0.25420406137E+03  0.90527848601E+02 0.  0.
         23    2    1    2    0    0 -0.12356133198E+02 -0.79189463916E+02  0.26302971258E+02  0.12459379750E+03  0.91695817002E+02 0.  0.
        -11    1    4    4    0    0  0.99757333265E+01 -0.54179721575E+02 -0.27210512780E+02  0.61444035439E+02  0.00000000000E+00 0.  1.
         11    1    4    4    0    0 -0.22331866524E+02 -0.25009742341E+02  0.53513484038E+02  0.63149762061E+02  0.00000000000E+00 0. -1.
        -11    1    3    3    0    0  0.92744074338E+01  0.57775440700E+02  0.13646878034E+03  0.14848482815E+03  0.00000000000E+00 0. -1.
         11    1    3    3    0    0 -0.48598325912E+02 -0.11512913755E+02  0.93178387023E+02  0.10571923322E+03  0.00000000000E+00 0.  1.
          2    1    1    2  501    0  0.51680051676E+02  0.32926936970E+02  0.43422972591E+02  0.75103698098E+02  0.00000000000E+00 0. -1.
<scales pt_clust_5="13000.00000" pt_clust_6="13000.00000" pt_clust_7="13000.00000" pt_clust_8="13000.00000" pt_clust_9="61.27814"></scales>
<clustering>
<clus scale="   61.278">  2  9  1 -1</clus>
<clus scale="   90.528">  7  8 -1 -1</clus>
<clus scale="   91.696">  5  6 -1 -1</clus>
<clus scale="  108.759">  1  7  2 -1</clus>
<clus scale="   61.278">  2  5  1 -1</clus>
</clustering>
</event>
<event>
 9    1  0.1464797E-005  0.9500476E+02  0.7546771E-02  0.1291568E+00
         21   -1    0    0  501  502  0.00000000000E+00  0.00000000000E+00  0.25758801475E+03  0.25758801475E+03  0.00000000000E+00 0. -1.
          2   -1    0    0  502    0 -0.00000000000E+00 -0.00000000000E+00 -0.81661636863E+02  0.81661636863E+02  0.00000000000E+00 0. -1.
         23    2    1    2    0    0 -0.43389672575E+02 -0.32513067228E+02  0.19824077809E+02  0.10603094049E+03  0.88937073562E+02 0.  0.
         23    2    1    2    0    0 -0.21697206333E+02  0.22448559020E+02  0.47452224711E+02  0.10616582840E+03  0.89692602394E+02 0.  0.
        -11    1    3    3    0    0 -0.60532154578E+02  0.45159847408E+01  0.23434382458E+02  0.65066935822E+02  0.00000000000E+00 0. -1.
         11    1    3    3    0    0  0.17142482003E+02 -0.37029051968E+02 -0.36103046494E+01  0.40964004670E+02  0.00000000000E+00 0.  1.
        -13    1    4    4    0    0  0.18436289548E+02  0.20644236939E+02  0.58314098211E+02  0.64549324870E+02  0.00000000000E+00 0.  1.
         13    1    4    4    0    0 -0.40133495881E+02  0.18043220817E+01 -0.10861873500E+02  0.41616503526E+02  0.00000000000E+00 0. -1.
          2    1    1    2  501    0  0.65086878908E+02  0.10064508207E+02  0.10865007536E+03  0.12705288272E+03  0.00000000000E+00 0. -1.
<scales pt_clust_5="13000.00000" pt_clust_6="13000.00000" pt_clust_7="13000.00000" pt_clust_8="13000.00000" pt_clust_9="65.86043"></scales>
<clustering>
<clus scale="   65.860">  1  9  2 -1</clus>
<clus scale="   88.937">  5  6 -1 -1</clus>
<clus scale="   89.693">  7  8 -1 -1</clus>
<clus scale="   94.292">  2  5  1 -1</clus>
<clus scale="   65.860">  1  5  2 -1</clus>
</clustering>
</event>
<event>
 9    1  0.1464797E-005  0.1151488E+03  0.7546771E-02  0.1251387E+00
         21   -1    0    0  501  502  0.00000000000E+00  0.00000000000E+00  0.18787320712E+03  0.18787320712E+03  0.00000000000E+00 0. -1.
          1   -1    0    0  502    0 -0.00000000000E+00 -0.00000000000E+00 -0.59661656955E+03  0.59661656955E+03  0.00000000000E+00 0. -1.
         23    2    1    2    0    0  0.45674102074E+02 -0.70198913421E+01 -0.30583676371E+03  0.32367932362E+03  0.95377020434E+02 0.  0.
         23    2    1    2    0    0 -0.10698811998E+03 -0.51561977810E+02 -0.24903047254E+03  0.29186244127E+03  0.95196706848E+02 0.  0.
        -11    1    3    3    0    0  0.25050750396E+02  0.38534713741E+02 -0.21625992852E+03  0.22109007427E+03  0.00000000000E+00 0.  1.
         11    1    3    3    0    0  0.20623351678E+02 -0.45554605083E+02 -0.89576835194E+02  0.10258924935E+03  0.00000000000E+00 0. -1.
        -13    1    4    4    0    0 -0.32757279590E+02 -0.25845163978E+02 -0.13938622878E+02  0.43992011490E+02  0.00000000000E+00 0.  1.
         13    1    4    4    0    0 -0.74230840387E+02 -0.25716813833E+02 -0.23509184966E+03  0.24787042978E+03  0.00000000000E+00 0. -1.
          1    1    1    2  501    0  0.61314017903E+02  0.58581869152E+02  0.14612387383E+03  0.16894801179E+03  0.00000000000E+00 0. -1.
<scales pt_clust_5="13000.00000" pt_clust_6="13000.00000" pt_clust_7="13000.00000" pt_clust_8="13000.00000" pt_clust_9="84.80120"></scales>
<clustering>
<clus scale="   84.801">  1  9  2 -1</clus>
<clus scale="   95.197">  7  8 -1 -1</clus>
<clus scale="   95.377">  5  6 -1 -1</clus>
<clus scale="  115.000">  1  7  2 -1</clus>
<clus scale="   84.801">  1  5  2 -1</clus>
</clustering>
</event>
<event>
 9    1  0.1464797E-005  0.9695672E+02  0.7546771E-02  0.1289282E+00
         21   -1    0    0  501  502  0.00000000000E+00  0.00000000000E+00  0.44413692904E+03  0.44413692904E+03  0.00000000000E+00 0.  1.
         -4   -1    0    0    0  501 -0.00000000000E+00 -0.00000000000E+00 -0.67768134779E+02  0.67768134779E+02  0.00000000000E+00 0.  1.
         23    2    1    2    0    0 -0.94045836659E+01  0.21064895773E+02 -0.18795882859E+02  0.94133456465E+02  0.89306474489E+02 0.  0.
         23    2    1    2    0    0  0.30402195783E+02 -0.21619157552E+02  0.22883792995E+03  0.25012378081E+03  0.93826574388E+02 0.  0.
        -13    1    3    3    0    0  0.38169250503E+02  0.16745676739E+02  0.26617649675E+01  0.41765947447E+02  0.00000000000E+00 0.  1.
         13    1    3    3    0    0 -0.47573834168E+02  0.43192190345E+01 -0.21457647827E+02  0.52367509019E+02  0.00000000000E+00 0. -1.
        -13    1    4    4    0    0  0.16140767431E+02  0.36183477283E+02  0.69117094823E+02  0.79667692312E+02  0.00000000000E+00 0.  1.
         13    1    4    4    0    0  0.14261428352E+02 -0.57802634835E+02  0.15972083512E+03  0.17045608850E+03  0.00000000000E+00 0. -1.
         -4    1    1    2    0  502 -0.20997612117E+02  0.55426177832E+00  0.16632674717E+03  0.16764782655E+03  0.00000000000E+00 0.  1.
<scales pt_clust_5="13000.00000" pt_clust_6="13000.00000" pt_clust_7="13000.00000" pt_clust_8="13000.00000" pt_clust_9="21.00493"></scales>
<clustering>
<clus scale="   21.005">  1  9  2 -1</clus>
<clus scale="   89.306">  5  6 -1 -1</clus>
<clus scale="   92.590">  2  5  1 -1</clus>
<clus scale="   93.827">  7  8 -1 -1</clus>
<clus scale="   21.005">  1  5  2 -1</clus>
</clustering>
</event>
<event>
 9    1  0.1464797E-005  0.1027335E+03  0.7546771E-02  0.1274988E+00
         -1   -1    0    0    0  501 -0.00000000000E+00  0.00000000000E+00  0.33354627696E+03  0.33354627696E+03  0.00000000000E+00 0.  1.
         21   -1    0    0  501  502  0.00000000000E+00 -0.00000000000E+00 -0.11433512606E+03  0.11433512606E+03  0.00000000000E+00 0.  1.
         23    2    1    2    0    0  0.11601728317E+02 -0.52082734859E+02  0.26474832622E+03  0.28545677049E+03  0.92448256943E+02 0.  0.
         23    2    1    2    0    0  0.20906732410E+02  0.45417563025E-01 -0.21241716492E+02  0.96432574444E+02  0.91711162742E+02 0.  0.
        -11    1    3    3    0    0  0.37080544606E+02 -0.66621220311E+02  0.20878092490E+03  0.22226747037E+03  0.00000000000E+00 0.  1.
         11    1    3    3    0    0 -0.25478816289E+02  0.14538485453E+02  0.55967401324E+02  0.63189300120E+02  0.00000000000E+00 0. -1.
        -13    1    4    4    0    0 -0.15034258664E+02  0.32597916113E+02  0.11761732957E+02  0.37775540111E+02  0.00000000000E+00 0.  1.
         13    1    4    4    0    0  0.35940991074E+02 -0.32552498550E+02 -0.33003449449E+02  0.58657034333E+02  0.00000000000E+00 0. -1.
         -1    1    1    2    0  502 -0.32508460727E+02  0.52037317296E+02 -0.24295458830E+02  0.65992058082E+02  0.00000000000E+00 0.  1.
<scales pt_clust_5="13000.00000" pt_clust_6="13000.00000" pt_clust_7="13000.00000" pt_clust_8="13000.00000" pt_clust_9="61.35701"></scales>
<clustering>
<clus scale="   61.357">  2  9  1 -1</clus>
<clus scale="   91.711">  7  8 -1 -1</clus>
<clus scale="   92.448">  5  6 -1 -1</clus>
<clus scale="  102.071">  2  7  1 -1</clus>
<clus scale="   61.357">  2  5  1 -1</clus>
</clustering>
</event>
<event>
 9    1  0.1464797E-005  0.9874679E+02  0.7546771E-02  0.1284293E+00
          3   -1    0    0  502    0 -0.00000000000E+00  0.00000000000E+00  0.77752119758E+02  0.77752119758E+02  0.00000000000E+00 0. -1.
         21   -1    0    0  501  502  0.00000000000E+00 -0.00000000000E+00 -0.16525148456E+03  0.16525148456E+03  0.00000000000E+00 0. -1.
         23    2    1    2    0    0  0.39311304487E+02  0.15120062341E+02 -0.81255020973E+01  0.10095038385E+03  0.91383594093E+02 0.  0.
         23    2    1    2    0    0 -0.19931707738E+02 -0.25641918971E+02 -0.72085183085E+02  0.11882816745E+03  0.88707828160E+02 0.  0.
        -11    1    3    3    0    0  0.36415098335E+02 -0.22136127772E+02  0.26353298660E+02  0.50105527536E+02  0.00000000000E+00 0. -1.
         11    1    3    3    0    0  0.28962061529E+01  0.37256190113E+02 -0.34478800757E+02  0.50844856313E+02  0.00000000000E+00 0.  1.
        -13    1    4    4    0    0 -0.20264593096E+02  0.20585966525E+02 -0.66197519767E+02  0.72225669775E+02  0.00000000000E+00 0.  1.
         13    1    4    4    0    0  0.33288535793E+00 -0.46227885496E+02 -0.58876633183E+01  0.46602497674E+02  0.00000000000E+00 0. -1.
          3    1    1    2  501    0 -0.19379596750E+02  0.10521856630E+02 -0.72886796162E+01  0.23225053018E+02  0.00000000000E+00 0. -1.
<scales pt_clust_5="13000.00000" pt_clust_6="13000.00000" pt_clust_7="13000.00000" pt_clust_8="13000.00000" pt_clust_9="22.05173"></scales>
<clustering>
<clus scale="   22.052">  2  9  1 -1</clus>
<clus scale="   88.708">  7  8 -1 -1</clus>
<clus scale="   91.384">  5  6 -1 -1</clus>
<clus scale="   96.276">  2  7  1 -1</clus>
<clus scale="   22.052">  2  5  1 -1</clus>
</clustering>
</event>
<event>
 9    1  0.1464797E-005  0.1055784E+03  0.7546771E-02  0.1271853E+00
         -2   -1    0    0    0  501 -0.00000000000E+00  0.00000000000E+00  0.10027747494E+03  0.10027747494E+03  0.00000000000E+00 0.  1.
         21   -1    0    0  501  502  0.00000000000E+00 -0.00000000000E+00 -0.19028642354E+03  0.19028642354E+03  0.00000000000E+00 0.  1.
         23    2    1    2    0    0  0.25081106202E+02  0.21888576779E+02  0.27415000245E+02  0.10116530638E+03  0.91513197381E+02 0.  0.
         23    2    1    2    0    0 -0.56417670358E+02 -0.25661206708E+02 -0.81174521746E+02  0.14133369894E+03  0.97695754341E+02 0.  0.
        -11    1    4    4    0    0 -0.76828021141E+02 -0.34012212088E+02 -0.36687399502E+02  0.91680645099E+02  0.00000000000E+00 0.  1.
         11    1    4    4    0    0  0.20410350783E+02  0.83510053796E+01 -0.44487122244E+02  0.49653053838E+02  0.00000000000E+00 0. -1.
        -11    1    3    3    0    0 -0.81068739315E+01  0.41597260109E+02 -0.13922887589E+02  0.44608298021E+02  0.00000000000E+00 0. -1.
         11    1    3    3    0    0  0.33187980134E+02 -0.19708683330E+02  0.41337887834E+02  0.56557008359E+02  0.00000000000E+00 0.  1.
         -2    1    1    2    0  502  0.31336564156E+02  0.37726299290E+01 -0.36249427098E+02  0.48064893161E+02  0.00000000000E+00 0.  1.
<scales pt_clust_5="13000.00000" pt_clust_6="13000.00000" pt_clust_7="13000.00000" pt_clust_8="13000.00000" pt_clust_9="31.56284"></scales>
<clustering>
<clus scale="   31.563">  2  9  1 -1</clus>
<clus scale="   91.513">  7  8 -1 -1</clus>
<clus scale="   97.696">  5  6 -1 -1</clus>
<clus scale="   99.885">  1  7  2 -1</clus>
<clus scale="   31.563">  2  5  1 -1</clus>
</clustering>
</event>
<event>
 9    1  0.1464797E-005  0.1034548E+03  0.7546771E-02  0.1274191E+00
         21   -1    0    0  501  502  0.00000000000E+00  0.00000000000E+00  0.12271055650E+03  0.12271055650E+03  0.00000000000E+00 0.  1.
         -1   -1    0    0    0  501 -0.00000000000E+00 -0.00000000000E+00 -0.13116341542E+03  0.13116341542E+03  0.00000000000E+00 0.  1.
         23    2    1    2    0    0 -0.50746846594E+02 -0.14465001667E+02 -0.42793291473E+02  0.11421042279E+03  0.91805643437E+02 0.  0.
         23    2    1    2    0    0  0.28546949804E+02  0.96678676795E+01  0.23379389063E+00  0.98686595692E+02  0.93971237626E+02 0.  0.
        -11    1    3    3    0    0 -0.19383496980E+02  0.70478086153E+01  0.27448128986E+02  0.34333530932E+02  0.00000000000E+00 0. -1.
         11    1    3    3    0    0 -0.31363349613E+02 -0.21512810282E+02 -0.70241420459E+02  0.79876891860E+02  0.00000000000E+00 0.  1.
        -13    1    4    4    0    0  0.23397103527E+02 -0.26068182233E+02  0.34315746801E+02  0.49036160707E+02  0.00000000000E+00 0.  1.
         13    1    4    4    0    0  0.51498462762E+01  0.35736049912E+02 -0.34081952910E+02  0.49650434985E+02  0.00000000000E+00 0. -1.
         -1    1    1    2    0  502  0.22199896790E+02  0.47971339874E+01  0.34106638666E+02  0.40976953438E+02  0.00000000000E+00 0.  1.
<scales pt_clust_5="13000.00000" pt_clust_6="13000.00000" pt_clust_7="13000.00000" pt_clust_8="13000.00000" pt_clust_9="22.71229"></scales>
<clustering>
<clus scale="   22.712">  1  9  2 -1</clus>
<clus scale="   91.806">  5  6 -1 -1</clus>
<clus scale="   93.971">  7  8 -1 -1</clus>
<clus scale="  101.492">  2  5  1 -1</clus>
<clus scale="   22.712">  1  5  2 -1</clus>
</clustering>
</event>
<event>
 9    1  0.1464797E-005  0.1112741E+03  0.7546771E-02  0.1258693E+00
         -1   -1    0    0    0  501 -0.00000000000E+00  0.00000000000E+00  0.16868533061E+03  0.16868533061E+03  0.00000000000E+00 0.  1.
         21   -1    0    0  501  502  0.00000000000E+00 -0.00000000000E+00 -0.15035238578E+03  0.15035238578E+03  0.00000000000E+00 0. -1.
         23    2    1    2    0    0 -0.42736209266E+02 -0.42765332991E+02  0.59805128663E+02  0.12534066799E+03  0.92078077458E+02 0.  0.
         23    2    1    2    0    0  0.79387005682E+02 -0.83049060518E+01 -0.94233802997E+01  0.12313802346E+03  0.93289359464E+02 0.  0.
        -11    1    4    4    0    0 -0.79849548232E+01 -0.23245024352E+02 -0.22762845201E+02  0.33499817646E+02  0.00000000000E+00 0. -1.
         11    1    4    4    0    0  0.87371960505E+02  0.14940118301E+02  0.13339464902E+02  0.89638205812E+02  0.00000000000E+00 0.  1.
        -11    1    3    3    0    0 -0.60897168250E+02 -0.21624611892E+02  0.70364939076E+02  0.95536974997E+02  0.00000000000E+00 0.  1.
         11    1    3    3    0    0  0.18160958984E+02 -0.21140721099E+02 -0.10559810413E+02  0.29803692989E+02  0.00000000000E+00 0. -1.
         -1    1    1    2    0  502 -0.36650796415E+02  0.51070239043E+02 -0.32048803532E+02  0.70559024948E+02  0.00000000000E+00 0.  1.
<scales pt_clust_5="13000.00000" pt_clust_6="13000.00000" pt_clust_7="13000.00000" pt_clust_8="13000.00000" pt_clust_9="62.86056"></scales>
<clustering>
<clus scale="   62.861">  2  9  1 -1</clus>
<clus scale="   92.078">  7  8 -1 -1</clus>
<clus scale="   93.289">  5  6 -1 -1</clus>
<clus scale="  110.261">  1  7  2 -1</clus>
<clus scale="   62.861">  2  5  1 -1</clus>
</clustering>
</event>
<event>
 9    1  0.1464797E-005  0.9285348E+02  0.7546771E-02  0.1297109E+00
         -3   -1    0    0    0  501 -0.00000000000E+00  0.00000000000E+00  0.47269660052E+03  0.47269660052E+03  0.00000000000E+00 0.  1.
         21   -1    0    0  501  502  0.00000000000E+00 -0.00000000000E+00 -0.32654492147E+02  0.32654492147E+02  0.00000000000E+00 0.  1.
         23    2    1    2    0    0 -0.75145185296E+01 -0.51422384804E+01  0.18037370359E+03  0.20119176067E+03  0.88659692130E+02 0.  0.
         23    2    1    2    0    0  0.14689188289E+02  0.43631563446E+02  0.11093443791E+03  0.15035849675E+03  0.90452984741E+02 0.  0.
        -13    1    4    4    0    0 -0.28146431843E+02 -0.83654332701E+01  0.14568089967E+02  0.32778519560E+02  0.00000000000E+00 0. -1.
         13    1    4    4    0    0  0.42835620132E+02  0.51996996716E+02  0.96366347944E+02  0.11757997719E+03  0.00000000000E+00 0.  1.
        -13    1    3    3    0    0 -0.42291991706E+02 -0.12457463292E+02  0.52935232783E+02  0.68890781850E+02  0.00000000000E+00 0. -1.
         13    1    3    3    0    0  0.34777473176E+02  0.73152248120E+01  0.12743847081E+03  0.13230097882E+03  0.00000000000E+00 0.  1.
         -3    1    1    2    0  502 -0.71746697595E+01 -0.38489324966E+02  0.14873396687E+03  0.15380083525E+03  0.00000000000E+00 0.  1.
<scales pt_clust_5="13000.00000" pt_clust_6="13000.00000" pt_clust_7="13000.00000" pt_clust_8="13000.00000" pt_clust_9="39.15234"></scales>
<clustering>
<clus scale="   39.152">  2  9  1 -1</clus>
<clus scale="   88.660">  7  8 -1 -1</clus>
<clus scale="   90.453">  5  6 -1 -1</clus>
<clus scale="   91.107">  1  7  2 -1</clus>
<clus scale="   39.152">  2  5  1 -1</clus>
</clustering>
</event>
<event>
 9    1  0.1464797E-005  0.9242868E+02  0.7546771E-02  0.1297533E+00
         21   -1    0    0  501  502  0.00000000000E+00  0.00000000000E+00  0.30094705268E+02  0.30094705268E+02  0.00000000000E+00 0. -1.
         -3   -1    0    0    0  501 -0.00000000000E+00 -0.00000000000E+00 -0.67553358277E+03  0.67553358277E+03  0.00000000000E+00 0.  1.
         23    2    1    2    0    0  0.36929497583E+01  0.16091758926E+01 -0.40752373543E+03  0.41759943316E+03  0.91090418339E+02 0.  0.
         23    2    1    2    0    0 -0.18668711572E+02  0.14514285595E+02 -0.24671655732E+03  0.26432855187E+03  0.91876756580E+02 0.  0.
        -13    1    4    4    0    0  0.22268672668E+02 -0.28023389746E+02 -0.89403258000E+02  0.96302371187E+02  0.00000000000E+00 0.  1.
         13    1    4    4    0    0 -0.40937384240E+02  0.42537675342E+02 -0.15731329932E+03  0.16802618068E+03  0.00000000000E+00 0. -1.
        -13    1    3    3    0    0  0.24780114414E+02  0.39564491070E+02 -0.17901391181E+03  0.18500103688E+03  0.00000000000E+00 0. -1.
         13    1    3    3    0    0 -0.21087164656E+02 -0.37955315178E+02 -0.22850982361E+03  0.23259839628E+03  0.00000000000E+00 0.  1.
         -3    1    1    2    0  502  0.14975761814E+02 -0.16123461488E+02  0.88014152467E+01  0.23700303007E+02  0.00000000000E+00 0.  1.
<scales pt_clust_5="13000.00000" pt_clust_6="13000.00000" pt_clust_7="13000.00000" pt_clust_8="13000.00000" pt_clust_9="22.00544"></scales>
<clustering>
<clus scale="   22.005">  1  9  2 -1</clus>
<clus scale="   91.090">  7  8 -1 -1</clus>
<clus scale="   91.647">  2  7  1 -1</clus>
<clus scale="   91.877">  5  6 -1 -1</clus>
<clus scale="   22.005">  1  5  2 -1</clus>
</clustering>
</event>
<event>
 9    1  0.1464797E-005  0.1293324E+03  0.7546771E-02  0.1228462E+00
         -1   -1    0    0    0  501 -0.00000000000E+00  0.00000000000E+00  0.25043728939E+03  0.25043728939E+03  0.00000000000E+00 0.  1.
         21   -1    0    0  501  502  0.00000000000E+00 -0.00000000000E+00 -0.10133916475E+03  0.10133916475E+03  0.00000000000E+00 0. -1.
         23    2    1    2    0    0  0.42723277124E+02  0.98783899986E+02  0.11734026767E+03  0.18372536785E+03  0.91666433706E+02 0.  0.
         23    2    1    2    0    0 -0.49881715884E+02 -0.50043405278E+02  0.20227014758E+02  0.11745623091E+03  0.91620445659E+02 0.  0.
        -11    1    4    4    0    0  0.10890514141E+00 -0.30745738451E+02  0.48075118249E+02  0.57066008165E+02  0.00000000000E+00 0.  1.
         11    1    4    4    0    0 -0.49990621026E+02 -0.19297666827E+02 -0.27848103491E+02  0.60390222748E+02  0.00000000000E+00 0. -1.
        -11    1    3    3    0    0  0.13395231315E+02  0.38404307661E+02  0.10868233365E+03  0.11604383963E+03  0.00000000000E+00 0.  1.
         11    1    3    3    0    0  0.29328045808E+02  0.60379592325E+02  0.86579340255E+01  0.67681528217E+02  0.00000000000E+00 0. -1.
         -1    1    1    2    0  502  0.71584387608E+01 -0.48740494707E+02  0.11530842207E+02  0.50594855389E+02  0.00000000000E+00 0.  1.
<scales pt_clust_5="13000.00000" pt_clust_6="13000.00000" pt_clust_7="13000.00000" pt_clust_8="13000.00000" pt_clust_9="49.26336"></scales>
<clustering>
<clus scale="   49.263">  2  9  1 -1</clus>
<clus scale="   91.620">  5  6 -1 -1</clus>
<clus scale="   91.666">  7  8 -1 -1</clus>
<clus scale="  129.300">  2  5  1 -1</clus>
<clus scale="   49.263">  2  5  1 -1</clus>
</clustering>
</event>
<event>
 9    1  0.1464797E-005  0.2430496E+03  0.7546771E-02  0.1117797E+00
         21   -1    0    0  501  502  0.00000000000E+00  0.00000000000E+00  0.42387140132E+03  0.42387140132E+03  0.00000000000E+00 0. -1.
          2   -1    0    0  502    0 -0.00000000000E+00 -0.00000000000E+00 -0.16979681610E+03  0.16979681610E+03  0.00000000000E+00 0. -1.
         23    2    1    2    0    0  0.12436017113E+03  0.20199515739E+03  0.97653530310E+02  0.27195551604E+03  0.90311100932E+02 0.  0.
         23    2    1    2    0    0 -0.14469486757E+03 -0.15877323164E+03  0.13439455217E+03  0.26911230625E+03  0.90631087046E+02 0.  0.
        -11    1    3    3    0    0  0.48565608590E+02  0.37196030694E+02 -0.85355959362E+01  0.61765843596E+02  0.00000000000E+00 0.  1.
         11    1    3    3    0    0  0.75794562538E+02  0.16479912669E+03  0.10618912625E+03  0.21018967244E+03  0.00000000000E+00 0. -1.
        -11    1    4    4    0    0 -0.10902878463E+03 -0.12059350375E+03  0.50422614753E+02  0.17021312847E+03  0.00000000000E+00 0. -1.
         11    1    4    4    0    0 -0.35666082937E+02 -0.38179727897E+02  0.83971937413E+02  0.98899177789E+02  0.00000000000E+00 0.  1.
          2    1    1    2  501    0  0.20334696439E+02 -0.43221925744E+02  0.22026502742E+02  0.52600395126E+02  0.00000000000E+00 0. -1.
<scales pt_clust_5="13000.00000" pt_clust_6="13000.00000" pt_clust_7="13000.00000" pt_clust_8="13000.00000" pt_clust_9="47.76648"></scales>
<clustering>
<clus scale="   47.766">  1  9  2 -1</clus>
<clus scale="   90.311">  5  6 -1 -1</clus>
<clus scale="   90.631">  7  8 -1 -1</clus>
<clus scale="  242.930">  2  5  1 -1</clus>
<clus scale="   47.766">  1  5  2 -1</clus>
</clustering>
</event>
<event>
 9    1  0.1464797E-005  0.1009467E+03  0.7546771E-02  0.1278740E+00
         21   -1    0    0  501  502  0.00000000000E+00  0.00000000000E+00  0.19297125321E+03  0.19297125321E+03  0.00000000000E+00 0. -1.
         -1   -1    0    0    0  501 -0.00000000000E+00 -0.00000000000E+00 -0.85605920558E+02  0.85605920558E+02  0.00000000000E+00 0.  1.
         23    2    1    2    0    0 -0.41628994818E+02 -0.14895684484E+01  0.25076242922E+02  0.10478399572E+03  0.92820664593E+02 0.  0.
         23    2    1    2    0    0  0.26474804339E+02  0.39691061306E+02  0.31103266459E+02  0.10815026488E+03  0.91938952556E+02 0.  0.
        -11    1    3    3    0    0 -0.13094993166E+02  0.43857683604E+02  0.34098304592E+00  0.45772169782E+02  0.00000000000E+00 0. -1.
         11    1    3    3    0    0 -0.28534001652E+02 -0.45347252052E+02  0.24735259876E+02  0.59011825934E+02  0.00000000000E+00 0.  1.
        -13    1    4    4    0    0  0.60775655446E+02  0.29938581852E+02  0.23317617230E+02  0.71649914526E+02  0.00000000000E+00 0.  1.
         13    1    4    4    0    0 -0.34300851107E+02  0.97524794536E+01  0.77856492297E+01  0.36500350356E+02  0.00000000000E+00 0. -1.
         -1    1    1    2    0  502  0.15154190478E+02 -0.38201492857E+02  0.51185823268E+02  0.65642913169E+02  0.00000000000E+00 0.  1.
<scales pt_clust_5="13000.00000" pt_clust_6="13000.00000" pt_clust_7="13000.00000" pt_clust_8="13000.00000" pt_clust_9="41.09749"></scales>
<clustering>
<clus scale="   41.097">  1  9  2 -1</clus>
<clus scale="   91.939">  7  8 -1 -1</clus>
<clus scale="   92.821">  5  6 -1 -1</clus>
<clus scale="  100.137">  1  7  2 -1</clus>
<clus scale="   41.097">  1  5  2 -1</clus>
</clustering>
</event>
<event>
 9    1  0.1464797E-005  0.1372545E+03  0.7546771E-02  0.1217134E+00
          4   -1    0    0  502    0 -0.00000000000E+00  0.00000000000E+00  0.12367761648E+04  0.12367761648E+04  0.00000000000E+00 0. -1.
         21   -1    0    0  501  502  0.00000000000E+00 -0.00000000000E+00 -0.36142535578E+02  0.36142535578E+02  0.00000000000E+00 0. -1.
         23    2    1    2    0    0  0.46860323143E+02 -0.13045978429E+03  0.84600633208E+03  0.86216156738E+03  0.91543482256E+02 0.  0.
         23    2    1    2    0    0 -0.42552453002E+02  0.32218733519E+02  0.21718923250E+03  0.24176280347E+03  0.91811395714E+02 0.  0.
        -11    1    4    4    0    0  0.27028235298E+02  0.20185012666E+02  0.50467152521E+02  0.60703325471E+02  0.00000000000E+00 0.  1.
         11    1    4    4    0    0 -0.69580688300E+02  0.12033720853E+02  0.16672207997E+03  0.18105947800E+03  0.00000000000E+00 0. -1.
        -13    1    3    3    0    0  0.46759647122E+02 -0.13966293005E+02  0.29068893821E+03  0.29475681627E+03  0.00000000000E+00 0.  1.
         13    1    3    3    0    0  0.10067602161E+00 -0.11649349129E+03  0.55531739387E+03  0.56740475111E+03  0.00000000000E+00 0. -1.
          4    1    1    2  501    0 -0.43078701413E+01  0.98241050773E+02  0.13743806469E+03  0.16899432957E+03  0.00000000000E+00 0. -1.
<scales pt_clust_5="13000.00000" pt_clust_6="13000.00000" pt_clust_7="13000.00000" pt_clust_8="13000.00000" pt_clust_9="98.33546"></scales>
<clustering>
<clus scale="   91.543">  7  8 -1 -1</clus>
<clus scale="   91.811">  5  6 -1 -1</clus>
<clus scale="   98.335">  2  9  1 -1</clus>
<clus scale="  137.075">  1  7  2 -1</clus>
<clus scale="   98.335">  2  5  1 -1</clus>
</clustering>
</event>
<event>
 9    1  0.1464797E-005  0.1051859E+03  0.7546771E-02  0.1270722E+00
         21   -1    0    0  501  502  0.00000000000E+00  0.00000000000E+00  0.49471422037E+02  0.49471422037E+02  0.00000000000E+00 0.  1.
          2   -1    0    0  502    0 -0.00000000000E+00 -0.00000000000E+00 -0.42886331003E+03  0.42886331003E+03  0.00000000000E+00 0. -1.
         23    2    1    2    0    0  0.55231904322E+02  0.23713301684E+02 -0.22245499252E+03  0.24777314361E+03  0.91062742450E+02 0.  0.
         23    2    1    2    0    0 -0.47275612216E+02  0.18296290887E+01 -0.17243381348E+03  0.19964398241E+03  0.88802976459E+02 0.  0.
        -11    1    3    3    0    0  0.59270944657E+02 -0.10399680096E+02 -0.73917232329E+02  0.95315032717E+02  0.00000000000E+00 0. -1.
         11    1    3    3    0    0 -0.40390403349E+01  0.34112981780E+02 -0.14853776019E+03  0.15245811089E+03  0.00000000000E+00 0.  1.
        -13    1    4    4    0    0 -0.72525611668E+01 -0.20367252063E+02 -0.39691805500E+00  0.21623647796E+02  0.00000000000E+00 0.  1.
         13    1    4    4    0    0 -0.40023051049E+02  0.22196881152E+02 -0.17203689543E+03  0.17802033461E+03  0.00000000000E+00 0. -1.
          2    1    1    2  501    0 -0.79562921060E+01 -0.25542930773E+02  0.15496918006E+02  0.30917606056E+02  0.00000000000E+00 0. -1.
<scales pt_clust_5="13000.00000" pt_clust_6="13000.00000" pt_clust_7="13000.00000" pt_clust_8="13000.00000" pt_clust_9="26.75339"></scales>
<clustering>
<clus scale="   26.753">  1  9  2 -1</clus>
<clus scale="   88.803">  7  8 -1 -1</clus>
<clus scale="   91.063">  5  6 -1 -1</clus>
<clus scale="  103.236">  1  7  2 -1</clus>
<clus scale="   26.753">  1  5  2 -1</clus>
</clustering>
</event>
<event>
 9    1  0.1464797E-005  0.1473845E+03  0.7546771E-02  0.1204127E+00
         -1   -1    0    0    0  501 -0.00000000000E+00  0.00000000000E+00  0.19868801419E+03  0.19868801419E+03  0.00000000000E+00 0.  1.
         21   -1    0    0  501  502  0.00000000000E+00 -0.00000000000E+00 -0.34625809830E+03  0.34625809830E+03  0.00000000000E+00 0.  1.
         23    2    1    2    0    0 -0.59918836849E+02 -0.89529475404E+02  0.99521034137E+02  0.17288701458E+03  0.91540644528E+02 0.  0.
         23    2    1    2    0    0  0.92647973193E+02  0.10570888095E+03 -0.53420424463E+02  0.17497711710E+03  0.89471980598E+02 0.  0.
        -11    1    4    4    0    0  0.68978556525E+02  0.71085322602E+02  0.93421173105E+01  0.99490901622E+02  0.00000000000E+00 0.  1.
         11    1    4    4    0    0  0.23669416668E+02  0.34623558347E+02 -0.62762541773E+02  0.75486215482E+02  0.00000000000E+00 0. -1.
        -13    1    3    3    0    0 -0.16462522965E+02 -0.63523244815E+02  0.51970248412E+01  0.65827246345E+02  0.00000000000E+00 0. -1.
         13    1    3    3    0    0 -0.43456313883E+02 -0.26006230589E+02  0.94324009296E+02  0.10705976824E+03  0.00000000000E+00 0.  1.
         -1    1    1    2    0  502 -0.32729136344E+02 -0.16179405545E+02 -0.19367069378E+03  0.19708198081E+03  0.00000000000E+00 0.  1.
<scales pt_clust_5="13000.00000" pt_clust_6="13000.00000" pt_clust_7="13000.00000" pt_clust_8="13000.00000" pt_clust_9="36.50986"></scales>
<clustering>
<clus scale="   36.510">  2  9  1 -1</clus>
<clus scale="   89.472">  5  6 -1 -1</clus>
<clus scale="   91.541">  7  8 -1 -1</clus>
<clus scale="  146.109">  2  5  1 -1</clus>
<clus scale="   36.510">  2  5  1 -1</clus>
</clustering>
</event>
<event>
 9    1  0.1464797E-005  0.1035984E+03  0.7546771E-02  0.1273466E+00
          1   -1    0    0  502    0 -0.00000000000E+00  0.00000000000E+00  0.64597442736E+02  0.64597442736E+02  0.00000000000E+00 0. -1.
         21   -1    0    0  501  502  0.00000000000E+00 -0.00000000000E+00 -0.37740005686E+03  0.37740005686E+03  0.00000000000E+00 0.  1.
         23    2    1    2    0    0 -0.51971737948E+02  0.92461753631E+01 -0.27235727825E+02  0.11054193952E+03  0.93226510277E+02 0.  0.
         23    2    1    2    0    0  0.14740257653E+02  0.37854356241E+01 -0.27534840454E+03  0.29070726711E+03  0.91991122153E+02 0.  0.
        -13    1    3    3    0    0 -0.55408401022E+02  0.42024075918E+02 -0.33180822398E+02  0.77052455091E+02  0.00000000000E+00 0. -1.
         13    1    3    3    0    0  0.34366630740E+01 -0.32777900554E+02  0.59450945729E+01  0.33489484429E+02  0.00000000000E+00 0.  1.
        -13    1    4    4    0    0 -0.62262148066E+01 -0.38514559025E+02 -0.71380783926E+02  0.81347116247E+02  0.00000000000E+00 0.  1.
         13    1    4    4    0    0  0.20966472459E+02  0.42299994649E+02 -0.20396762061E+03  0.20936015087E+03  0.00000000000E+00 0. -1.
          1    1    1    2  501    0  0.37231480295E+02 -0.13031610987E+02 -0.10218481768E+02  0.40748292965E+02  0.00000000000E+00 0. -1.
<scales pt_clust_5="13000.00000" pt_clust_6="13000.00000" pt_clust_7="13000.00000" pt_clust_8="13000.00000" pt_clust_9="39.44626"></scales>
<clustering>
<clus scale="   39.446">  2  9  1 -1</clus>
<clus scale="   91.991">  7  8 -1 -1</clus>
<clus scale="   93.227">  5  6 -1 -1</clus>
<clus scale="  102.488">  2  7  1 -1</clus>
<clus scale="   39.446">  2  5  1 -1</clus>
</clustering>
</event>
<event>
 9    1  0.1464797E-005  0.1096628E+03  0.7546771E-02  0.1261272E+00
         21   -1    0    0  501  502  0.00000000000E+00  0.00000000000E+00  0.44382313052E+03  0.44382313052E+03  0.00000000000E+00 0.  1.
          2   -1    0    0  502    0 -0.00000000000E+00 -0.00000000000E+00 -0.37166477142E+02  0.37166477142E+02  0.00000000000E+00 0. -1.
         23    2    1    2    0    0 -0.50644682719E+02  0.96461803513E+01  0.14177893567E+03  0.17608908918E+03  0.90819425491E+02 0.  0.
         23    2    1    2    0    0  0.65970207955E+02 -0.35446692058E+02  0.18276088310E+03  0.21747218981E+03  0.91016903007E+02 0.  0.
        -13    1    4    4    0    0  0.79388970121E+02 -0.84897366748E+01  0.16285951506E+03  0.18137779867E+03  0.00000000000E+00 0.  1.
         13    1    4    4    0    0 -0.13418762166E+02 -0.26956955383E+02  0.19901368041E+02  0.36094391136E+02  0.00000000000E+00 0. -1.
        -13    1    3    3    0    0 -0.77813237676E+01 -0.33866700065E+02  0.88354728677E+02  0.94942405976E+02  0.00000000000E+00 0.  1.
         13    1    3    3    0    0 -0.42863358952E+02  0.43512880416E+02  0.53424206994E+02  0.81146683208E+02  0.00000000000E+00 0. -1.
          2    1    1    2  501    0 -0.15325525236E+02  0.25800511707E+02  0.82116834602E+02  0.87428328665E+02  0.00000000000E+00 0. -1.
<scales pt_clust_5="13000.00000" pt_clust_6="13000.00000" pt_clust_7="13000.00000" pt_clust_8="13000.00000" pt_clust_9="30.00897"></scales>
<clustering>
<clus scale="   30.009">  1  9  2 -1</clus>
<clus scale="   90.819">  7  8 -1 -1</clus>
<clus scale="   91.017">  5  6 -1 -1</clus>
<clus scale="  109.499">  2  7  1 -1</clus>
<clus scale="   30.009">  1  5  2 -1</clus>
</clustering>
</event>
<event>
 9    1  0.1464797E-005  0.9532280E+02  0.7546771E-02  0.1292413E+00
         21   -1    0    0  501  502  0.00000000000E+00  0.00000000000E+00  0.86895740693E+02  0.86895740693E+02  0.00000000000E+00 0.  1.
         -1   -1    0    0    0  501 -0.00000000000E+00 -0.00000000000E+00 -0.35468026265E+03  0.35468026265E+03  0.00000000000E+00 0.  1.
         23    2    1    2    0    0  0.76258625752E+01 -0.22940244459E+02 -0.23209307843E+03  0.25160890725E+03  0.94103329161E+02 0.  0.
         23    2    1    2    0    0 -0.11150702689E+02 -0.85748030641E+01 -0.89092625622E+02  0.12785985846E+03  0.90624400941E+02 0.  0.
        -11    1    3    3    0    0 -0.41245043087E+01 -0.42456519169E+02 -0.22306114781E+03  0.22710315546E+03  0.00000000000E+00 0.  1.
         11    1    3    3    0    0  0.11750366884E+02  0.19516274710E+02 -0.90319306175E+01  0.24505751797E+02  0.00000000000E+00 0. -1.
        -13    1    4    4    0    0  0.34467991045E+02 -0.24661747181E+02 -0.50851403929E+02  0.66197503444E+02  0.00000000000E+00 0.  1.
         13    1    4    4    0    0 -0.45618693733E+02  0.16086944117E+02 -0.38241221693E+02  0.61662355012E+02  0.00000000000E+00 0. -1.
         -1    1    1    2    0  502  0.35248401133E+01  0.31515047523E+02  0.53401182091E+02  0.62107237637E+02  0.00000000000E+00 0.  1.
<scales pt_clust_5="13000.00000" pt_clust_6="13000.00000" pt_clust_7="13000.00000" pt_clust_8="13000.00000" pt_clust_9="31.71155"></scales>
<clustering>
<clus scale="   31.712">  1  9  2 -1</clus>
<clus scale="   90.624">  7  8 -1 -1</clus>
<clus scale="   91.890">  1  7  2 -1</clus>
<clus scale="   94.103">  5  6 -1 -1</clus>
<clus scale="   31.712">  1  5  2 -1</clus>
</clustering>
</event>
<event>
 9    1  0.1464797E-005  0.1180985E+03  0.7546771E-02  0.1250776E+00
         21   -1    0    0  501  502  0.00000000000E+00  0.00000000000E+00  0.35574558237E+02  0.35574558237E+02  0.00000000000E+00 0.  1.
         -1   -1    0    0    0  501 -0.00000000000E+00 -0.00000000000E+00 -0.73891793577E+03  0.73891793577E+03  0.00000000000E+00 0.  1.
         23    2    1    2    0    0 -0.41017359142E+02  0.90094667482E+01 -0.35096958246E+03  0.36782881568E+03  0.10175851603E+03 0.  0.
         23    2    1    2    0    0  0.10229606063E+03  0.15157024348E+02 -0.22901661083E+03  0.26682057535E+03  0.89723976648E+02 0.  0.
        -13    1    3    3    0    0 -0.11721165955E+02  0.54317257430E+02 -0.19659770009E+03  0.20429979410E+03  0.00000000000E+00 0.  1.
         13    1    3    3    0    0 -0.29296193186E+02 -0.45307790682E+02 -0.15437188237E+03  0.16352902158E+03  0.00000000000E+00 0. -1.
        -13    1    4    4    0    0  0.44379051852E+01  0.35258074741E+02 -0.44026589759E+02  0.56578860387E+02  0.00000000000E+00 0. -1.
         13    1    4    4    0    0  0.97858155448E+02 -0.20101050393E+02 -0.18499002107E+03  0.21024171496E+03  0.00000000000E+00 0.  1.
         -1    1    1    2    0  502 -0.61278701491E+02 -0.24166491097E+02 -0.12335718423E+03  0.13984310298E+03  0.00000000000E+00 0.  1.
<scales pt_clust_5="13000.00000" pt_clust_6="13000.00000" pt_clust_7="13000.00000" pt_clust_8="13000.00000" pt_clust_9="65.87183"></scales>
<clustering>
<clus scale="   65.872">  1  9  2 -1</clus>
<clus scale="   89.724">  7  8 -1 -1</clus>
<clus scale="  101.759">  5  6 -1 -1</clus>
<clus scale="  107.902">  1  7  2 -1</clus>
<clus scale="   65.872">  1  5  2 -1</clus>
</clustering>
</event>
<event>
 9    1  0.1464797E-005  0.1137477E+03  0.7546771E-02  0.1255880E+00
          3   -1    0    0  502    0 -0.00000000000E+00  0.00000000000E+00  0.13483917790E+03  0.13483917790E+03  0.00000000000E+00 0. -1.
         21   -1    0    0  501  502  0.00000000000E+00 -0.00000000000E+00 -0.17376196987E+03  0.17376196987E+03  0.00000000000E+00 0. -1.
         23    2    1    2    0    0  0.80293814213E+02  0.20191305432E+02  0.39617574276E+02  0.13074781299E+03  0.93116341175E+02 0.  0.
         23    2    1    2    0    0 -0.21335759308E+02 -0.35499797984E+02 -0.61451285073E+02  0.11458850349E+03  0.87400311287E+02 0.  0.
        -11    1    4    4    0    0  0.26637868920E+02  0.44883462297E+01 -0.40561119789E+02  0.48733209940E+02  0.00000000000E+00 0.  1.
         11    1    4    4    0    0 -0.47973628228E+02 -0.39988144214E+02 -0.20890165284E+02  0.65855293551E+02  0.00000000000E+00 0. -1.
        -13    1    3    3    0    0  0.20198796575E+02  0.44270384706E+02  0.44345233754E+02  0.65835842076E+02  0.00000000000E+00 0.  1.
         13    1    3    3    0    0  0.60095017638E+02 -0.24079079274E+02 -0.47276594778E+01  0.64911970913E+02  0.00000000000E+00 0. -1.
          3    1    1    2  501    0 -0.58958054905E+02  0.15308492552E+02 -0.17089081180E+02  0.63264831289E+02  0.00000000000E+00 0. -1.
<scales pt_clust_5="13000.00000" pt_clust_6="13000.00000" pt_clust_7="13000.00000" pt_clust_8="13000.00000" pt_clust_9="60.91307"></scales>
<clustering>
<clus scale="   60.913">  2  9  1 -1</clus>
<clus scale="   87.400">  5  6 -1 -1</clus>
<clus scale="   93.116">  7  8 -1 -1</clus>
<clus scale="  109.118">  2  5  1 -1</clus>
<clus scale="   60.913">  2  5  1 -1</clus>
</clustering>
</event>
<event>
 9    1  0.1464797E-005  0.1014531E+03  0.7546771E-02  0.1277353E+00
          2   -1    0    0  502    0 -0.00000000000E+00  0.00000000000E+00  0.37053663673E+02  0.37053663673E+02  0.00000000000E+00 0. -1.
         21   -1    0    0  501  502  0.00000000000E+00 -0.00000000000E+00 -0.75676004230E+03  0.75676004230E+03  0.00000000000E+00 0.  1.
         23    2    1    2    0    0 -0.13947427554E+02 -0.39556197086E+02 -0.54207736942E+02  0.11382323755E+03  0.90873688153E+02 0.  0.
         23    2    1    2    0    0  0.21420598381E+02  0.63624170019E+02 -0.57913487865E+03  0.59002483516E+03  0.90693006278E+02 0.  0.
        -13    1    4    4    0    0  0.21313581514E+02 -0.18564909163E+02 -0.10113824051E+03  0.10501365770E+03  0.00000000000E+00 0. -1.
         13    1    4    4    0    0  0.10701686627E+00  0.82189079182E+02 -0.47799663814E+03  0.48501117746E+03  0.00000000000E+00 0.  1.
        -13    1    3    3    0    0  0.23364503780E+02 -0.34070519143E+02 -0.62775134356E+02  0.75149303423E+02  0.00000000000E+00 0.  1.
         13    1    3    3    0    0 -0.37311931334E+02 -0.54856779428E+01  0.85673974137E+01  0.38673934126E+02  0.00000000000E+00 0. -1.
          2    1    1    2  501    0 -0.74731708265E+01 -0.24067972933E+02 -0.86363763033E+02  0.89965633264E+02  0.00000000000E+00 0. -1.
<scales pt_clust_5="13000.00000" pt_clust_6="13000.00000" pt_clust_7="13000.00000" pt_clust_8="13000.00000" pt_clust_9="25.20150"></scales>
<clustering>
<clus scale="   25.202">  2  9  1 -1</clus>
<clus scale="   90.693">  5  6 -1 -1</clus>
<clus scale="   90.874">  7  8 -1 -1</clus>
<clus scale="  101.291">  2  5  1 -1</clus>
<clus scale="   25.202">  2  5  1 -1</clus>
</clustering>
</event>
<event>
 9    1  0.1464797E-005  0.2174912E+03  0.7546771E-02  0.1135770E+00
          2   -1    0    0  502    0 -0.00000000000E+00  0.00000000000E+00  0.20712365823E+03  0.20712365823E+03  0.00000000000E+00 0. -1.
         21   -1    0    0  501  502  0.00000000000E+00 -0.00000000000E+00 -0.40679187365E+03  0.40679187365E+03  0.00000000000E+00 0. -1.
         23    2    1    2    0    0  0.19262542844E+03  0.77405162460E+02  0.28580287036E+01  0.22658038085E+03  0.90743516579E+02 0.  0.
         23    2    1    2    0    0 -0.12778251329E+03 -0.15052602596E+03 -0.82198630775E+02  0.23231902652E+03  0.90714166421E+02 0.  0.
        -11    1    3    3    0    0  0.10205665633E+03 -0.75695754950E+01 -0.67225221851E+00  0.10233919824E+03  0.00000000000E+00 0. -1.
         11    1    3    3    0    0  0.90568772115E+02  0.84974737955E+02  0.35302809221E+01  0.12424118261E+03  0.00000000000E+00 0.  1.
        -11    1    4    4    0    0 -0.10954065081E+03 -0.59978886161E+02 -0.49410876776E+02  0.13430582902E+03  0.00000000000E+00 0.  1.
         11    1    4    4    0    0 -0.18241862478E+02 -0.90547139794E+02 -0.32787753999E+02  0.98013197498E+02  0.00000000000E+00 0. -1.
          2    1    1    2  501    0 -0.64842915152E+02  0.73120863495E+02 -0.12032761334E+03  0.15501612451E+03  0.00000000000E+00 0. -1.
<scales pt_clust_5="13000.00000" pt_clust_6="13000.00000" pt_clust_7="13000.00000" pt_clust_8="13000.00000" pt_clust_9="97.73057"></scales>
<clustering>
<clus scale="   90.714">  7  8 -1 -1</clus>
<clus scale="   90.744">  5  6 -1 -1</clus>
<clus scale="   97.731">  2  9  1 -1</clus>
<clus scale="  217.479">  2  7  1 -1</clus>
<clus scale="   97.731">  2  5  1 -1</clus>
</clustering>
</event>
<event>
 9    1  0.1464797E-005  0.1425594E+03  0.7546771E-02  0.1210041E+00
          1   -1    0    0  502    0 -0.00000000000E+00  0.00000000000E+00  0.13521341428E+03  0.13521341428E+03  0.00000000000E+00 0. -1.
         21   -1    0    0  501  502  0.00000000000E+00 -0.00000000000E+00 -0.21536227098E+03  0.21536227098E+03  0.00000000000E+00 0. -1.
         23    2    1    2    0    0 -0.54693713807E+02 -0.92670783785E+02  0.11521856343E+02  0.14188062469E+03  0.91750106227E+02 0.  0.
         23    2    1    2    0    0  0.32404692813E+02  0.11000490092E+03 -0.10210688816E+03  0.17859214004E+03  0.91204131102E+02 0.  0.
        -13    1    3    3    0    0 -0.35988658876E+02  0.68263355826E+01 -0.10839354298E+02  0.38200445374E+02  0.00000000000E+00 0.  1.
         13    1    3    3    0    0 -0.18705054931E+02 -0.99497119368E+02  0.22361210642E+02  0.10368017932E+03  0.00000000000E+00 0. -1.
        -13    1    4    4    0    0  0.25774516812E+02  0.44188696926E+02  0.63554632607E+01  0.51549573870E+02  0.00000000000E+00 0.  1.
         13    1    4    4    0    0  0.66301760013E+01  0.65816203992E+02 -0.10846235142E+03  0.12704256617E+03  0.00000000000E+00 0. -1.
          1    1    1    2  501    0  0.22289020994E+02 -0.17334117132E+02  0.10436175115E+02  0.30102920533E+02  0.00000000000E+00 0. -1.
<scales pt_clust_5="13000.00000" pt_clust_6="13000.00000" pt_clust_7="13000.00000" pt_clust_8="13000.00000" pt_clust_9="28.23602"></scales>
<clustering>
<clus scale="   28.236">  2  9  1 -1</clus>
<clus scale="   91.204">  7  8 -1 -1</clus>
<clus scale="   91.750">  5  6 -1 -1</clus>
<clus scale="  142.209">  2  7  1 -1</clus>
<clus scale="   28.236">  2  5  1 -1</clus>
</clustering>
</event>
<event>
 9    1  0.1464797E-005  0.1088747E+03  0.7546771E-02  0.1264994E+00
         21   -1    0    0  501  502  0.00000000000E+00  0.00000000000E+00  0.24045786033E+02  0.24045786033E+02  0.00000000000E+00 0. -1.
         -3   -1    0    0    0  501 -0.00000000000E+00 -0.00000000000E+00 -0.68775281673E+03  0.68775281673E+03  0.00000000000E+00 0.  1.
         23    2    1    2    0    0 -0.33734601272E+02 -0.24177886559E+02 -0.39368774158E+03  0.40672850089E+03  0.93356531865E+02 0.  0.
         23    2    1    2    0    0  0.57573841473E+02  0.11257630097E+02 -0.22079018524E+03  0.24886737001E+03  0.98717680792E+02 0.  0.
        -13    1    3    3    0    0  0.53894088226E+01 -0.52367534017E+02 -0.17293829844E+03  0.18077350308E+03  0.00000000000E+00 0. -1.
         13    1    3    3    0    0 -0.39124010094E+02  0.28189647459E+02 -0.22074944314E+03  0.22595499781E+03  0.00000000000E+00 0.  1.
        -13    1    4    4    0    0  0.14712475835E+02  0.29166762581E+02 -0.19079701708E+03  0.19357339361E+03  0.00000000000E+00 0.  1.
         13    1    4    4    0    0  0.42861365638E+02 -0.17909132483E+02 -0.29993168158E+02  0.55293976406E+02  0.00000000000E+00 0. -1.
         -3    1    1    2    0  502 -0.23839240201E+02  0.12920256461E+02 -0.49229103875E+02  0.56202731862E+02  0.00000000000E+00 0.  1.
<scales pt_clust_5="13000.00000" pt_clust_6="13000.00000" pt_clust_7="13000.00000" pt_clust_8="13000.00000" pt_clust_9="27.11535"></scales>
<clustering>
<clus scale="   27.115">  1  9  2 -1</clus>
<clus scale="   93.357">  5  6 -1 -1</clus>
<clus scale="   98.718">  7  8 -1 -1</clus>
<clus scale="  104.038">  2  5  1 -1</clus>
<clus scale="   27.115">  1  5  2 -1</clus>
</clustering>
</event>
<event>
 9    1  0.1464797E-005  0.1049080E+03  0.7546771E-02  0.1271443E+00
         21   -1    0    0  501  502  0.00000000000E+00  0.00000000000E+00  0.32717635346E+03  0.32717635346E+03  0.00000000000E+00 0. -1.
          4   -1    0    0  502    0 -0.00000000000E+00 -0.00000000000E+00 -0.69550082419E+02  0.69550082419E+02  0.00000000000E+00 0. -1.
         23    2    1    2    0    0  0.67989130995E+02  0.35867964502E+02  0.62478035092E+02  0.13700435959E+03  0.94644898793E+02 0.  0.
         23    2    1    2    0    0  0.47286723387E+01 -0.24825130478E+02  0.88750214047E+02  0.13037617504E+03  0.92101569364E+02 0.  0.
        -11    1    3    3    0    0  0.64193900130E+02  0.64161231258E+02  0.34684971253E+02  0.97162583546E+02  0.00000000000E+00 0. -1.
         11    1    3    3    0    0  0.37952308648E+01 -0.28293266756E+02  0.27793063839E+02  0.39841776047E+02  0.00000000000E+00 0.  1.
        -13    1    4    4    0    0 -0.41593270796E+02  0.65926679364E+00  0.29678177985E+02  0.51100186465E+02  0.00000000000E+00 0.  1.
         13    1    4    4    0    0  0.46321943135E+02 -0.25484397271E+02  0.59072036062E+02  0.79275988575E+02  0.00000000000E+00 0. -1.
          4    1    1    2  501    0 -0.72717803333E+02 -0.11042834024E+02  0.10639802190E+03  0.12934590125E+03  0.00000000000E+00 0. -1.
<scales pt_clust_5="13000.00000" pt_clust_6="13000.00000" pt_clust_7="13000.00000" pt_clust_8="13000.00000" pt_clust_9="73.55150"></scales>
<clustering>
<clus scale="   73.551">  1  9  2 -1</clus>
<clus scale="   92.102">  7  8 -1 -1</clus>
<clus scale="   94.645">  5  6 -1 -1</clus>
<clus scale="  102.619">  1  7  2 -1</clus>
<clus scale="   73.551">  1  5  2 -1</clus>
</clustering>
</event>
<event>
 9    1  0.1464797E-005  0.9618071E+02  0.7546771E-02  0.1291486E+00
          3   -1    0    0  502    0 -0.00000000000E+00  0.00000000000E+00  0.30920004681E+03  0.30920004681E+03  0.00000000000E+00 0. -1.
         21   -1    0    0  501  502  0.00000000000E+00 -0.00000000000E+00 -0.68415793387E+02  0.68415793387E+02  0.00000000000E+00 0.  1.
         23    2    1    2    0    0 -0.90030869790E+01  0.15182136944E+02  0.21513782649E+03  0.23395955383E+03  0.90228795780E+02 0.  0.
         23    2    1    2    0    0  0.57282587420E+01  0.24836943495E+02  0.60224111017E+01  0.98964527654E+02  0.95435955425E+02 0.  0.
        -11    1    3    3    0    0  0.39961788347E+02  0.14739673888E+02  0.11072402250E+03  0.11863393980E+03  0.00000000000E+00 0.  1.
         11    1    3    3    0    0 -0.48964875326E+02  0.44246305613E+00  0.10441380399E+03  0.11532561403E+03  0.00000000000E+00 0. -1.
        -11    1    4    4    0    0 -0.17743970102E+02  0.53897980785E+02 -0.11185248854E+02  0.57835547889E+02  0.00000000000E+00 0. -1.
         11    1    4    4    0    0  0.23472228844E+02 -0.29061037290E+02  0.17207659956E+02  0.41128979765E+02  0.00000000000E+00 0.  1.
          3    1    1    2  501    0  0.32748282370E+01 -0.40019080439E+02  0.19624015839E+02  0.44691758712E+02  0.00000000000E+00 0. -1.
<scales pt_clust_5="13000.00000" pt_clust_6="13000.00000" pt_clust_7="13000.00000" pt_clust_8="13000.00000" pt_clust_9="40.15285"></scales>
<clustering>
<clus scale="   40.153">  2  9  1 -1</clus>
<clus scale="   90.229">  5  6 -1 -1</clus>
<clus scale="   91.016">  1  5  2 -1</clus>
<clus scale="   95.436">  7  8 -1 -1</clus>
<clus scale="   40.153">  2  5  1 -1</clus>
</clustering>
</event>
<event>
 9    1  0.1464797E-005  0.2205380E+03  0.7546771E-02  0.1133643E+00
         21   -1    0    0  501  502  0.00000000000E+00  0.00000000000E+00  0.84822987366E+02  0.84822987366E+02  0.00000000000E+00 0. -1.
          1   -1    0    0  502    0 -0.00000000000E+00 -0.00000000000E+00 -0.12983878014E+04  0.12983878014E+04  0.00000000000E+00 0. -1.
         23    2    1    2    0    0  0.13024264171E+03 -0.14862930153E+03 -0.93452714507E+03  0.95942126396E+03  0.89968671567E+02 0.  0.
         23    2    1    2    0    0 -0.11472521614E+03  0.17662995000E+03 -0.30545895390E+03  0.38228156035E+03  0.92054355714E+02 0.  0.
        -11    1    4    4    0    0 -0.29191725617E+02 -0.42671906464E+01 -0.45535591429E+02  0.54257311464E+02  0.00000000000E+00 0. -1.
         11    1    4    4    0    0 -0.85533490521E+02  0.18089714064E+03 -0.25992336248E+03  0.32802424888E+03  0.00000000000E+00 0.  1.
        -13    1    3    3    0    0  0.14025663876E+02 -0.51545836490E+02 -0.12634178380E+03  0.13717120266E+03  0.00000000000E+00 0.  1.
         13    1    3    3    0    0  0.11621697783E+03 -0.97083465038E+02 -0.80818536128E+03  0.82225006130E+03  0.00000000000E+00 0. -1.
          1    1    1    2  501    0 -0.15517425568E+02 -0.28000648471E+02  0.26421284978E+02  0.41507964428E+02  0.00000000000E+00 0. -1.
<scales pt_clust_5="13000.00000" pt_clust_6="13000.00000" pt_clust_7="13000.00000" pt_clust_8="13000.00000" pt_clust_9="32.01292"></scales>
<clustering>
<clus scale="   32.013">  1  9  2 -1</clus>
<clus scale="   89.969">  7  8 -1 -1</clus>
<clus scale="   92.054">  5  6 -1 -1</clus>
<clus scale="  219.676">  2  7  1 -1</clus>
<clus scale="   32.013">  1  5  2 -1</clus>
</clustering>
</event>
<event>
 9    1  0.1464797E-005  0.9738166E+02  0.7546771E-02  0.1287231E+00
         21   -1    0    0  501  502  0.00000000000E+00  0.00000000000E+00  0.90063911511E+02  0.90063911511E+02  0.00000000000E+00 0. -1.
          2   -1    0    0  502    0 -0.00000000000E+00 -0.00000000000E+00 -0.20548073146E+03  0.20548073146E+03  0.00000000000E+00 0. -1.
         23    2    1    2    0    0 -0.10385518602E+02 -0.33882715027E+02 -0.12785262460E+03  0.16204914960E+03  0.93046955333E+02 0.  0.
         23    2    1    2    0    0  0.50080043423E+01  0.22381676817E+01  0.31689957364E+02  0.96065325945E+02  0.90521842386E+02 0.  0.
        -11    1    4    4    0    0  0.10053549985E+02 -0.17335776159E+02  0.58873024654E+02  0.62190321065E+02  0.00000000000E+00 0. -1.
         11    1    4    4    0    0 -0.50455456423E+01  0.19573943841E+02 -0.27183067289E+02  0.33875004879E+02  0.00000000000E+00 0.  1.
        -11    1    3    3    0    0 -0.24235275815E+02 -0.70318210674E+01  0.50675774584E+01  0.25738598304E+02  0.00000000000E+00 0.  1.
         11    1    3    3    0    0  0.13849757213E+02 -0.26850893959E+02 -0.13292020206E+03  0.13631055130E+03  0.00000000000E+00 0. -1.
          2    1    1    2  501    0  0.53775142602E+01  0.31644547345E+02 -0.19254152712E+02  0.37430167418E+02  0.00000000000E+00 0. -1.
<scales pt_clust_5="13000.00000" pt_clust_6="13000.00000" pt_clust_7="13000.00000" pt_clust_8="13000.00000" pt_clust_9="32.09823"></scales>
<clustering>
<clus scale="   32.098">  1  9  2 -1</clus>
<clus scale="   90.522">  5  6 -1 -1</clus>
<clus scale="   93.047">  7  8 -1 -1</clus>
<clus scale="   94.972">  1  5  2 -1</clus>
<clus scale="   32.098">  1  5  2 -1</clus>
</clustering>
</event>
<event>
 9    1  0.1464797E-005  0.1056230E+03  0.7546771E-02  0.1271990E+00
         21   -1    0    0  501  502  0.00000000000E+00  0.00000000000E+00  0.14870169011E+03  0.14870169011E+03  0.00000000000E+00 0. -1.
         -2   -1    0    0    0  501 -0.00000000000E+00 -0.00000000000E+00 -0.22003043489E+03  0.22003043489E+03  0.00000000000E+00 0.  1.
         23    2    1    2    0    0 -0.46785192650E+01 -0.71672369644E+02 -0.15191036439E+03  0.19033628070E+03  0.89399797702E+02 0.  0.
         23    2    1    2    0    0  0.15794455064E+02  0.17542601591E+02  0.60441700078E+01  0.85608845147E+02  0.82067866397E+02 0.  0.
        -11    1    3    3    0    0  0.25755021644E+02 -0.18691856862E+02 -0.11416684820E+03  0.11851909501E+03  0.00000000000E+00 0.  1.
         11    1    3    3    0    0 -0.30433540909E+02 -0.52980512782E+02 -0.37743516190E+02  0.71817185696E+02  0.00000000000E+00 0. -1.
        -11    1    4    4    0    0  0.45391060669E+02 -0.49456294984E+01  0.13673294484E+02  0.47663053006E+02  0.00000000000E+00 0.  1.
         11    1    4    4    0    0 -0.29596605606E+02  0.22488231089E+02 -0.76291244760E+01  0.37945792141E+02  0.00000000000E+00 0. -1.
         -2    1    1    2    0  502 -0.11115935799E+02  0.54129768053E+02  0.74537449603E+02  0.92786999152E+02  0.00000000000E+00 0.  1.
<scales pt_clust_5="13000.00000" pt_clust_6="13000.00000" pt_clust_7="13000.00000" pt_clust_8="13000.00000" pt_clust_9="55.25935"></scales>
<clustering>
<clus scale="   55.259">  1  9  2 -1</clus>
<clus scale="   82.068">  7  8 -1 -1</clus>
<clus scale="   89.400">  5  6 -1 -1</clus>
<clus scale="   99.494">  1  7  2 -1</clus>
<clus scale="   55.259">  1  5  2 -1</clus>
</clustering>
</event>
<event>
 9    1  0.1464797E-005  0.9631967E+02  0.7546771E-02  0.1288915E+00
         21   -1    0    0  501  502  0.00000000000E+00  0.00000000000E+00  0.17497584647E+03  0.17497584647E+03  0.00000000000E+00 0. -1.
          1   -1    0    0  502    0 -0.00000000000E+00 -0.00000000000E+00 -0.47299494112E+03  0.47299494112E+03  0.00000000000E+00 0. -1.
         23    2    1    2    0    0  0.25545473222E+02  0.24835815019E+02 -0.40533733942E+03  0.41707589569E+03  0.91567216434E+02 0.  0.
         23    2    1    2    0    0  0.39094812477E+02 -0.13950243425E+02 -0.64758474618E+01  0.99571026473E+02  0.90274243604E+02 0.  0.
        -11    1    3    3    0    0  0.57740433482E+02  0.84958777130E+01 -0.19095323739E+03  0.19967292371E+03  0.00000000000E+00 0. -1.
         11    1    3    3    0    0 -0.32194960260E+02  0.16339937306E+02 -0.21438410204E+03  0.21740297198E+03  0.00000000000E+00 0.  1.
        -13    1    4    4    0    0  0.51748658727E+02  0.87018869371E+01 -0.33381104006E+02  0.62192802002E+02  0.00000000000E+00 0. -1.
         13    1    4    4    0    0 -0.12653846249E+02 -0.22652130362E+02  0.26905256544E+02  0.37378224470E+02  0.00000000000E+00 0.  1.
          1    1    1    2  501    0 -0.64640285699E+02 -0.10885571594E+02  0.11379409224E+03  0.13132386543E+03  0.00000000000E+00 0. -1.
<scales pt_clust_5="13000.00000" pt_clust_6="13000.00000" pt_clust_7="13000.00000" pt_clust_8="13000.00000" pt_clust_9="65.55046"></scales>
<clustering>
<clus scale="   65.550">  1  9  2 -1</clus>
<clus scale="   90.274">  7  8 -1 -1</clus>
<clus scale="   91.567">  5  6 -1 -1</clus>
<clus scale="   95.091">  1  7  2 -1</clus>
<clus scale="   65.550">  1  5  2 -1</clus>
</clustering>
</event>
<event>
 9    1  0.1464797E-005  0.1016686E+03  0.7546771E-02  0.1277202E+00
         21   -1    0    0  501  502  0.00000000000E+00  0.00000000000E+00  0.67017769645E+02  0.67017769645E+02  0.00000000000E+00 0.  1.
          1   -1    0    0  502    0 -0.00000000000E+00 -0.00000000000E+00 -0.31333757664E+03  0.31333757664E+03  0.00000000000E+00 0. -1.
         23    2    1    2    0    0  0.17185202465E+02 -0.46813848865E+02 -0.19845205847E+03  0.22362386863E+03  0.90208355948E+02 0.  0.
         23    2    1    2    0    0 -0.35182467937E+02  0.22574279423E+02 -0.67440345655E+02  0.12075169375E+03  0.91023992336E+02 0.  0.
        -13    1    4    4    0    0  0.49963088023E+01 -0.31333800420E+02 -0.30623680875E+02  0.44097391995E+02  0.00000000000E+00 0. -1.
         13    1    4    4    0    0 -0.40178776739E+02  0.53908079843E+02 -0.36816664780E+02  0.76654301758E+02  0.00000000000E+00 0.  1.
        -13    1    3    3    0    0  0.38114710215E+02 -0.26726076565E+02 -0.18654504449E+03  0.19226561816E+03  0.00000000000E+00 0. -1.
         13    1    3    3    0    0 -0.20929507750E+02 -0.20087772300E+02 -0.11907013975E+02  0.31358250469E+02  0.00000000000E+00 0.  1.
          1    1    1    2  501    0  0.17997265472E+02  0.24239569443E+02  0.19572597126E+02  0.35979783900E+02  0.00000000000E+00 0. -1.
<scales pt_clust_5="13000.00000" pt_clust_6="13000.00000" pt_clust_7="13000.00000" pt_clust_8="13000.00000" pt_clust_9="30.19037"></scales>
<clustering>
<clus scale="   30.190">  1  9  2 -1</clus>
<clus scale="   90.208">  7  8 -1 -1</clus>
<clus scale="   91.024">  5  6 -1 -1</clus>
<clus scale="  100.939">  2  7  1 -1</clus>
<clus scale="   30.190">  1  5  2 -1</clus>
</clustering>
</event>
<event>
 9    1  0.1464797E-005  0.1115333E+03  0.7546771E-02  0.1262030E+00
         -2   -1    0    0    0  501 -0.00000000000E+00  0.00000000000E+00  0.28006276273E+03  0.28006276273E+03  0.00000000000E+00 0.  1.
         21   -1    0    0  501  502  0.00000000000E+00 -0.00000000000E+00 -0.65151402712E+02  0.65151402712E+02  0.00000000000E+00 0. -1.
         23    2    1    2    0    0  0.96628981346E+01 -0.63607549165E+02  0.11828349837E+03  0.16765631710E+03  0.99891755241E+02 0.  0.
         23    2    1    2    0    0  0.20680510394E+02  0.30749912735E+02  0.39062652193E+02  0.10465997422E+03  0.89747305046E+02 0.  0.
        -11    1    3    3    0    0  0.37250432629E+02 -0.61606964373E+02  0.35294652745E+02  0.80179332142E+02  0.00000000000E+00 0. -1.
         11    1    3    3    0    0 -0.27587534494E+02 -0.20005847917E+01  0.82988845623E+02  0.87476984955E+02  0.00000000000E+00 0.  1.
        -11    1    4    4    0    0  0.44861139547E+02 -0.13283017703E+02  0.16780645200E+02  0.49704632119E+02  0.00000000000E+00 0. -1.
         11    1    4    4    0    0 -0.24180629153E+02  0.44032930439E+02  0.22282006993E+02  0.54955342096E+02  0.00000000000E+00 0.  1.
         -2    1    1    2    0  502 -0.30343408529E+02  0.32857636429E+02  0.57565209455E+02  0.72897874129E+02  0.00000000000E+00 0.  1.
<scales pt_clust_5="13000.00000" pt_clust_6="13000.00000" pt_clust_7="13000.00000" pt_clust_8="13000.00000" pt_clust_9="44.72526"></scales>
<clustering>
<clus scale="   44.725">  2  9  1 -1</clus>
<clus scale="   89.747">  7  8 -1 -1</clus>
<clus scale="   99.892">  5  6 -1 -1</clus>
<clus scale="  102.547">  2  7  1 -1</clus>
<clus scale="   44.725">  2  5  1 -1</clus>
</clustering>
</event>
<event>
 9    1  0.1464797E-005  0.9574065E+02  0.7546771E-02  0.1292498E+00
         21   -1    0    0  501  502  0.00000000000E+00  0.00000000000E+00  0.12941076914E+04  0.12941076914E+04  0.00000000000E+00 0. -1.
          1   -1    0    0  502    0 -0.00000000000E+00 -0.00000000000E+00 -0.19637686692E+02  0.19637686692E+02  0.00000000000E+00 0. -1.
         23    2    1    2    0    0 -0.28458394725E+02  0.40903103170E+02  0.24869611930E+03  0.26865192851E+03  0.88550295632E+02 0.  0.
         23    2    1    2    0    0 -0.23775231705E+01  0.49735846428E+02  0.44502520103E+03  0.45650589669E+03  0.88718076644E+02 0.  0.
        -13    1    3    3    0    0 -0.57894596072E+02  0.11438598152E+02  0.16340724712E+03  0.17373702597E+03  0.00000000000E+00 0.  1.
         13    1    3    3    0    0  0.29436201346E+02  0.29464505018E+02  0.85288872176E+02  0.94914902533E+02  0.00000000000E+00 0. -1.
        -13    1    4    4    0    0  0.40704897642E+02  0.40948167283E+02  0.24724157239E+03  0.25389374985E+03  0.00000000000E+00 0.  1.
         13    1    4    4    0    0 -0.43082420813E+02  0.87876791458E+01  0.19778362864E+03  0.20261214684E+03  0.00000000000E+00 0. -1.
          1    1    1    2  501    0  0.30835917896E+02 -0.90638949598E+02  0.58074868441E+03  0.58858755293E+03  0.00000000000E+00 0. -1.
<scales pt_clust_5="13000.00000" pt_clust_6="13000.00000" pt_clust_7="13000.00000" pt_clust_8="13000.00000" pt_clust_9="95.74065"></scales>
<clustering>
<clus scale="   88.550">  5  6 -1 -1</clus>
<clus scale="   88.718">  7  8 -1 -1</clus>
<clus scale="   95.741">  1  9  2 -1</clus>
<clus scale="   90.549">  2  5  1 -1</clus>
<clus scale="   95.741">  1  5  2 -1</clus>
</clustering>
</event>
<event>
 9    1  0.1464797E-005  0.9606998E+02  0.7546771E-02  0.1289730E+00
         -3   -1    0    0    0  501 -0.00000000000E+00  0.00000000000E+00  0.74938390601E+03  0.74938390601E+03  0.00000000000E+00 0.  1.
         21   -1    0    0  501  502  0.00000000000E+00 -0.00000000000E+00 -0.17243744179E+02  0.17243744179E+02  0.00000000000E+00 0. -1.
         23    2    1    2    0    0  0.13876746838E+02  0.22141357373E+02  0.46068776754E+03  0.47082440725E+03  0.93592732052E+02 0.  0.
         23    2    1    2    0    0  0.69149720714E+01 -0.18321972012E+02  0.24168246955E+03  0.25929116687E+03  0.91858486985E+02 0.  0.
        -11    1    3    3    0    0  0.37434690836E+02  0.48532599761E+02  0.26839614394E+03  0.27530575621E+03  0.00000000000E+00 0. -1.
         11    1    3    3    0    0 -0.23557943998E+02 -0.26391242388E+02  0.19229162360E+03  0.19551865104E+03  0.00000000000E+00 0.  1.
        -13    1    4    4    0    0  0.12733569257E+02 -0.50022909977E+02  0.20026647329E+03  0.20681173959E+03  0.00000000000E+00 0.  1.
         13    1    4    4    0    0 -0.58185971856E+01  0.31700937966E+02  0.41415996256E+02  0.52479427274E+02  0.00000000000E+00 0. -1.
         -3    1    1    2    0  502 -0.20791718909E+02 -0.38193853614E+01  0.29769924740E+02  0.36512076067E+02  0.00000000000E+00 0.  1.
<scales pt_clust_5="13000.00000" pt_clust_6="13000.00000" pt_clust_7="13000.00000" pt_clust_8="13000.00000" pt_clust_9="21.13961"></scales>
<clustering>
<clus scale="   21.140">  2  9  1 -1</clus>
<clus scale="   91.858">  7  8 -1 -1</clus>
<clus scale="   93.593">  5  6 -1 -1</clus>
<clus scale="   94.381">  2  7  1 -1</clus>
<clus scale="   21.140">  2  5  1 -1</clus>
</clustering>
</event>
<event>
 9    1  0.1464797E-005  0.1173576E+03  0.7546771E-02  0.1247902E+00
         -1   -1    0    0    0  501 -0.00000000000E+00  0.00000000000E+00  0.46020309964E+03  0.46020309964E+03  0.00000000000E+00 0.  1.
         21   -1    0    0  501  502  0.00000000000E+00 -0.00000000000E+00 -0.66482995868E+02  0.66482995868E+02  0.00000000000E+00 0.  1.
         23    2    1    2    0    0  0.54359383886E+02  0.63521994681E+02  0.28709510492E+03  0.31327458128E+03  0.93420434503E+02 0.  0.
         23    2    1    2    0    0  0.64528979214E+01 -0.61820028812E+02  0.10432752515E+03  0.15253205389E+03  0.92295390487E+02 0.  0.
        -11    1    3    3    0    0  0.25208350267E+02  0.47441927641E+02  0.27104099261E+03  0.27631398281E+03  0.00000000000E+00 0.  1.
         11    1    3    3    0    0  0.29151033619E+02  0.16080067039E+02  0.16054112306E+02  0.36960598466E+02  0.00000000000E+00 0. -1.
        -13    1    4    4    0    0  0.33674098581E+02  0.95964843185E+00  0.66003919110E+02  0.74103867499E+02  0.00000000000E+00 0.  1.
         13    1    4    4    0    0 -0.27221200660E+02 -0.62779677244E+02  0.38323606040E+02  0.78428186388E+02  0.00000000000E+00 0. -1.
         -1    1    1    2    0  502 -0.60812281808E+02 -0.17019658691E+01  0.22974737062E+01  0.60879460345E+02  0.00000000000E+00 0.  1.
<scales pt_clust_5="13000.00000" pt_clust_6="13000.00000" pt_clust_7="13000.00000" pt_clust_8="13000.00000" pt_clust_9="60.83609"></scales>
<clustering>
<clus scale="   60.836">  2  9  1 -1</clus>
<clus scale="   92.295">  7  8 -1 -1</clus>
<clus scale="   93.420">  5  6 -1 -1</clus>
<clus scale="  116.464">  2  7  1 -1</clus>
<clus scale="   60.836">  2  5  1 -1</clus>
</clustering>
</event>
<event>
 9    1  0.1464797E-005  0.1268946E+03  0.7546771E-02  0.1233908E+00
          1   -1    0    0  502    0 -0.00000000000E+00  0.00000000000E+00  0.27270782329E+03  0.27270782329E+03  0.00000000000E+00 0. -1.
         21   -1    0    0  501  502  0.00000000000E+00 -0.00000000000E+00 -0.17475293065E+03  0.17475293065E+03  0.00000000000E+00 0. -1.
         23    2    1    2    0    0 -0.86516256457E+02  0.87746531532E+01  0.13399375254E+03  0.18121240705E+03  0.85566077277E+02 0.  0.
         23    2    1    2    0    0  0.85113993768E+02  0.67456165174E+02  0.50434106343E+02  0.15096314449E+03  0.91932288971E+02 0.  0.
        -11    1    3    3    0    0 -0.38750359328E+02 -0.36871238853E+02  0.42291304337E+02  0.68188217641E+02  0.00000000000E+00 0.  1.
         11    1    3    3    0    0 -0.47765897129E+02  0.45645892006E+02  0.91702448198E+02  0.11302418941E+03  0.00000000000E+00 0. -1.
        -13    1    4    4    0    0  0.43337503969E+02  0.83632579868E+02  0.48916452008E+02  0.10613843292E+03  0.00000000000E+00 0. -1.
         13    1    4    4    0    0  0.41776489799E+02 -0.16176414694E+02  0.15176543349E+01  0.44824711566E+02  0.00000000000E+00 0.  1.
          1    1    1    2  501    0  0.14022626891E+01 -0.76230818327E+02 -0.86472966243E+02  0.11528520241E+03  0.00000000000E+00 0. -1.
<scales pt_clust_5="13000.00000" pt_clust_6="13000.00000" pt_clust_7="13000.00000" pt_clust_8="13000.00000" pt_clust_9="76.24371"></scales>
<clustering>
<clus scale="   76.244">  2  9  1 -1</clus>
<clus scale="   85.566">  5  6 -1 -1</clus>
<clus scale="   91.932">  7  8 -1 -1</clus>
<clus scale="  122.361">  1  5  2 -1</clus>
<clus scale="   76.244">  2  5  1 -1</clus>
</clustering>
</event>
<event>
 9    1  0.1464797E-005  0.1298360E+03  0.7546771E-02  0.1227706E+00
          3   -1    0    0  502    0 -0.00000000000E+00  0.00000000000E+00  0.65021116052E+03  0.65021116052E+03  0.00000000000E+00 0. -1.
         21   -1    0    0  501  502  0.00000000000E+00 -0.00000000000E+00 -0.47442167891E+02  0.47442167891E+02  0.00000000000E+00 0.  1.
         23    2    1    2    0    0  0.13813919504E+02  0.88707657945E+02  0.37820238854E+03  0.39919226319E+03  0.90871025867E+02 0.  0.
         23    2    1    2    0    0 -0.66841853565E+02 -0.85747177732E+02  0.18026331052E+03  0.22929815569E+03  0.90897586356E+02 0.  0.
        -11    1    4    4    0    0 -0.87727740403E+02 -0.82733228114E+02  0.15494702110E+03  0.19634032397E+03  0.00000000000E+00 0. -1.
         11    1    4    4    0    0  0.20885886838E+02 -0.30139496180E+01  0.25316289418E+02  0.32957831713E+02  0.00000000000E+00 0.  1.
        -13    1    3    3    0    0  0.51304104637E+02  0.66041011792E+02  0.26095288501E+03  0.27402542690E+03  0.00000000000E+00 0.  1.
         13    1    3    3    0    0 -0.37490185133E+02  0.22666646153E+02  0.11724950353E+03  0.12516683629E+03  0.00000000000E+00 0. -1.
          3    1    1    2  501    0  0.53027934061E+02 -0.29604802128E+01  0.44303293568E+02  0.69162909531E+02  0.00000000000E+00 0. -1.
<scales pt_clust_5="13000.00000" pt_clust_6="13000.00000" pt_clust_7="13000.00000" pt_clust_8="13000.00000" pt_clust_9="53.11051"></scales>
<clustering>
<clus scale="   53.111">  2  9  1 -1</clus>
<clus scale="   90.871">  7  8 -1 -1</clus>
<clus scale="   90.898">  5  6 -1 -1</clus>
<clus scale="  129.817">  1  7  2 -1</clus>
<clus scale="   53.111">  2  5  1 -1</clus>
</clustering>
</event>
<event>
 9    1  0.1464797E-005  0.9582021E+02  0.7546771E-02  0.1289641E+00
         21   -1    0    0  501  502  0.00000000000E+00  0.00000000000E+00  0.67777212856E+02  0.67777212856E+02  0.00000000000E+00 0.  1.
          1   -1    0    0  502    0 -0.00000000000E+00 -0.00000000000E+00 -0.19210452709E+03  0.19210452709E+03  0.00000000000E+00 0. -1.
         23    2    1    2    0    0 -0.27012099122E+01  0.41240523221E+02 -0.58767059661E+02  0.11546878205E+03  0.90395768913E+02 0.  0.
         23    2    1    2    0    0 -0.16712706059E+02 -0.15866547107E+02 -0.34860445395E+02  0.10010475232E+03  0.90965097282E+02 0.  0.
        -13    1    4    4    0    0 -0.52236554787E+02  0.51596303809E+01 -0.21401512140E+02  0.56686013827E+02  0.00000000000E+00 0.  1.
         13    1    4    4    0    0  0.35523848728E+02 -0.21026177488E+02 -0.13458933256E+02  0.43418738496E+02  0.00000000000E+00 0. -1.
        -13    1    3    3    0    0  0.26518951971E+02  0.35943866994E+02 -0.70565336735E+02  0.83514568410E+02  0.00000000000E+00 0. -1.
         13    1    3    3    0    0 -0.29220161884E+02  0.52966562268E+01  0.11798277074E+02  0.31954213644E+02  0.00000000000E+00 0.  1.
          1    1    1    2  501    0  0.19413915971E+02 -0.25373976114E+02 -0.30699809176E+02  0.44308205568E+02  0.00000000000E+00 0. -1.
<scales pt_clust_5="13000.00000" pt_clust_6="13000.00000" pt_clust_7="13000.00000" pt_clust_8="13000.00000" pt_clust_9="31.94902"></scales>
<clustering>
<clus scale="   31.949">  1  9  2 -1</clus>
<clus scale="   90.396">  7  8 -1 -1</clus>
<clus scale="   90.965">  5  6 -1 -1</clus>
<clus scale="   95.280">  2  7  1 -1</clus>
<clus scale="   31.949">  1  5  2 -1</clus>
</clustering>
</event>
<event>
 9    1  0.1464797E-005  0.1407496E+03  0.7546771E-02  0.1212672E+00
         21   -1    0    0  501  502  0.00000000000E+00  0.00000000000E+00  0.52782488694E+02  0.52782488694E+02  0.00000000000E+00 0.  1.
          1   -1    0    0  502    0 -0.00000000000E+00 -0.00000000000E+00 -0.95617354536E+03  0.95617354536E+03  0.00000000000E+00 0. -1.
         23    2    1    2    0    0  0.10615530952E+03  0.47166951363E+02 -0.72012477727E+03  0.73530442254E+03  0.92732022139E+02 0.  0.
         23    2    1    2    0    0 -0.77560592503E+02 -0.28228271383E+02 -0.20054889113E+03  0.23524562098E+03  0.91149128571E+02 0.  0.
        -11    1    4    4    0    0 -0.64501347860E+02  0.76691796225E+01 -0.56089694692E+02  0.85821291312E+02  0.00000000000E+00 0.  1.
         11    1    4    4    0    0 -0.13059244643E+02 -0.35897451005E+02 -0.14445919644E+03  0.14942432967E+03  0.00000000000E+00 0. -1.
        -11    1    3    3    0    0  0.10220178311E+02  0.49051786538E+02 -0.18607166307E+03  0.19269974988E+03  0.00000000000E+00 0.  1.
         11    1    3    3    0    0  0.95935131213E+02 -0.18848351744E+01 -0.53405311419E+03  0.54260467265E+03  0.00000000000E+00 0. -1.
          1    1    1    2  501    0 -0.28594717022E+02 -0.18938679980E+02  0.17282611734E+02  0.38405990540E+02  0.00000000000E+00 0. -1.
<scales pt_clust_5="13000.00000" pt_clust_6="13000.00000" pt_clust_7="13000.00000" pt_clust_8="13000.00000" pt_clust_9="34.29769"></scales>
<clustering>
<clus scale="   34.298">  1  9  2 -1</clus>
<clus scale="   91.149">  5  6 -1 -1</clus>
<clus scale="   92.732">  7  8 -1 -1</clus>
<clus scale="  139.712">  1  5  2 -1</clus>
<clus scale="   34.298">  1  5  2 -1</clus>
</clustering>
</event>
<event>
 9    1  0.1464797E-005  0.1418191E+03  0.7546771E-02  0.1212164E+00
         21   -1    0    0  501  502  0.00000000000E+00  0.00000000000E+00  0.10444985305E+03  0.10444985305E+03  0.00000000000E+00 0. -1.
          1   -1    0    0  502    0 -0.00000000000E+00 -0.00000000000E+00 -0.55358064229E+03  0.55358064229E+03  0.00000000000E+00 0. -1.
         23    2    1    2    0    0 -0.61248961719E+02 -0.13495455430E+03 -0.37935809916E+03  0.41641168660E+03  0.86729224042E+02 0.  0.
         23    2    1    2    0    0  0.18408471961E+02  0.51394551299E+02 -0.96002680002E+02  0.14412217272E+03  0.92598133668E+02 0.  0.
        -13    1    3    3    0    0  0.19464708036E+02 -0.52475131366E+02 -0.13653093554E+03  0.14755748246E+03  0.00000000000E+00 0.  1.
         13    1    3    3    0    0 -0.80713669755E+02 -0.82479422931E+02 -0.24282716362E+03  0.26885420414E+03  0.00000000000E+00 0. -1.
        -13    1    4    4    0    0  0.19565134158E+02 -0.24405435129E+02 -0.33873976378E+02  0.46107114572E+02  0.00000000000E+00 0. -1.
         13    1    4    4    0    0 -0.11566621974E+01  0.75799986427E+02 -0.62128703624E+02  0.98015058148E+02  0.00000000000E+00 0.  1.
          1    1    1    2  501    0  0.42840489759E+02  0.83560002998E+02  0.26229989928E+02  0.97496636021E+02  0.00000000000E+00 0. -1.
<scales pt_clust_5="13000.00000" pt_clust_6="13000.00000" pt_clust_7="13000.00000" pt_clust_8="13000.00000" pt_clust_9="93.90198"></scales>
<clustering>
<clus scale="   86.729">  5  6 -1 -1</clus>
<clus scale="   92.598">  7  8 -1 -1</clus>
<clus scale="   93.902">  1  9  2 -1</clus>
<clus scale="  138.059">  2  5  1 -1</clus>
<clus scale="   93.902">  1  5  2 -1</clus>
</clustering>
</event>
<event>
 9    1  0.1464797E-005  0.1141444E+03  0.7546771E-02  0.1253530E+00
          2   -1    0    0  502    0 -0.00000000000E+00  0.00000000000E+00  0.17235884287E+03  0.17235884287E+03  0.00000000000E+00 0. -1.
         21   -1    0    0  501  502  0.00000000000E+00 -0.00000000000E+00 -0.29503060982E+03  0.29503060982E+03  0.00000000000E+00 0. -1.
         23    2    1    2    0    0  0.51123387966E+01 -0.10845977348E+03  0.74769332129E+02  0.15987225422E+03  0.90437968633E+02 0.  0.
         23    2    1    2    0    0  0.11487033663E+02  0.20670465774E+02 -0.43992983399E+01  0.94802275288E+02  0.91700040764E+02 0.  0.
        -13    1    4    4    0    0  0.49113148740E+02 -0.32198180206E+01 -0.88603402519E+01  0.50009741417E+02  0.00000000000E+00 0. -1.
         13    1    4    4    0    0 -0.37626115077E+02  0.23890283795E+02  0.44610419119E+01  0.44792533871E+02  0.00000000000E+00 0.  1.
        -13    1    3    3    0    0  0.76480879886E+01 -0.34566186571E+02  0.78216019517E+02  0.85854878796E+02  0.00000000000E+00 0.  1.
         13    1    3    3    0    0 -0.25357491920E+01 -0.73893586913E+02 -0.34466873885E+01  0.74017375425E+02  0.00000000000E+00 0. -1.
          2    1    1    2  501    0 -0.16599372459E+02  0.87789307710E+02 -0.19304180073E+03  0.21271492318E+03  0.00000000000E+00 0. -1.
<scales pt_clust_5="13000.00000" pt_clust_6="13000.00000" pt_clust_7="13000.00000" pt_clust_8="13000.00000" pt_clust_9="89.34485"></scales>
<clustering>
<clus scale="   89.345">  2  9  1 -1</clus>
<clus scale="   90.438">  7  8 -1 -1</clus>
<clus scale="   91.700">  5  6 -1 -1</clus>
<clus scale="  113.133">  1  7  2 -1</clus>
<clus scale="   89.345">  2  5  1 -1</clus>
</clustering>
</event>
<event>
 9    1  0.1464797E-005  0.1086644E+03  0.7546771E-02  0.1264993E+00
         21   -1    0    0  501  502  0.00000000000E+00  0.00000000000E+00  0.24126607733E+03  0.24126607733E+03  0.00000000000E+00 0. -1.
          1   -1    0    0  502    0 -0.00000000000E+00 -0.00000000000E+00 -0.13258413160E+03  0.13258413160E+03  0.00000000000E+00 0. -1.
         23    2    1    2    0    0 -0.53785450354E+02  0.17611797801E+02 -0.70803630666E+02  0.13124053543E+03  0.94909820005E+02 0.  0.
         23    2    1    2    0    0  0.47521255494E+02  0.25403913891E+02  0.74147047545E+02  0.12865443119E+03  0.90280393451E+02 0.  0.
        -11    1    3    3    0    0 -0.29841595945E+02  0.56626925865E+02 -0.33840445715E+02  0.72403766115E+02  0.00000000000E+00 0. -1.
         11    1    3    3    0    0 -0.23943854408E+02 -0.39015128065E+02 -0.36963184951E+02  0.58836769316E+02  0.00000000000E+00 0.  1.
        -13    1    4    4    0    0  0.53177256056E+02 -0.66202097108E+01  0.79320636100E+02  0.95725707361E+02  0.00000000000E+00 0.  1.
         13    1    4    4    0    0 -0.56560005619E+01  0.32024123602E+02 -0.51735885553E+01  0.32928723834E+02  0.00000000000E+00 0. -1.
          1    1    1    2  501    0  0.62641948591E+01 -0.43015711691E+02  0.10533852885E+03  0.11395524231E+03  0.00000000000E+00 0. -1.
<scales pt_clust_5="13000.00000" pt_clust_6="13000.00000" pt_clust_7="13000.00000" pt_clust_8="13000.00000" pt_clust_9="43.46943"></scales>
<clustering>
<clus scale="   43.469">  1  9  2 -1</clus>
<clus scale="   90.280">  7  8 -1 -1</clus>
<clus scale="   94.910">  5  6 -1 -1</clus>
<clus scale="  104.645">  1  7  2 -1</clus>
<clus scale="   43.469">  1  5  2 -1</clus>
</clustering>
</event>
<event>
 9    1  0.1464797E-005  0.1093940E+03  0.7546771E-02  0.1263317E+00
          3   -1    0    0  502    0 -0.00000000000E+00  0.00000000000E+00  0.88593363444E+02  0.88593363444E+02  0.00000000000E+00 0. -1.
         21   -1    0    0  501  502  0.00000000000E+00 -0.00000000000E+00 -0.22666443758E+03  0.22666443758E+03  0.00000000000E+00 0.  1.
         23    2    1    2    0    0 -0.28469856978E+02  0.63808411112E+02  0.10770645793E+02  0.11191840822E+03  0.86762187633E+02 0.  0.
         23    2    1    2    0    0  0.32290524906E+02 -0.25548478690E+02 -0.11325888333E+03  0.15095086169E+03  0.90902063935E+02 0.  0.
        -11    1    4    4    0    0  0.55773999083E+02  0.10173703978E+02 -0.58273602008E+02  0.81302250383E+02  0.00000000000E+00 0.  1.
         11    1    4    4    0    0 -0.23483474177E+02 -0.35722182668E+02 -0.54985281326E+02  0.69648611304E+02  0.00000000000E+00 0. -1.
        -11    1    3    3    0    0 -0.49524491545E+02  0.11685065236E+02  0.20516425172E+02  0.54864740173E+02  0.00000000000E+00 0. -1.
         11    1    3    3    0    0  0.21054634567E+02  0.52123345876E+02 -0.97457793794E+01  0.57053668048E+02  0.00000000000E+00 0.  1.
          3    1    1    2  501    0 -0.38206679283E+01 -0.38259932422E+02 -0.35582836590E+02  0.52388531112E+02  0.00000000000E+00 0. -1.
<scales pt_clust_5="13000.00000" pt_clust_6="13000.00000" pt_clust_7="13000.00000" pt_clust_8="13000.00000" pt_clust_9="38.45023"></scales>
<clustering>
<clus scale="   38.450">  2  9  1 -1</clus>
<clus scale="   86.762">  7  8 -1 -1</clus>
<clus scale="   90.902">  5  6 -1 -1</clus>
<clus scale="  105.979">  1  7  2 -1</clus>
<clus scale="   38.450">  2  5  1 -1</clus>
</clustering>
</event>
<event>
 9    1  0.1464797E-005  0.2129072E+03  0.7546771E-02  0.1139306E+00
          2   -1    0    0  502    0 -0.00000000000E+00  0.00000000000E+00  0.12130059850E+04  0.12130059850E+04  0.00000000000E+00 0. -1.
         21   -1    0    0  501  502  0.00000000000E+00 -0.00000000000E+00 -0.43041006389E+02  0.43041006389E+02  0.00000000000E+00 0. -1.
         23    2    1    2    0    0  0.19222252716E+03 -0.61801252504E+02  0.71520108639E+03  0.74868520840E+03  0.90818789669E+02 0.  0.
         23    2    1    2    0    0 -0.17046421022E+03  0.57525954038E+02  0.42433406500E+03  0.46970973234E+03  0.90556896936E+02 0.  0.
        -11    1    4    4    0    0  0.51826841861E+01  0.20635370608E+02  0.57814733864E+02  0.61605374663E+02  0.00000000000E+00 0.  1.
         11    1    4    4    0    0 -0.17564689440E+03  0.36890583430E+02  0.36651933114E+03  0.40810435768E+03  0.00000000000E+00 0. -1.
        -13    1    3    3    0    0  0.16618038616E+03 -0.15912972854E+02  0.58020999747E+03  0.60374894171E+03  0.00000000000E+00 0. -1.
         13    1    3    3    0    0  0.26042140999E+02 -0.45888279650E+02  0.13499108891E+03  0.14493626669E+03  0.00000000000E+00 0.  1.
          2    1    1    2  501    0 -0.21758316943E+02  0.42752984662E+01  0.30429827257E+02  0.37652050676E+02  0.00000000000E+00 0. -1.
<scales pt_clust_5="13000.00000" pt_clust_6="13000.00000" pt_clust_7="13000.00000" pt_clust_8="13000.00000" pt_clust_9="22.17437"></scales>
<clustering>
<clus scale="   22.174">  2  9  1 -1</clus>
<clus scale="   90.557">  5  6 -1 -1</clus>
<clus scale="   90.819">  7  8 -1 -1</clus>
<clus scale="  212.796">  2  5  1 -1</clus>
<clus scale="   22.174">  2  5  1 -1</clus>
</clustering>
</event>
<event>
 9    1  0.1464797E-005  0.3627803E+03  0.7546771E-02  0.1089538E+00
         21   -1    0    0  501  502  0.00000000000E+00  0.00000000000E+00  0.39048077719E+03  0.39048077719E+03  0.00000000000E+00 0. -1.
          1   -1    0    0  502    0 -0.00000000000E+00 -0.00000000000E+00 -0.91976924608E+03  0.91976924608E+03  0.00000000000E+00 0. -1.
         23    2    1    2    0    0  0.11849148504E+03  0.21419241309E+02 -0.81697863881E+02  0.17199046740E+03  0.91690588335E+02 0.  0.
         23    2    1    2    0    0 -0.68202752940E+02 -0.36753903496E+03 -0.63406429259E+03  0.74190074834E+03  0.92965776028E+02 0.  0.
        -13    1    3    3    0    0 -0.28407467128E+01  0.25683652155E+02 -0.31171024042E+02  0.40488919098E+02  0.00000000000E+00 0. -1.
         13    1    3    3    0    0  0.12133223176E+03 -0.42644108459E+01 -0.50526839838E+02  0.13150154831E+03  0.00000000000E+00 0.  1.
        -13    1    4    4    0    0 -0.41637912463E+02 -0.20282771041E+03 -0.43787569233E+03  0.48436341501E+03  0.00000000000E+00 0. -1.
         13    1    4    4    0    0 -0.26564840478E+02 -0.16471132455E+03 -0.19618860026E+03  0.25753733333E+03  0.00000000000E+00 0.  1.
          1    1    1    2  501    0 -0.50288732104E+02  0.34611979366E+03  0.18647368759E+03  0.39635880752E+03  0.00000000000E+00 0. -1.
<scales pt_clust_5="13000.00000" pt_clust_6="13000.00000" pt_clust_7="13000.00000" pt_clust_8="13000.00000" pt_clust_9="350.66640"></scales>
<clustering>
<clus scale="   91.691">  5  6 -1 -1</clus>
<clus scale="   92.966">  7  8 -1 -1</clus>
<clus scale="  151.348">  2  5  1 -1</clus>
<clus scale="  350.666">  1  9  2 -1</clus>
<clus scale="  350.666">  1  5  2 -1</clus>
</clustering>
</event>
<event>
 9    1  0.1464797E-005  0.1191666E+03  0.7546771E-02  0.1244772E+00
         21   -1    0    0  501  502  0.00000000000E+00  0.00000000000E+00  0.51815355336E+03  0.51815355336E+03  0.00000000000E+00 0. -1.
          2   -1    0    0  502    0 -0.00000000000E+00 -0.00000000000E+00 -0.15172607175E+03  0.15172607175E+03  0.00000000000E+00 0. -1.
         23    2    1    2    0    0  0.63894284825E+02  0.56885819883E+02 -0.10335132515E+03  0.16110291265E+03  0.89186186811E+02 0.  0.
         23    2    1    2    0    0  0.17143091750E+01 -0.51249594855E+02  0.15038071347E+03  0.18266109395E+03  0.90118013908E+02 0.  0.
        -11    1    3    3    0    0  0.99431301289E+00 -0.22130950485E+02 -0.24017630485E+02  0.32674366128E+02  0.00000000000E+00 0.  1.
         11    1    3    3    0    0  0.62899971813E+02  0.79016770368E+02 -0.79333694668E+02  0.12842854653E+03  0.00000000000E+00 0. -1.
        -11    1    4    4    0    0  0.18373012451E+02  0.18040302280E+02  0.73269407602E+02  0.77662257135E+02  0.00000000000E+00 0.  1.
         11    1    4    4    0    0 -0.16658703276E+02 -0.69289897136E+02  0.77111305864E+02  0.10499883681E+03  0.00000000000E+00 0. -1.
          2    1    1    2  501    0 -0.65608594000E+02 -0.56362250278E+01  0.31939809329E+03  0.32611561851E+03  0.00000000000E+00 0. -1.
<scales pt_clust_5="13000.00000" pt_clust_6="13000.00000" pt_clust_7="13000.00000" pt_clust_8="13000.00000" pt_clust_9="65.85024"></scales>
<clustering>
<clus scale="   65.850">  1  9  2 -1</clus>
<clus scale="   89.186">  5  6 -1 -1</clus>
<clus scale="   90.118">  7  8 -1 -1</clus>
<clus scale="  118.463">  2  5  1 -1</clus>
<clus scale="   65.850">  1  5  2 -1</clus>
</clustering>
</event>
<event>
 9    1  0.1464797E-005  0.1055189E+03  0.7546771E-02  0.1271324E+00
         21   -1    0    0  501  502  0.00000000000E+00  0.00000000000E+00  0.27517093713E+03  0.27517093713E+03  0.00000000000E+00 0. -1.
          3   -1    0    0  502    0 -0.00000000000E+00 -0.00000000000E+00 -0.12586331880E+03  0.12586331880E+03  0.00000000000E+00 0. -1.
         23    2    1    2    0    0  0.47482100716E+02  0.67035426061E+01 -0.71967087135E+02  0.12870921481E+03  0.95327398868E+02 0.  0.
         23    2    1    2    0    0 -0.37205562639E+02  0.11891954479E+02  0.73099697958E+02  0.12263458520E+03  0.90388069856E+02 0.  0.
        -13    1    3    3    0    0 -0.59621877133E+01 -0.25334401508E+02  0.80951097345E+01  0.27256382440E+02  0.00000000000E+00 0.  1.
         13    1    3    3    0    0  0.53444288429E+02  0.32037944114E+02 -0.80062196869E+02  0.10145283237E+03  0.00000000000E+00 0. -1.
        -13    1    4    4    0    0 -0.37225783471E+02 -0.33090570180E+02  0.54853877392E+02  0.74092460175E+02  0.00000000000E+00 0.  1.
         13    1    4    4    0    0  0.20220832037E-01  0.44982524659E+02  0.18245820566E+02  0.48542125022E+02  0.00000000000E+00 0. -1.
          3    1    1    2  501    0 -0.10276538077E+02 -0.18595497085E+02  0.14817500750E+03  0.14969045592E+03  0.00000000000E+00 0. -1.
<scales pt_clust_5="13000.00000" pt_clust_6="13000.00000" pt_clust_7="13000.00000" pt_clust_8="13000.00000" pt_clust_9="21.24617"></scales>
<clustering>
<clus scale="   21.246">  1  9  2 -1</clus>
<clus scale="   90.388">  7  8 -1 -1</clus>
<clus scale="   95.327">  5  6 -1 -1</clus>
<clus scale="  101.079">  1  7  2 -1</clus>
<clus scale="   21.246">  1  5  2 -1</clus>
</clustering>
</event>
<event>
 9    1  0.1464797E-005  0.1514182E+03  0.7546771E-02  0.1198745E+00
          1   -1    0    0  502    0 -0.00000000000E+00  0.00000000000E+00  0.58784437843E+03  0.58784437843E+03  0.00000000000E+00 0. -1.
         21   -1    0    0  501  502  0.00000000000E+00 -0.00000000000E+00 -0.51988349691E+02  0.51988349691E+02  0.00000000000E+00 0. -1.
         23    2    1    2    0    0 -0.54822870349E+02  0.10479454245E+03  0.29582045390E+03  0.33123835012E+03  0.90673372077E+02 0.  0.
         23    2    1    2    0    0  0.36358970235E+02 -0.12108036055E+03  0.23738724775E+03  0.28383236849E+03  0.90695532313E+02 0.  0.
        -11    1    3    3    0    0 -0.67008030889E+02  0.36136327956E+02  0.12020568553E+03  0.14228604020E+03  0.00000000000E+00 0. -1.
         11    1    3    3    0    0  0.12185160539E+02  0.68658214497E+02  0.17561476837E+03  0.18895230992E+03  0.00000000000E+00 0.  1.
        -11    1    4    4    0    0  0.56386259908E+02 -0.11988081445E+03  0.22209428394E+03  0.25860528018E+03  0.00000000000E+00 0. -1.
         11    1    4    4    0    0 -0.20027289673E+02 -0.11995461001E+01  0.15292963817E+02  0.25227088314E+02  0.00000000000E+00 0.  1.
          1    1    1    2  501    0  0.18463900114E+02  0.16285818100E+02  0.26483270913E+01  0.24762009510E+02  0.00000000000E+00 0. -1.
<scales pt_clust_5="13000.00000" pt_clust_6="13000.00000" pt_clust_7="13000.00000" pt_clust_8="13000.00000" pt_clust_9="24.61998"></scales>
<clustering>
<clus scale="   24.620">  2  9  1 -1</clus>
<clus scale="   90.673">  5  6 -1 -1</clus>
<clus scale="   90.696">  7  8 -1 -1</clus>
<clus scale="  151.405">  1  5  2 -1</clus>
<clus scale="   24.620">  2  5  1 -1</clus>
</clustering>
</event>
<event>
 9    1  0.1464797E-005  0.1899332E+03  0.7546771E-02  0.1180381E+00
         21   -1    0    0  501  502  0.00000000000E+00  0.00000000000E+00  0.12406007424E+03  0.12406007424E+03  0.00000000000E+00 0. -1.
          2   -1    0    0  502    0 -0.00000000000E+00 -0.00000000000E+00 -0.86508580176E+03  0.86508580176E+03  0.00000000000E+00 0. -1.
         23    2    1    2    0    0  0.61236959911E+02  0.36406865916E+02 -0.19906211916E+03  0.22996325614E+03  0.90454114045E+02 0.  0.
         23    2    1    2    0    0 -0.81154824684E+02 -0.18851064436E+03 -0.55913072017E+03  0.60482268179E+03  0.10517103001E+03 0.  0.
        -13    1    4    4    0    0 -0.31231558040E+02 -0.12378646193E+03 -0.20597637973E+03  0.24233193636E+03  0.00000000000E+00 0.  1.
         13    1    4    4    0    0 -0.49923266644E+02 -0.64724182434E+02 -0.35315434045E+03  0.36249074543E+03  0.00000000000E+00 0. -1.
        -13    1    3    3    0    0 -0.21130761578E+02  0.12617930942E+02 -0.76722735416E+02  0.80573565118E+02  0.00000000000E+00 0.  1.
         13    1    3    3    0    0  0.82367721489E+02  0.23788934974E+02 -0.12233938374E+03  0.14938969102E+03  0.00000000000E+00 0. -1.
          2    1    1    2  501    0  0.19917864773E+02  0.15210377844E+03  0.17167111808E+02  0.15435993807E+03  0.00000000000E+00 0. -1.
<scales pt_clust_5="13000.00000" pt_clust_6="13000.00000" pt_clust_7="13000.00000" pt_clust_8="13000.00000" pt_clust_9="158.15718"></scales>
<clustering>
<clus scale="   90.454">  7  8 -1 -1</clus>
<clus scale="  105.171">  5  6 -1 -1</clus>
<clus scale="  115.141">  2  7  1 -1</clus>
<clus scale="  158.157">  1  9  2 -1</clus>
<clus scale="  158.157">  1  5  2 -1</clus>
</clustering>
</event>
<event>
 9    1  0.1464797E-005  0.1046573E+03  0.7546771E-02  0.1272570E+00
         -3   -1    0    0    0  501 -0.00000000000E+00  0.00000000000E+00  0.39255058225E+03  0.39255058225E+03  0.00000000000E+00 0.  1.
         21   -1    0    0  501  502  0.00000000000E+00 -0.00000000000E+00 -0.57964206679E+02  0.57964206679E+02  0.00000000000E+00 0.  1.
         23    2    1    2    0    0  0.18908426064E+02 -0.10578437518E+02  0.11065227288E+03  0.14462979131E+03  0.90578248640E+02 0.  0.
         23    2    1    2    0    0 -0.37685360859E+02  0.82409967597E+02  0.11623355278E+03  0.17507310807E+03  0.94492143566E+02 0.  0.
        -11    1    4    4    0    0 -0.48520074823E+01  0.88615437795E+02  0.10956591148E+03  0.14099974025E+03  0.00000000000E+00 0.  1.
         11    1    4    4    0    0 -0.32833353377E+02 -0.62054701985E+01  0.66676413042E+01  0.34073367824E+02  0.00000000000E+00 0. -1.
        -13    1    3    3    0    0  0.15107667022E+02 -0.46752935005E+02  0.90675173780E+02  0.10313130308E+03  0.00000000000E+00 0.  1.
         13    1    3    3    0    0  0.38007590418E+01  0.36174497487E+02  0.19977099095E+02  0.41498488237E+02  0.00000000000E+00 0. -1.
         -3    1    1    2    0  502  0.18776934795E+02 -0.71831530078E+02  0.10770054991E+03  0.13081188954E+03  0.00000000000E+00 0.  1.
<scales pt_clust_5="13000.00000" pt_clust_6="13000.00000" pt_clust_7="13000.00000" pt_clust_8="13000.00000" pt_clust_9="74.24519"></scales>
<clustering>
<clus scale="   74.245">  2  9  1 -1</clus>
<clus scale="   90.578">  7  8 -1 -1</clus>
<clus scale="   94.492">  5  6 -1 -1</clus>
<clus scale="  101.138">  1  7  2 -1</clus>
<clus scale="   74.245">  2  5  1 -1</clus>
</clustering>
</event>
<event>
 9    1  0.1464797E-005  0.2855741E+03  0.7546771E-02  0.1093799E+00
          1   -1    0    0  502    0 -0.00000000000E+00  0.00000000000E+00  0.69626993259E+03  0.69626993259E+03  0.00000000000E+00 0. -1.
         21   -1    0    0  501  502  0.00000000000E+00 -0.00000000000E+00 -0.25845687713E+03  0.25845687713E+03  0.00000000000E+00 0. -1.
         23    2    1    2    0    0 -0.20608396802E+03  0.21252364116E+03  0.51961919255E+03  0.60139800617E+03  0.63549639097E+02 0.  0.
         23    2    1    2    0    0  0.13254233058E+03 -0.15214096265E+03  0.81117118295E+01  0.22241027982E+03  0.93199736003E+02 0.  0.
        -11    1    3    3    0    0 -0.12753584976E+03  0.10361668346E+03  0.33477833437E+03  0.37293208930E+03  0.00000000000E+00 0.  1.
         11    1    3    3    0    0 -0.78548118256E+02  0.10890695771E+03  0.18484085818E+03  0.22846591687E+03  0.00000000000E+00 0. -1.
        -13    1    4    4    0    0  0.12410898339E+03 -0.87668730742E+02 -0.16593640388E+02  0.15285350833E+03  0.00000000000E+00 0. -1.
         13    1    4    4    0    0  0.84333471846E+01 -0.64472231903E+02  0.24705352217E+02  0.69556771485E+02  0.00000000000E+00 0.  1.
          1    1    1    2  501    0  0.73541637443E+02 -0.60382678516E+02 -0.89917848923E+02  0.13091852374E+03  0.00000000000E+00 0. -1.
<scales pt_clust_5="13000.00000" pt_clust_6="13000.00000" pt_clust_7="13000.00000" pt_clust_8="13000.00000" pt_clust_9="95.15482"></scales>
<clustering>
<clus scale="   63.550">  5  6 -1 -1</clus>
<clus scale="   93.200">  7  8 -1 -1</clus>
<clus scale="   95.155">  2  9  1 -1</clus>
<clus scale="  277.317">  1  5  2 -1</clus>
<clus scale="   95.155">  2  5  1 -1</clus>
</clustering>
</event>
<event>
 9    1  0.1626573E-005  0.9559370E+02  0.7546771E-02  0.1289899E+00
          2   -1    0    0  502    0 -0.00000000000E+00  0.00000000000E+00  0.54669620144E+03  0.54669620144E+03  0.00000000000E+00 0. -1.
         21   -1    0    0  501  502  0.00000000000E+00 -0.00000000000E+00 -0.61467079221E+02  0.61467079221E+02  0.00000000000E+00 0. -1.
         23    2    1    2    0    0  0.27790953308E+02 -0.19318326968E+02  0.43996226495E+03  0.45075974373E+03  0.92043561120E+02 0.  0.
         23    2    1    2    0    0  0.13050846702E+02 -0.40754387660E+01  0.56813593660E+02  0.10894068493E+03  0.91942126403E+02 0.  0.
        -11    1    3    3    0    0  0.59260809332E+02 -0.21050824934E+02  0.34553779509E+03  0.35121410648E+03  0.00000000000E+00 0. -1.
         11    1    3    3    0    0 -0.31469856024E+02  0.17324979659E+01  0.94424469860E+02  0.99545637251E+02  0.00000000000E+00 0.  1.
        -11    1    4    4    0    0 -0.23992712559E+02 -0.17515534371E+02 -0.10023650204E+02  0.31351519320E+02  0.00000000000E+00 0. -1.
         11    1    4    4    0    0  0.37043559261E+02  0.13440095605E+02  0.66837243864E+02  0.77589165610E+02  0.00000000000E+00 0.  1.
          2    1    1    2  501    0 -0.40841800010E+02  0.23393765734E+02 -0.11546736389E+02  0.48462852006E+02  0.00000000000E+00 0. -1.
<scales pt_clust_5="13000.00000" pt_clust_6="13000.00000" pt_clust_7="13000.00000" pt_clust_8="13000.00000" pt_clust_9="47.06720"></scales>
<clustering>
<clus scale="   47.067">  2  9  1 -1</clus>
<clus scale="   91.942">  7  8 -1 -1</clus>
<clus scale="   92.044">  5  6 -1 -1</clus>
<clus scale="   95.496">  2  7  1 -1</clus>
<clus scale="   47.067">  2  5  1 -1</clus>
</clustering>
</event>
<event>
 9    1  0.1464797E-005  0.1018211E+03  0.7546771E-02  0.1278698E+00
         -1   -1    0    0    0  501 -0.00000000000E+00  0.00000000000E+00  0.14733900542E+03  0.14733900542E+03  0.00000000000E+00 0.  1.
         21   -1    0    0  501  502  0.00000000000E+00 -0.00000000000E+00 -0.45697500105E+03  0.45697500105E+03  0.00000000000E+00 0.  1.
         23    2    1    2    0    0  0.38569431025E+01  0.50215714480E+02  0.68877502390E+02  0.12835161595E+03  0.95882912926E+02 0.  0.
         23    2    1    2    0    0 -0.44159348727E+02  0.10995261799E+02 -0.12761850117E+02  0.10294049376E+03  0.91449092805E+02 0.  0.
        -11    1    3    3    0    0 -0.14601507278E+02 -0.24268874839E+02  0.55585231277E+01  0.28863116258E+02  0.00000000000E+00 0. -1.
         11    1    3    3    0    0  0.18458450380E+02  0.74484589320E+02  0.63318979262E+02  0.99488499694E+02  0.00000000000E+00 0.  1.
        -13    1    4    4    0    0 -0.27234343414E+02 -0.26445303477E+01  0.38515783376E+02  0.47245831255E+02  0.00000000000E+00 0.  1.
         13    1    4    4    0    0 -0.16925005313E+02  0.13639792147E+02 -0.51277633493E+02  0.55694662503E+02  0.00000000000E+00 0. -1.
         -1    1    1    2    0  502  0.40302405624E+02 -0.61210976279E+02 -0.36575164791E+03  0.37302189676E+03  0.00000000000E+00 0.  1.
<scales pt_clust_5="13000.00000" pt_clust_6="13000.00000" pt_clust_7="13000.00000" pt_clust_8="13000.00000" pt_clust_9="73.28757"></scales>
<clustering>
<clus scale="   73.288">  2  9  1 -1</clus>
<clus scale="   91.449">  7  8 -1 -1</clus>
<clus scale="   95.883">  5  6 -1 -1</clus>
<clus scale="   97.657">  2  7  1 -1</clus>
<clus scale="   73.288">  2  5  1 -1</clus>
</clustering>
</event>
<event>
 9    1  0.1464797E-005  0.1378803E+03  0.7546771E-02  0.1218531E+00
         21   -1    0    0  501  502  0.00000000000E+00  0.00000000000E+00  0.60787850824E+02  0.60787850824E+02  0.00000000000E+00 0. -1.
          1   -1    0    0  502    0 -0.00000000000E+00 -0.00000000000E+00 -0.72171858359E+03  0.72171858359E+03  0.00000000000E+00 0. -1.
         23    2    1    2    0    0 -0.82714173553E+02  0.70999100418E+02 -0.55432536884E+03  0.57323903847E+03  0.97179596177E+02 0.  0.
         23    2    1    2    0    0  0.61524431782E+02 -0.79590650461E+01 -0.38367661663E+02  0.11398132547E+03  0.87584602945E+02 0.  0.
        -11    1    3    3    0    0 -0.43367505468E+01 -0.23016320061E+02 -0.10097659180E+03  0.10365727416E+03  0.00000000000E+00 0.  1.
         11    1    3    3    0    0 -0.78377423006E+02  0.94015420478E+02 -0.45334877705E+03  0.46958176431E+03  0.00000000000E+00 0. -1.
        -13    1    4    4    0    0 -0.20749497358E+02 -0.13245430263E+02 -0.54743985205E+01  0.25218090780E+02  0.00000000000E+00 0.  1.
         13    1    4    4    0    0  0.82273929140E+02  0.52863652165E+01 -0.32893263142E+02  0.88763234695E+02  0.00000000000E+00 0. -1.
          1    1    1    2  501    0  0.21189741771E+02 -0.63040035371E+02 -0.68237702256E+02  0.95286070467E+02  0.00000000000E+00 0. -1.
<scales pt_clust_5="13000.00000" pt_clust_6="13000.00000" pt_clust_7="13000.00000" pt_clust_8="13000.00000" pt_clust_9="66.50602"></scales>
<clustering>
<clus scale="   66.506">  1  9  2 -1</clus>
<clus scale="   87.585">  7  8 -1 -1</clus>
<clus scale="   97.180">  5  6 -1 -1</clus>
<clus scale="  131.294">  1  7  2 -1</clus>
<clus scale="   66.506">  1  5  2 -1</clus>
</clustering>
</event>
<event>
 9    1  0.1464797E-005  0.2634933E+03  0.7546771E-02  0.1112491E+00
         -2   -1    0    0    0  501 -0.00000000000E+00  0.00000000000E+00  0.25552262905E+03  0.25552262905E+03  0.00000000000E+00 0.  1.
         21   -1    0    0  501  502  0.00000000000E+00 -0.00000000000E+00 -0.66297850366E+03  0.66297850366E+03  0.00000000000E+00 0.  1.
         23    2    1    2    0    0 -0.84001077879E+02  0.18138576985E+03  0.23623518923E+02  0.21925041682E+03  0.86923506816E+02 0.  0.
         23    2    1    2    0    0 -0.18547381823E+03 -0.18325250871E+03 -0.17454510726E+03  0.32718883343E+03  0.92760546884E+02 0.  0.
        -11    1    4    4    0    0 -0.62514288983E+02 -0.10671242619E+02 -0.54654648886E+02  0.83720023835E+02  0.00000000000E+00 0. -1.
         11    1    4    4    0    0 -0.12295952925E+03 -0.17258126609E+03 -0.11989045837E+03  0.24346880960E+03  0.00000000000E+00 0.  1.
        -11    1    3    3    0    0 -0.91080978826E+01  0.21110339247E+02 -0.26784539495E+02  0.35298943697E+02  0.00000000000E+00 0. -1.
         11    1    3    3    0    0 -0.74892979996E+02  0.16027543061E+03  0.50408058418E+02  0.18395147312E+03  0.00000000000E+00 0.  1.
         -2    1    1    2    0  502  0.26947489611E+03  0.18667388575E+01 -0.25653428628E+03  0.37206188247E+03  0.00000000000E+00 0.  1.
<scales pt_clust_5="13000.00000" pt_clust_6="13000.00000" pt_clust_7="13000.00000" pt_clust_8="13000.00000" pt_clust_9="246.62561"></scales>
<clustering>
<clus scale="   86.924">  7  8 -1 -1</clus>
<clus scale="   92.761">  5  6 -1 -1</clus>
<clus scale="  217.974">  1  7  2 -1</clus>
<clus scale="  246.626">  2  9  1 -1</clus>
<clus scale="  246.626">  2  5  1 -1</clus>
</clustering>
</event>
<event>
 9    1  0.1464797E-005  0.2324484E+03  0.7546771E-02  0.1126871E+00
          2   -1    0    0  502    0 -0.00000000000E+00  0.00000000000E+00  0.43817732231E+03  0.43817732231E+03  0.00000000000E+00 0. -1.
         21   -1    0    0  501  502  0.00000000000E+00 -0.00000000000E+00 -0.18729681254E+03  0.18729681254E+03  0.00000000000E+00 0. -1.
         23    2    1    2    0    0 -0.26946406218E+02  0.21076223810E+03  0.28593434788E+03  0.36778100861E+03  0.91419851114E+02 0.  0.
         23    2    1    2    0    0  0.43229703150E+02 -0.16759962023E+03 -0.19131182657E+02  0.20889058228E+03  0.11537258461E+03 0.  0.
        -11    1    4    4    0    0 -0.34676269755E+02 -0.56547815690E+02  0.17060980168E+02  0.68492161506E+02  0.00000000000E+00 0.  1.
         11    1    4    4    0    0  0.77905972905E+02 -0.11105180453E+03 -0.36192162825E+02  0.14039842077E+03  0.00000000000E+00 0. -1.
        -11    1    3    3    0    0 -0.54049317675E+02  0.10012204618E+03  0.11048368129E+03  0.15859507150E+03  0.00000000000E+00 0.  1.
         11    1    3    3    0    0  0.27102911456E+02  0.11064019193E+03  0.17545066659E+03  0.20918593711E+03  0.00000000000E+00 0. -1.
          2    1    1    2  501    0 -0.16283296931E+02 -0.43162617879E+02 -0.15922655456E+02  0.48802543970E+02  0.00000000000E+00 0. -1.
<scales pt_clust_5="13000.00000" pt_clust_6="13000.00000" pt_clust_7="13000.00000" pt_clust_8="13000.00000" pt_clust_9="46.13196"></scales>
<clustering>
<clus scale="   46.132">  2  9  1 -1</clus>
<clus scale="   91.420">  7  8 -1 -1</clus>
<clus scale="  115.373">  5  6 -1 -1</clus>
<clus scale="  221.538">  1  7  2 -1</clus>
<clus scale="   46.132">  2  5  1 -1</clus>
</clustering>
</event>
<event>
 9    1  0.1464797E-005  0.1731564E+03  0.7546771E-02  0.1200415E+00
          1   -1    0    0  502    0 -0.00000000000E+00  0.00000000000E+00  0.29410499559E+03  0.29410499559E+03  0.00000000000E+00 0. -1.
         21   -1    0    0  501  502  0.00000000000E+00 -0.00000000000E+00 -0.19967767487E+03  0.19967767487E+03  0.00000000000E+00 0. -1.
         23    2    1    2    0    0  0.50793699601E+02  0.61185170290E+02  0.12886460586E+03  0.16167396148E+03  0.56645901842E+02 0.  0.
         23    2    1    2    0    0  0.11926959125E+02 -0.17339473574E+03 -0.49760542374E+02  0.20264956553E+03  0.91557348670E+02 0.  0.
        -11    1    3    3    0    0  0.51482675430E+02  0.37358222605E+02  0.55105881277E+02  0.84159139831E+02  0.00000000000E+00 0. -1.
         11    1    3    3    0    0 -0.68897582904E+00  0.23826947685E+02  0.73758724585E+02  0.77514821654E+02  0.00000000000E+00 0.  1.
        -13    1    4    4    0    0  0.89958874906E+01 -0.53683074938E+02 -0.61735520187E+02  0.82304756723E+02  0.00000000000E+00 0.  1.
         13    1    4    4    0    0  0.29310716348E+01 -0.11971166080E+03  0.11974977813E+02  0.12034480880E+03  0.00000000000E+00 0. -1.
          1    1    1    2  501    0 -0.62720658727E+02  0.11220956545E+03  0.15323257233E+02  0.12945914345E+03  0.00000000000E+00 0. -1.
<scales pt_clust_5="13000.00000" pt_clust_6="13000.00000" pt_clust_7="13000.00000" pt_clust_8="13000.00000" pt_clust_9="146.97073"></scales>
<clustering>
<clus scale="   56.646">  5  6 -1 -1</clus>
<clus scale="   91.557">  7  8 -1 -1</clus>
<clus scale="   97.634">  1  5  2 -1</clus>
<clus scale="  146.971">  2  9  1 -1</clus>
<clus scale="  146.971">  2  5  1 -1</clus>
</clustering>
</event>
<event>
 9    1  0.1464797E-005  0.3222319E+03  0.7546771E-02  0.1074634E+00
         -4   -1    0    0    0  501 -0.00000000000E+00  0.00000000000E+00  0.10190166174E+04  0.10190166174E+04  0.00000000000E+00 0.  1.
         21   -1    0    0  501  502  0.00000000000E+00 -0.00000000000E+00 -0.14599411598E+03  0.14599411598E+03  0.00000000000E+00 0.  1.
         23    2    1    2    0    0  0.18985356342E+03 -0.30327147887E+03  0.55949662227E+03  0.67036941985E+03  0.91327560454E+02 0.  0.
         23    2    1    2    0    0 -0.15919096370E+03  0.19383128817E+03  0.19561156138E+03  0.33086971436E+03  0.91096398067E+02 0.  0.
        -11    1    4    4    0    0 -0.45025336637E+02  0.10456478582E+02  0.13006398109E+02  0.48018593017E+02  0.00000000000E+00 0.  1.
         11    1    4    4    0    0 -0.11416562706E+03  0.18337480959E+03  0.18260516327E+03  0.28285112135E+03  0.00000000000E+00 0. -1.
        -11    1    3    3    0    0  0.87779779289E+01 -0.28047225855E+02  0.10495375641E+03  0.10899078291E+03  0.00000000000E+00 0. -1.
         11    1    3    3    0    0  0.18107558549E+03 -0.27522425301E+03  0.45454286586E+03  0.56137863694E+03  0.00000000000E+00 0.  1.
         -4    1    1    2    0  502 -0.30662599724E+02  0.10944019069E+03  0.11791431782E+03  0.16377159921E+03  0.00000000000E+00 0.  1.
<scales pt_clust_5="13000.00000" pt_clust_6="13000.00000" pt_clust_7="13000.00000" pt_clust_8="13000.00000" pt_clust_9="113.65452"></scales>
<clustering>
<clus scale="   91.096">  5  6 -1 -1</clus>
<clus scale="   91.328">  7  8 -1 -1</clus>
<clus scale="  113.655">  2  9  1 -1</clus>
<clus scale="  322.166">  2  5  1 -1</clus>
<clus scale="  113.655">  2  5  1 -1</clus>
</clustering>
</event>
<event>
 9    1  0.1464797E-005  0.9411296E+02  0.7546771E-02  0.1293278E+00
          3   -1    0    0  502    0 -0.00000000000E+00  0.00000000000E+00  0.13579445644E+03  0.13579445644E+03  0.00000000000E+00 0. -1.
         21   -1    0    0  501  502  0.00000000000E+00 -0.00000000000E+00 -0.14896322026E+03  0.14896322026E+03  0.00000000000E+00 0. -1.
         23    2    1    2    0    0  0.80316945065E+01 -0.95397035885E+01  0.56478851199E+02  0.10839969347E+03  0.91679435262E+02 0.  0.
         23    2    1    2    0    0 -0.48407716946E+02 -0.36233871046E+01 -0.11321722366E+02  0.10420952587E+03  0.91515069202E+02 0.  0.
        -13    1    4    4    0    0 -0.27003752042E+02 -0.39226624412E+02 -0.32426313920E+02  0.57614204164E+02  0.00000000000E+00 0. -1.
         13    1    4    4    0    0 -0.21403964905E+02  0.35603237307E+02  0.21104591553E+02  0.46595321708E+02  0.00000000000E+00 0.  1.
        -13    1    3    3    0    0 -0.12234513630E+02 -0.43364464594E+02  0.77560280118E+01  0.45719974670E+02  0.00000000000E+00 0. -1.
         13    1    3    3    0    0  0.20266208136E+02  0.33824761005E+02  0.48722823187E+02  0.62679718798E+02  0.00000000000E+00 0.  1.
          3    1    1    2  501    0  0.40376022440E+02  0.13163090693E+02 -0.58325892652E+02  0.72148457352E+02  0.00000000000E+00 0. -1.
<scales pt_clust_5="13000.00000" pt_clust_6="13000.00000" pt_clust_7="13000.00000" pt_clust_8="13000.00000" pt_clust_9="42.46752"></scales>
<clustering>
<clus scale="   42.468">  2  9  1 -1</clus>
<clus scale="   91.515">  5  6 -1 -1</clus>
<clus scale="   91.679">  7  8 -1 -1</clus>
<clus scale="   93.953">  2  5  1 -1</clus>
<clus scale="   42.468">  2  5  1 -1</clus>
</clustering>
</event>
<event>
 9    1  0.1464797E-005  0.1114019E+03  0.7546771E-02  0.1258049E+00
         -1   -1    0    0    0  501 -0.00000000000E+00  0.00000000000E+00  0.16767152380E+03  0.16767152380E+03  0.00000000000E+00 0.  1.
         21   -1    0    0  501  502  0.00000000000E+00 -0.00000000000E+00 -0.97459322539E+02  0.97459322539E+02  0.00000000000E+00 0.  1.
         23    2    1    2    0    0 -0.51729706775E+02 -0.48887945154E+00  0.26884100084E+02  0.10778132377E+03  0.90652398481E+02 0.  0.
         23    2    1    2    0    0  0.78476773855E+02 -0.13977371743E+02  0.33252931544E+02  0.12531536792E+03  0.90797648785E+02 0.  0.
        -11    1    3    3    0    0 -0.77457915809E+02 -0.69492200864E+01  0.21859023341E+02  0.80782654591E+02  0.00000000000E+00 0. -1.
         11    1    3    3    0    0  0.25728209034E+02  0.64603406349E+01  0.50250767432E+01  0.26998669180E+02  0.00000000000E+00 0.  1.
        -13    1    4    4    0    0  0.27953540845E+01  0.22413487271E+02  0.34610067550E+02  0.41328382401E+02  0.00000000000E+00 0. -1.
         13    1    4    4    0    0  0.75681419771E+02 -0.36390859014E+02 -0.13571360057E+01  0.83986985518E+02  0.00000000000E+00 0.  1.
         -1    1    1    2    0  502 -0.26747067080E+02  0.14466251195E+02  0.10075169635E+02  0.32034154651E+02  0.00000000000E+00 0.  1.
<scales pt_clust_5="13000.00000" pt_clust_6="13000.00000" pt_clust_7="13000.00000" pt_clust_8="13000.00000" pt_clust_9="30.40853"></scales>
<clustering>
<clus scale="   30.409">  2  9  1 -1</clus>
<clus scale="   90.652">  5  6 -1 -1</clus>
<clus scale="   90.798">  7  8 -1 -1</clus>
<clus scale="  111.284">  1  5  2 -1</clus>
<clus scale="   30.409">  2  5  1 -1</clus>
</clustering>
</event>
<event>
 9    1  0.1464797E-005  0.1126353E+03  0.7546771E-02  0.1258286E+00
         21   -1    0    0  501  502  0.00000000000E+00  0.00000000000E+00  0.11573374277E+03  0.11573374277E+03  0.00000000000E+00 0. -1.
          2   -1    0    0  502    0 -0.00000000000E+00 -0.00000000000E+00 -0.58804362499E+03  0.58804362499E+03  0.00000000000E+00 0. -1.
         23    2    1    2    0    0 -0.63028196846E+02 -0.34663385784E+02 -0.28236668695E+03  0.30522522203E+03  0.90870162051E+02 0.  0.
         23    2    1    2    0    0  0.45164951291E+02 -0.76546376214E+02 -0.24253965722E+03  0.27424166944E+03  0.92107477418E+02 0.  0.
        -11    1    3    3    0    0 -0.25778278596E+02 -0.48522570040E+02 -0.24354718064E+03  0.24966815706E+03  0.00000000000E+00 0. -1.
         11    1    3    3    0    0 -0.37249918249E+02  0.13859184256E+02 -0.38819506305E+02  0.55557064965E+02  0.00000000000E+00 0.  1.
        -13    1    4    4    0    0  0.50292985937E+02 -0.72414291007E+01 -0.58321155352E+02  0.77351017391E+02  0.00000000000E+00 0.  1.
         13    1    4    4    0    0 -0.51280346460E+01 -0.69304947114E+02 -0.18421850187E+03  0.19689065205E+03  0.00000000000E+00 0. -1.
          2    1    1    2  501    0  0.17863245555E+02  0.11120976200E+03  0.52596461957E+02  0.12431047629E+03  0.00000000000E+00 0. -1.
<scales pt_clust_5="13000.00000" pt_clust_6="13000.00000" pt_clust_7="13000.00000" pt_clust_8="13000.00000" pt_clust_9="112.63528"></scales>
<clustering>
<clus scale="   90.870">  5  6 -1 -1</clus>
<clus scale="   92.107">  7  8 -1 -1</clus>
<clus scale="  112.635">  1  9  2 -1</clus>
<clus scale="  107.167">  2  5  1 -1</clus>
<clus scale="  112.635">  1  5  2 -1</clus>
</clustering>
</event>
<event>
 9    1  0.1464797E-005  0.1091006E+03  0.7546771E-02  0.1263093E+00
          2   -1    0    0  502    0 -0.00000000000E+00  0.00000000000E+00  0.96146953620E+03  0.96146953620E+03  0.00000000000E+00 0. -1.
         21   -1    0    0  501  502  0.00000000000E+00 -0.00000000000E+00 -0.32510052388E+02  0.32510052388E+02  0.00000000000E+00 0. -1.
         23    2    1    2    0    0  0.27657023247E+02  0.15760414898E+02  0.40468195880E+03  0.41599664177E+03  0.90952826105E+02 0.  0.
         23    2    1    2    0    0 -0.87339718306E+02 -0.47123946175E+02  0.47599270115E+03  0.49505454758E+03  0.93064820641E+02 0.  0.
        -11    1    4    4    0    0 -0.34069830759E+02 -0.69857926045E+02  0.25353937491E+03  0.26518502565E+03  0.00000000000E+00 0. -1.
         11    1    4    4    0    0 -0.53269887547E+02  0.22733979870E+02  0.22245332623E+03  0.22986952193E+03  0.00000000000E+00 0.  1.
        -11    1    3    3    0    0 -0.88300726276E+01  0.47302753536E+02  0.20533432739E+03  0.21089738424E+03  0.00000000000E+00 0. -1.
         11    1    3    3    0    0  0.36487095874E+02 -0.31542338638E+02  0.19934763141E+03  0.20509925754E+03  0.00000000000E+00 0.  1.
          2    1    1    2  501    0  0.59682695059E+02  0.31363531277E+02  0.48284823868E+02  0.82928399235E+02  0.00000000000E+00 0. -1.
<scales pt_clust_5="13000.00000" pt_clust_6="13000.00000" pt_clust_7="13000.00000" pt_clust_8="13000.00000" pt_clust_9="67.42177"></scales>
<clustering>
<clus scale="   67.422">  2  9  1 -1</clus>
<clus scale="   90.953">  7  8 -1 -1</clus>
<clus scale="   93.065">  5  6 -1 -1</clus>
<clus scale="  107.305">  1  7  2 -1</clus>
<clus scale="   67.422">  2  5  1 -1</clus>
</clustering>
</event>
<event>
 9    1  0.1464797E-005  0.9848512E+02  0.7546771E-02  0.1284718E+00
         21   -1    0    0  501  502  0.00000000000E+00  0.00000000000E+00  0.51794452393E+03  0.51794452393E+03  0.00000000000E+00 0. -1.
          4   -1    0    0  502    0 -0.00000000000E+00 -0.00000000000E+00 -0.53602772364E+02  0.53602772364E+02  0.00000000000E+00 0. -1.
         23    2    1    2    0    0 -0.97069927976E+01 -0.20531752424E+02  0.13641735861E+02  0.98182489012E+02  0.94540603047E+02 0.  0.
         23    2    1    2    0    0  0.10767959284E+02  0.53484830776E+02  0.28642316616E+03  0.30581208627E+03  0.92229203209E+02 0.  0.
        -11    1    3    3    0    0 -0.32927148546E+02 -0.40108796147E+02 -0.17420672384E+02  0.54739313715E+02  0.00000000000E+00 0.  1.
         11    1    3    3    0    0  0.23220155748E+02  0.19577043723E+02  0.31062408245E+02  0.43443175297E+02  0.00000000000E+00 0. -1.
        -11    1    4    4    0    0  0.32420170317E+02  0.34103655787E+02  0.26639636529E+03  0.27052014753E+03  0.00000000000E+00 0. -1.
         11    1    4    4    0    0 -0.21652211033E+02  0.19381174989E+02  0.20026800867E+02  0.35291938733E+02  0.00000000000E+00 0.  1.
          4    1    1    2  501    0 -0.10609664863E+01 -0.32953078352E+02  0.16427684955E+03  0.16755272102E+03  0.00000000000E+00 0. -1.
<scales pt_clust_5="13000.00000" pt_clust_6="13000.00000" pt_clust_7="13000.00000" pt_clust_8="13000.00000" pt_clust_9="32.97015"></scales>
<clustering>
<clus scale="   32.970">  1  9  2 -1</clus>
<clus scale="   92.229">  7  8 -1 -1</clus>
<clus scale="   94.541">  5  6 -1 -1</clus>
<clus scale="   96.268">  1  7  2 -1</clus>
<clus scale="   32.970">  1  5  2 -1</clus>
</clustering>
</event>
<event>
 9    1  0.1464797E-005  0.1018698E+03  0.7546771E-02  0.1277882E+00
         21   -1    0    0  501  502  0.00000000000E+00  0.00000000000E+00  0.34258009758E+03  0.34258009758E+03  0.00000000000E+00 0. -1.
          3   -1    0    0  502    0 -0.00000000000E+00 -0.00000000000E+00 -0.10009072789E+03  0.10009072789E+03  0.00000000000E+00 0. -1.
         23    2    1    2    0    0  0.62139124286E+02 -0.17043415137E+02 -0.81298757199E+01  0.11450201066E+03  0.94301997856E+02 0.  0.
         23    2    1    2    0    0 -0.67794866858E+01  0.95544507987E+01  0.24429674197E+02  0.95182771903E+02  0.91245285446E+02 0.  0.
        -13    1    4    4    0    0  0.19896801604E+01 -0.38448878241E+02  0.25834519031E+02  0.46364829760E+02  0.00000000000E+00 0.  1.
         13    1    4    4    0    0 -0.87691668462E+01  0.48003329040E+02 -0.14048448338E+01  0.48817942143E+02  0.00000000000E+00 0. -1.
        -13    1    3    3    0    0 -0.23585401114E+02  0.72966724480E+01 -0.57904324631E+01  0.25358266554E+02  0.00000000000E+00 0.  1.
         13    1    3    3    0    0  0.85724525400E+02 -0.24340087585E+02 -0.23394432568E+01  0.89143744107E+02  0.00000000000E+00 0. -1.
          3    1    1    2  501    0 -0.55359637601E+02  0.74889643387E+01  0.22618957121E+03  0.23298604290E+03  0.00000000000E+00 0. -1.
<scales pt_clust_5="13000.00000" pt_clust_6="13000.00000" pt_clust_7="13000.00000" pt_clust_8="13000.00000" pt_clust_9="55.86389"></scales>
<clustering>
<clus scale="   55.864">  1  9  2 -1</clus>
<clus scale="   91.245">  5  6 -1 -1</clus>
<clus scale="   94.302">  7  8 -1 -1</clus>
<clus scale="   99.047">  1  5  2 -1</clus>
<clus scale="   55.864">  1  5  2 -1</clus>
</clustering>
</event>
<event>
 9    1  0.1464797E-005  0.9831144E+02  0.7546771E-02  0.1284085E+00
         21   -1    0    0  501  502  0.00000000000E+00  0.00000000000E+00  0.15936406105E+03  0.15936406105E+03  0.00000000000E+00 0.  1.
          1   -1    0    0  502    0 -0.00000000000E+00 -0.00000000000E+00 -0.13293423119E+03  0.13293423119E+03  0.00000000000E+00 0. -1.
         23    2    1    2    0    0 -0.72581328403E+01  0.29664554291E+02 -0.70796981935E+02  0.11942995179E+03  0.91206548337E+02 0.  0.
         23    2    1    2    0    0  0.67354862894E+01 -0.59209870663E+02  0.56166692423E+02  0.12228047351E+03  0.90811019737E+02 0.  0.
        -13    1    3    3    0    0 -0.24206550080E+02 -0.24758134221E+02 -0.98884609596E+01  0.36009775576E+02  0.00000000000E+00 0.  1.
         13    1    3    3    0    0  0.16948417240E+02  0.54422688513E+02 -0.60908520975E+02  0.83420176212E+02  0.00000000000E+00 0. -1.
        -13    1    4    4    0    0  0.10343951705E+02 -0.79531385204E+02  0.61378895368E+02  0.10099310554E+03  0.00000000000E+00 0.  1.
         13    1    4    4    0    0 -0.36084654154E+01  0.20321514541E+02 -0.52122029447E+01  0.21287367978E+02  0.00000000000E+00 0. -1.
          1    1    1    2  501    0  0.52264655085E+00  0.29545316372E+02  0.41060119364E+02  0.50587866936E+02  0.00000000000E+00 0. -1.
<scales pt_clust_5="13000.00000" pt_clust_6="13000.00000" pt_clust_7="13000.00000" pt_clust_8="13000.00000" pt_clust_9="29.54994"></scales>
<clustering>
<clus scale="   29.550">  1  9  2 -1</clus>
<clus scale="   90.811">  7  8 -1 -1</clus>
<clus scale="   91.207">  5  6 -1 -1</clus>
<clus scale="   97.945">  1  7  2 -1</clus>
<clus scale="   29.550">  1  5  2 -1</clus>
</clustering>
</event>
<event>
 9    1  0.1464797E-005  0.9419914E+02  0.7546771E-02  0.1293998E+00
         21   -1    0    0  501  502  0.00000000000E+00  0.00000000000E+00  0.35554298667E+03  0.35554298667E+03  0.00000000000E+00 0.  1.
          2   -1    0    0  502    0 -0.00000000000E+00 -0.00000000000E+00 -0.46007068443E+02  0.46007068443E+02  0.00000000000E+00 0. -1.
         23    2    1    2    0    0  0.30235337200E+02 -0.10959247867E+02  0.71078516891E+02  0.11903963341E+03  0.89911056218E+02 0.  0.
         23    2    1    2    0    0  0.19580827676E+01 -0.92592104871E+01  0.22329766767E+03  0.24158341506E+03  0.91712218265E+02 0.  0.
        -11    1    4    4    0    0  0.97366523100E+01  0.30924661285E+02  0.30581119439E+02  0.44568396201E+02  0.00000000000E+00 0. -1.
         11    1    4    4    0    0 -0.77785695423E+01 -0.40183871772E+02  0.19271654823E+03  0.19701501886E+03  0.00000000000E+00 0.  1.
        -11    1    3    3    0    0  0.59551836097E+02 -0.93496282104E+01  0.65746277314E+02  0.89198709132E+02  0.00000000000E+00 0.  1.
         11    1    3    3    0    0 -0.29316498897E+02 -0.16096196567E+01  0.53322395770E+01  0.29840924281E+02  0.00000000000E+00 0. -1.
          2    1    1    2  501    0 -0.32193419967E+02  0.20218458354E+02  0.15159733665E+02  0.40927006636E+02  0.00000000000E+00 0. -1.
<scales pt_clust_5="13000.00000" pt_clust_6="13000.00000" pt_clust_7="13000.00000" pt_clust_8="13000.00000" pt_clust_9="38.01584"></scales>
<clustering>
<clus scale="   38.016">  1  9  2 -1</clus>
<clus scale="   89.911">  7  8 -1 -1</clus>
<clus scale="   91.712">  5  6 -1 -1</clus>
<clus scale="   92.446">  2  7  1 -1</clus>
<clus scale="   38.016">  1  5  2 -1</clus>
</clustering>
</event>
<event>
 9    1  0.1464797E-005  0.2220952E+03  0.7546771E-02  0.1132432E+00
          2   -1    0    0  502    0 -0.00000000000E+00  0.00000000000E+00  0.11529172518E+04  0.11529172518E+04  0.00000000000E+00 0. -1.
         21   -1    0    0  501  502  0.00000000000E+00 -0.00000000000E+00 -0.29236163913E+03  0.29236163913E+03  0.00000000000E+00 0. -1.
         23    2    1    2    0    0 -0.18218596122E+03 -0.44252102649E+02  0.55778277290E+03  0.59548655709E+03  0.91283322046E+02 0.  0.
         23    2    1    2    0    0  0.20477467309E+03  0.93033600379E+02  0.54778451145E+03  0.59895253695E+03  0.89935271140E+02 0.  0.
        -11    1    4    4    0    0  0.49099944630E+02 -0.12509084864E+02  0.79076889693E+02  0.93917177610E+02  0.00000000000E+00 0. -1.
         11    1    4    4    0    0  0.15567472846E+03  0.10554268524E+03  0.46870762176E+03  0.50503535934E+03  0.00000000000E+00 0.  1.
        -11    1    3    3    0    0 -0.13073773849E+03  0.30250848923E+01  0.27972073370E+03  0.30878017467E+03  0.00000000000E+00 0.  1.
         11    1    3    3    0    0 -0.51448222736E+02 -0.47277187541E+02  0.27806203919E+03  0.28670638243E+03  0.00000000000E+00 0. -1.
          2    1    1    2  501    0 -0.22588711861E+02 -0.48781497730E+02 -0.24501167169E+03  0.25083979686E+03  0.00000000000E+00 0. -1.
<scales pt_clust_5="13000.00000" pt_clust_6="13000.00000" pt_clust_7="13000.00000" pt_clust_8="13000.00000" pt_clust_9="53.75765"></scales>
<clustering>
<clus scale="   53.758">  2  9  1 -1</clus>
<clus scale="   89.935">  5  6 -1 -1</clus>
<clus scale="   91.283">  7  8 -1 -1</clus>
<clus scale="  221.545">  2  5  1 -1</clus>
<clus scale="   53.758">  2  5  1 -1</clus>
</clustering>
</event>
<event>
 9    1  0.1464797E-005  0.2180968E+03  0.7546771E-02  0.1135328E+00
         21   -1    0    0  501  502  0.00000000000E+00  0.00000000000E+00  0.59452333818E+02  0.59452333818E+02  0.00000000000E+00 0. -1.
          1   -1    0    0  502    0 -0.00000000000E+00 -0.00000000000E+00 -0.14326375457E+04  0.14326375457E+04  0.00000000000E+00 0. -1.
         23    2    1    2    0    0  0.93716228504E+02  0.20146786244E+03 -0.80777177718E+03  0.84275094507E+03  0.91443317615E+02 0.  0.
         23    2    1    2    0    0 -0.13566288501E+03 -0.11739206801E+03 -0.48675506229E+03  0.52680159011E+03  0.91673925868E+02 0.  0.
        -11    1    3    3    0    0  0.88419680605E+01  0.58146411920E+02 -0.10344301100E+03  0.11899429458E+03  0.00000000000E+00 0.  1.
         11    1    3    3    0    0  0.84874260443E+02  0.14332145052E+03 -0.70432876618E+03  0.72375665049E+03  0.00000000000E+00 0. -1.
        -13    1    4    4    0    0 -0.58712292683E+02 -0.24703850436E+02 -0.28315591935E+03  0.29023212814E+03  0.00000000000E+00 0.  1.
         13    1    4    4    0    0 -0.76950592328E+02 -0.92688217574E+02 -0.20359914293E+03  0.23656946197E+03  0.00000000000E+00 0. -1.
          1    1    1    2  501    0  0.41946656507E+02 -0.84075794426E+02 -0.78658372376E+02  0.12253734429E+03  0.00000000000E+00 0. -1.
<scales pt_clust_5="13000.00000" pt_clust_6="13000.00000" pt_clust_7="13000.00000" pt_clust_8="13000.00000" pt_clust_9="93.95883"></scales>
<clustering>
<clus scale="   91.443">  5  6 -1 -1</clus>
<clus scale="   91.674">  7  8 -1 -1</clus>
<clus scale="   93.959">  1  9  2 -1</clus>
<clus scale="  218.000">  2  5  1 -1</clus>
<clus scale="   93.959">  1  5  2 -1</clus>
</clustering>
</event>
<event>
 9    1  0.1464797E-005  0.1080669E+03  0.7546771E-02  0.1264347E+00
          1   -1    0    0  502    0 -0.00000000000E+00  0.00000000000E+00  0.30092869261E+03  0.30092869261E+03  0.00000000000E+00 0. -1.
         21   -1    0    0  501  502  0.00000000000E+00 -0.00000000000E+00 -0.67681026405E+02  0.67681026405E+02  0.00000000000E+00 0.  1.
         23    2    1    2    0    0 -0.39751763309E+02 -0.57602217745E+02  0.15530859918E+03  0.19286531820E+03  0.90432581584E+02 0.  0.
         23    2    1    2    0    0 -0.12808355170E+02  0.51496887302E+02  0.48967214612E+02  0.11541854112E+03  0.90042590835E+02 0.  0.
        -11    1    4    4    0    0  0.37080288914E+02  0.32567067870E+02  0.12888317985E+02  0.51006572871E+02  0.00000000000E+00 0. -1.
         11    1    4    4    0    0 -0.49888644084E+02  0.18929819432E+02  0.36078896627E+02  0.64411968252E+02  0.00000000000E+00 0.  1.
        -13    1    3    3    0    0 -0.36814049999E+02 -0.52120503329E+01  0.12883482947E+03  0.13409270312E+03  0.00000000000E+00 0.  1.
         13    1    3    3    0    0 -0.29377133102E+01 -0.52390167413E+02  0.26473769708E+02  0.58772615082E+02  0.00000000000E+00 0. -1.
          1    1    1    2  501    0  0.52560118479E+02  0.61053304433E+01  0.28971852411E+02  0.60325859682E+02  0.00000000000E+00 0. -1.
<scales pt_clust_5="13000.00000" pt_clust_6="13000.00000" pt_clust_7="13000.00000" pt_clust_8="13000.00000" pt_clust_9="52.91352"></scales>
<clustering>
<clus scale="   52.914">  2  9  1 -1</clus>
<clus scale="   90.043">  5  6 -1 -1</clus>
<clus scale="   90.433">  7  8 -1 -1</clus>
<clus scale="  107.741">  2  5  1 -1</clus>
<clus scale="   52.914">  2  5  1 -1</clus>
</clustering>
</event>
<event>
 9    1  0.1464797E-005  0.1648153E+03  0.7546771E-02  0.1183684E+00
         -3   -1    0    0    0  501 -0.00000000000E+00  0.00000000000E+00  0.24523340845E+03  0.24523340845E+03  0.00000000000E+00 0.  1.
         21   -1    0    0  501  502  0.00000000000E+00 -0.00000000000E+00 -0.21525861115E+03  0.21525861115E+03  0.00000000000E+00 0.  1.
         23    2    1    2    0    0 -0.17647923736E+01  0.14135502986E+03  0.88179459116E+02  0.19070420683E+03  0.92779946822E+02 0.  0.
         23    2    1    2    0    0  0.87878770482E+02 -0.11029581397E+03 -0.53335704276E+02  0.17811448588E+03  0.94827358115E+02 0.  0.
        -11    1    4    4    0    0  0.84237338615E+02 -0.49194030611E+02 -0.96009711331E+00  0.97554618810E+02  0.00000000000E+00 0.  1.
         11    1    4    4    0    0  0.36414318667E+01 -0.61101783364E+02 -0.52375607163E+02  0.80559867067E+02  0.00000000000E+00 0. -1.
        -13    1    3    3    0    0 -0.39876810005E+01  0.62756376182E+02  0.92619058695E+02  0.11194889184E+03  0.00000000000E+00 0.  1.
         13    1    3    3    0    0  0.22228886269E+01  0.78598653676E+02 -0.44395995787E+01  0.78755314983E+02  0.00000000000E+00 0. -1.
         -3    1    1    2    0  502 -0.86113978108E+02 -0.31059215885E+02 -0.48689575470E+01  0.91673326898E+02  0.00000000000E+00 0.  1.
<scales pt_clust_5="13000.00000" pt_clust_6="13000.00000" pt_clust_7="13000.00000" pt_clust_8="13000.00000" pt_clust_9="91.54394"></scales>
<clustering>
<clus scale="   91.544">  2  9  1 -1</clus>
<clus scale="   92.780">  7  8 -1 -1</clus>
<clus scale="   94.827">  5  6 -1 -1</clus>
<clus scale="  163.646">  1  7  2 -1</clus>
<clus scale="   91.544">  2  5  1 -1</clus>
</clustering>
</event>
<event>
 9    1  0.1464797E-005  0.1358772E+03  0.7546771E-02  0.1219239E+00
         -1   -1    0    0    0  501 -0.00000000000E+00  0.00000000000E+00  0.82081482407E+02  0.82081482407E+02  0.00000000000E+00 0.  1.
         21   -1    0    0  501  502  0.00000000000E+00 -0.00000000000E+00 -0.59224972871E+03  0.59224972871E+03  0.00000000000E+00 0. -1.
         23    2    1    2    0    0  0.97217132364E+02 -0.28573149134E+02 -0.15393028364E+03  0.20607041133E+03  0.92211097634E+02 0.  0.
         23    2    1    2    0    0 -0.86496635549E+02 -0.10724179928E+03 -0.15570981688E+03  0.22583108520E+03  0.88157021815E+02 0.  0.
        -11    1    3    3    0    0  0.96401909464E+02 -0.47583963315E+01 -0.71097659248E+02  0.11987847027E+03  0.00000000000E+00 0.  1.
         11    1    3    3    0    0  0.81522290041E+00 -0.23814752803E+02 -0.82832624396E+02  0.86191941060E+02  0.00000000000E+00 0. -1.
        -13    1    4    4    0    0 -0.53674480586E+02 -0.11750000887E+03 -0.12287546626E+03  0.17828511480E+03  0.00000000000E+00 0.  1.
         13    1    4    4    0    0 -0.32822154963E+02  0.10258209591E+02 -0.32834350618E+02  0.47545970397E+02  0.00000000000E+00 0. -1.
         -1    1    1    2    0  502 -0.10720496815E+02  0.13581494842E+03 -0.20052814578E+03  0.24242971459E+03  0.00000000000E+00 0.  1.
<scales pt_clust_5="13000.00000" pt_clust_6="13000.00000" pt_clust_7="13000.00000" pt_clust_8="13000.00000" pt_clust_9="136.23740"></scales>
<clustering>
<clus scale="   88.157">  7  8 -1 -1</clus>
<clus scale="   92.211">  5  6 -1 -1</clus>
<clus scale="  136.237">  2  9  1 -1</clus>
<clus scale="  136.237">  2  7  1 -1</clus>
<clus scale="  135.877">  2  5  1 -1</clus>
</clustering>
</event>
<event>
 9    1  0.1464797E-005  0.9660040E+02  0.7546771E-02  0.1287745E+00
         21   -1    0    0  501  502  0.00000000000E+00  0.00000000000E+00  0.57853888830E+02  0.57853888830E+02  0.00000000000E+00 0.  1.
          2   -1    0    0  502    0 -0.00000000000E+00 -0.00000000000E+00 -0.30198241555E+03  0.30198241555E+03  0.00000000000E+00 0. -1.
         23    2    1    2    0    0  0.30562658437E+01 -0.33741648442E+02 -0.13737857592E+03  0.16875980809E+03  0.91973692456E+02 0.  0.
         23    2    1    2    0    0 -0.18106744609E+02  0.19642408369E+02 -0.12895264680E+03  0.16077360548E+03  0.92226290696E+02 0.  0.
        -11    1    3    3    0    0  0.10670701911E+02  0.27602087945E+02 -0.76395261235E+02  0.81926644490E+02  0.00000000000E+00 0.  1.
         11    1    3    3    0    0 -0.76144360675E+01 -0.61343736387E+02 -0.60983314680E+02  0.86833163595E+02  0.00000000000E+00 0. -1.
        -11    1    4    4    0    0 -0.55038080418E+02  0.12260189948E+02 -0.60909362386E+02  0.83002728750E+02  0.00000000000E+00 0. -1.
         11    1    4    4    0    0  0.36931335810E+02  0.73822184209E+01 -0.68043284415E+02  0.77770876731E+02  0.00000000000E+00 0.  1.
          2    1    1    2  501    0  0.15050478765E+02  0.14099240073E+02  0.22202696001E+02  0.30302890809E+02  0.00000000000E+00 0. -1.
<scales pt_clust_5="13000.00000" pt_clust_6="13000.00000" pt_clust_7="13000.00000" pt_clust_8="13000.00000" pt_clust_9="20.62294"></scales>
<clustering>
<clus scale="   20.623">  1  9  2 -1</clus>
<clus scale="   91.974">  5  6 -1 -1</clus>
<clus scale="   92.226">  7  8 -1 -1</clus>
<clus scale="   96.359">  2  5  1 -1</clus>
<clus scale="   20.623">  1  5  2 -1</clus>
</clustering>
</event>
<event>
 9    1  0.1464797E-005  0.9275475E+02  0.7546771E-02  0.1296463E+00
         21   -1    0    0  501  502  0.00000000000E+00  0.00000000000E+00  0.16646162586E+03  0.16646162586E+03  0.00000000000E+00 0.  1.
          1   -1    0    0  502    0 -0.00000000000E+00 -0.00000000000E+00 -0.25738942781E+03  0.25738942781E+03  0.00000000000E+00 0. -1.
         23    2    1    2    0    0 -0.18480329522E+02 -0.79620343077E+01 -0.22373886941E+03  0.24226958112E+03  0.90722387988E+02 0.  0.
         23    2    1    2    0    0 -0.41005146490E+01  0.21943437162E+01  0.70932752982E+02  0.11545971683E+03  0.90982753311E+02 0.  0.
        -11    1    4    4    0    0 -0.31557061727E+02 -0.33509629906E+02  0.37365770337E+02  0.59286965128E+02  0.00000000000E+00 0.  1.
         11    1    4    4    0    0  0.27456547078E+02  0.35703973622E+02  0.33566982645E+02  0.56172751701E+02  0.00000000000E+00 0. -1.
        -11    1    3    3    0    0 -0.41258505843E+02 -0.21619497836E+02 -0.20381045562E+03  0.20906546537E+03  0.00000000000E+00 0.  1.
         11    1    3    3    0    0  0.22778176322E+02  0.13657463529E+02 -0.19928413793E+02  0.33204115752E+02  0.00000000000E+00 0. -1.
          1    1    1    2  501    0  0.22580844170E+02  0.57676905916E+01  0.61878314470E+02  0.66121755723E+02  0.00000000000E+00 0. -1.
<scales pt_clust_5="13000.00000" pt_clust_6="13000.00000" pt_clust_7="13000.00000" pt_clust_8="13000.00000" pt_clust_9="23.30581"></scales>
<clustering>
<clus scale="   23.306">  1  9  2 -1</clus>
<clus scale="   90.722">  7  8 -1 -1</clus>
<clus scale="   90.983">  5  6 -1 -1</clus>
<clus scale="   92.499">  2  7  1 -1</clus>
<clus scale="   23.306">  1  5  2 -1</clus>
</clustering>
</event>
<event>
 9    1  0.1464797E-005  0.1453279E+03  0.7546771E-02  0.1213335E+00
         21   -1    0    0  501  502  0.00000000000E+00  0.00000000000E+00  0.15967708492E+03  0.15967708492E+03  0.00000000000E+00 0. -1.
         -3   -1    0    0    0  501 -0.00000000000E+00 -0.00000000000E+00 -0.22161988205E+03  0.22161988205E+03  0.00000000000E+00 0.  1.
         23    2    1    2    0    0 -0.61836415355E+02  0.54403048392E+02 -0.14346241213E+03  0.20434540673E+03  0.11996727728E+03 0.  0.
         23    2    1    2    0    0  0.40258092180E+02 -0.74848813057E+02  0.62288003890E+02  0.14154664265E+03  0.94512421482E+02 0.  0.
        -11    1    3    3    0    0 -0.21010780429E+02 -0.33829453159E+02 -0.76660222365E+02  0.86386772647E+02  0.00000000000E+00 0.  1.
         11    1    3    3    0    0 -0.40825634926E+02  0.88232501551E+02 -0.66802189762E+02  0.11795863408E+03  0.00000000000E+00 0. -1.
        -11    1    4    4    0    0  0.70199112701E+02 -0.40532272225E+02  0.33776687392E+02  0.87815973074E+02  0.00000000000E+00 0.  1.
         11    1    4    4    0    0 -0.29941020521E+02 -0.34316540831E+02  0.28511316498E+02  0.53730669574E+02  0.00000000000E+00 0. -1.
         -3    1    1    2    0  502  0.21578323175E+02  0.20445764664E+02  0.19231611109E+02  0.35404917591E+02  0.00000000000E+00 0.  1.
<scales pt_clust_5="13000.00000" pt_clust_6="13000.00000" pt_clust_7="13000.00000" pt_clust_8="13000.00000" pt_clust_9="29.72631"></scales>
<clustering>
<clus scale="   29.726">  1  9  2 -1</clus>
<clus scale="   94.512">  7  8 -1 -1</clus>
<clus scale="  119.967">  5  6 -1 -1</clus>
<clus scale="  125.143">  1  7  2 -1</clus>
<clus scale="   29.726">  1  5  2 -1</clus>
</clustering>
</event>
<event>
 9    1  0.1464797E-005  0.1861782E+03  0.7546771E-02  0.1162046E+00
         21   -1    0    0  501  502  0.00000000000E+00  0.00000000000E+00  0.15382508392E+03  0.15382508392E+03  0.00000000000E+00 0. -1.
          1   -1    0    0  502    0 -0.00000000000E+00 -0.00000000000E+00 -0.55737694850E+03  0.55737694850E+03  0.00000000000E+00 0. -1.
         23    2    1    2    0    0  0.17091336708E+03  0.13428733122E+02 -0.33835911120E+03  0.39010056166E+03  0.91103513427E+02 0.  0.
         23    2    1    2    0    0 -0.12788648391E+03  0.86405978124E+02  0.24090254829E+02  0.18042546782E+03  0.90288776920E+02 0.  0.
        -11    1    3    3    0    0  0.22734077296E+02 -0.30180265549E+02 -0.90226908946E+02  0.97819127971E+02  0.00000000000E+00 0. -1.
         11    1    3    3    0    0  0.14817928979E+03  0.43608998671E+02 -0.24813220225E+03  0.29228143369E+03  0.00000000000E+00 0.  1.
        -13    1    4    4    0    0 -0.10882907105E+03  0.59675692851E+02 -0.19727101360E+02  0.12567463368E+03  0.00000000000E+00 0. -1.
         13    1    4    4    0    0 -0.19057412865E+02  0.26730285272E+02  0.43817356189E+02  0.54750834142E+02  0.00000000000E+00 0.  1.
          1    1    1    2  501    0 -0.43026883168E+02 -0.99834711246E+02 -0.89283008214E+02  0.14067600293E+03  0.00000000000E+00 0. -1.
<scales pt_clust_5="13000.00000" pt_clust_6="13000.00000" pt_clust_7="13000.00000" pt_clust_8="13000.00000" pt_clust_9="108.71198"></scales>
<clustering>
<clus scale="   90.289">  7  8 -1 -1</clus>
<clus scale="   91.104">  5  6 -1 -1</clus>
<clus scale="  108.712">  1  9  2 -1</clus>
<clus scale="  185.781">  1  7  2 -1</clus>
<clus scale="  108.712">  1  5  2 -1</clus>
</clustering>
</event>
<event>
 9    1  0.1464797E-005  0.1402593E+03  0.7546771E-02  0.1232909E+00
         21   -1    0    0  501  502  0.00000000000E+00  0.00000000000E+00  0.90626076959E+03  0.90626076959E+03  0.00000000000E+00 0.  1.
         -3   -1    0    0    0  501 -0.00000000000E+00 -0.00000000000E+00 -0.83749869589E+02  0.83749869589E+02  0.00000000000E+00 0.  1.
         23    2    1    2    0    0 -0.63179006536E+01 -0.26174187840E+01  0.99151854290E+02  0.13559206262E+03  0.92235299563E+02 0.  0.
         23    2    1    2    0    0 -0.68624480964E+02 -0.73216302852E+02  0.13419038159E+02  0.13651751916E+03  0.91580653311E+02 0.  0.
        -13    1    3    3    0    0 -0.11752173988E+02  0.40107817796E+02  0.75901871551E+02  0.86647820208E+02  0.00000000000E+00 0.  1.
         13    1    3    3    0    0  0.54342733349E+01 -0.42725236580E+02  0.23249982738E+02  0.48944242407E+02  0.00000000000E+00 0. -1.
        -13    1    4    4    0    0 -0.41581492611E+02 -0.55873942941E+02 -0.35359379067E+02  0.78110202378E+02  0.00000000000E+00 0.  1.
         13    1    4    4    0    0 -0.27042988353E+02 -0.17342359911E+02  0.48778417225E+02  0.58407316779E+02  0.00000000000E+00 0. -1.
         -3    1    1    2    0  502  0.74942381618E+02  0.75833721636E+02  0.70994000755E+03  0.71790105740E+03  0.00000000000E+00 0.  1.
<scales pt_clust_5="13000.00000" pt_clust_6="13000.00000" pt_clust_7="13000.00000" pt_clust_8="13000.00000" pt_clust_9="106.23394"></scales>
<clustering>
<clus scale="   91.581">  7  8 -1 -1</clus>
<clus scale="   92.235">  5  6 -1 -1</clus>
<clus scale="   92.488">  2  5  1 -1</clus>
<clus scale="  106.234">  1  9  2 -1</clus>
<clus scale="  106.234">  1  5  2 -1</clus>
</clustering>
</event>
<event>
 9    1  0.1464797E-005  0.1055130E+03  0.7546771E-02  0.1270311E+00
          1   -1    0    0  502    0 -0.00000000000E+00  0.00000000000E+00  0.48220488716E+02  0.48220488716E+02  0.00000000000E+00 0. -1.
         21   -1    0    0  501  502  0.00000000000E+00 -0.00000000000E+00 -0.48399667357E+03  0.48399667357E+03  0.00000000000E+00 0. -1.
         23    2    1    2    0    0  0.28439564913E+02  0.16527102576E+02 -0.10185174083E+03  0.13828113002E+03  0.87555352986E+02 0.  0.
         23    2    1    2    0    0 -0.62048280221E+02 -0.46162498905E+02 -0.98968769392E+02  0.15474579104E+03  0.90390691694E+02 0.  0.
        -11    1    3    3    0    0 -0.14719753877E+01  0.42761746837E+02 -0.84823321084E+02  0.95003839416E+02  0.00000000000E+00 0. -1.
         11    1    3    3    0    0  0.29911540301E+02 -0.26234644261E+02 -0.17028419746E+02  0.43277290600E+02  0.00000000000E+00 0.  1.
        -11    1    4    4    0    0 -0.22225394739E+02  0.19777112714E+02 -0.63122084530E+02  0.69781802170E+02  0.00000000000E+00 0.  1.
         11    1    4    4    0    0 -0.39822885482E+02 -0.65939611618E+02 -0.35846684862E+02  0.84963988866E+02  0.00000000000E+00 0. -1.
          1    1    1    2  501    0  0.33608715308E+02  0.29635396329E+02 -0.23495567463E+03  0.23919024123E+03  0.00000000000E+00 0. -1.
<scales pt_clust_5="13000.00000" pt_clust_6="13000.00000" pt_clust_7="13000.00000" pt_clust_8="13000.00000" pt_clust_9="44.80851"></scales>
<clustering>
<clus scale="   44.809">  2  9  1 -1</clus>
<clus scale="   87.555">  5  6 -1 -1</clus>
<clus scale="   90.391">  7  8 -1 -1</clus>
<clus scale="  103.094">  1  5  2 -1</clus>
<clus scale="   44.809">  2  5  1 -1</clus>
</clustering>
</event>
<event>
 9    1  0.1464797E-005  0.1205297E+03  0.7546771E-02  0.1243892E+00
          1   -1    0    0  502    0 -0.00000000000E+00  0.00000000000E+00  0.34057106011E+03  0.34057106011E+03  0.00000000000E+00 0. -1.
         21   -1    0    0  501  502  0.00000000000E+00 -0.00000000000E+00 -0.32850494577E+03  0.32850494577E+03  0.00000000000E+00 0. -1.
         23    2    1    2    0    0 -0.43678644208E+02  0.56036848353E+02  0.16911430139E+03  0.20520588944E+03  0.91988356834E+02 0.  0.
         23    2    1    2    0    0 -0.49069304940E+01 -0.10309173023E+03  0.11891052882E+03  0.17974350234E+03  0.86695040011E+02 0.  0.
        -11    1    3    3    0    0 -0.33693014737E+02  0.81059817402E+02  0.14227502818E+03  0.16717684314E+03  0.00000000000E+00 0.  1.
         11    1    3    3    0    0 -0.99856294712E+01 -0.25022969049E+02  0.26839273214E+02  0.38029046301E+02  0.00000000000E+00 0. -1.
        -11    1    4    4    0    0 -0.65677667601E+01 -0.68952837412E+02  0.12696351525E+03  0.14462836358E+03  0.00000000000E+00 0. -1.
         11    1    4    4    0    0  0.16608362660E+01 -0.34138892813E+02 -0.80529864335E+01  0.35115138760E+02  0.00000000000E+00 0.  1.
          1    1    1    2  501    0  0.48585574702E+02  0.47054881872E+02 -0.27595871586E+03  0.28412661410E+03  0.00000000000E+00 0. -1.
<scales pt_clust_5="13000.00000" pt_clust_6="13000.00000" pt_clust_7="13000.00000" pt_clust_8="13000.00000" pt_clust_9="67.63668"></scales>
<clustering>
<clus scale="   67.637">  2  9  1 -1</clus>
<clus scale="   86.695">  7  8 -1 -1</clus>
<clus scale="   91.988">  5  6 -1 -1</clus>
<clus scale="  116.540">  2  7  1 -1</clus>
<clus scale="   67.637">  2  5  1 -1</clus>
</clustering>
</event>
<event>
 9    1  0.1464797E-005  0.1221875E+03  0.7546771E-02  0.1240133E+00
         21   -1    0    0  501  502  0.00000000000E+00  0.00000000000E+00  0.14202865956E+03  0.14202865956E+03  0.00000000000E+00 0.  1.
         -2   -1    0    0    0  501 -0.00000000000E+00 -0.00000000000E+00 -0.31281270283E+03  0.31281270283E+03  0.00000000000E+00 0.  1.
         23    2    1    2    0    0 -0.64043376573E+02 -0.50708185893E+02 -0.17595166563E+03  0.21301964709E+03  0.88008563259E+02 0.  0.
         23    2    1    2    0    0  0.77871265330E+02  0.35928232608E+02 -0.84215023044E+02  0.15017612169E+03  0.90032913748E+02 0.  0.
        -11    1    3    3    0    0  0.20165711258E+02 -0.19331981113E+02 -0.61147993478E+02  0.67226918051E+02  0.00000000000E+00 0. -1.
         11    1    3    3    0    0 -0.84209087830E+02 -0.31376204780E+02 -0.11480367216E+03  0.14579272904E+03  0.00000000000E+00 0.  1.
        -11    1    4    4    0    0 -0.23602980730E+01  0.23551542476E+02 -0.61469675014E+02  0.65869318399E+02  0.00000000000E+00 0.  1.
         11    1    4    4    0    0  0.80231563403E+02  0.12376690132E+02 -0.22745348030E+02  0.84306803294E+02  0.00000000000E+00 0. -1.
         -2    1    1    2    0  502 -0.13827888757E+02  0.14779953284E+02  0.89382645414E+02  0.91645593608E+02  0.00000000000E+00 0.  1.
<scales pt_clust_5="13000.00000" pt_clust_6="13000.00000" pt_clust_7="13000.00000" pt_clust_8="13000.00000" pt_clust_9="20.24000"></scales>
<clustering>
<clus scale="   20.240">  1  9  2 -1</clus>
<clus scale="   88.009">  5  6 -1 -1</clus>
<clus scale="   90.033">  7  8 -1 -1</clus>
<clus scale="  120.704">  2  5  1 -1</clus>
<clus scale="   20.240">  1  5  2 -1</clus>
</clustering>
</event>
<event>
 9    1  0.1464797E-005  0.9798502E+02  0.7546771E-02  0.1285766E+00
         -1   -1    0    0    0  501 -0.00000000000E+00  0.00000000000E+00  0.30697655795E+02  0.30697655795E+02  0.00000000000E+00 0.  1.
         21   -1    0    0  501  502  0.00000000000E+00 -0.00000000000E+00 -0.38595033527E+03  0.38595033527E+03  0.00000000000E+00 0. -1.
         23    2    1    2    0    0  0.43702292537E+01 -0.43353106133E+02 -0.15722627010E+03  0.18591126281E+03  0.89130841545E+02 0.  0.
         23    2    1    2    0    0  0.10206572386E+02  0.26454708672E+02 -0.16741566020E+03  0.19285458276E+03  0.91437744276E+02 0.  0.
        -11    1    4    4    0    0  0.41352932985E+01  0.60183849947E+02 -0.12047373301E+03  0.13473350285E+03  0.00000000000E+00 0. -1.
         11    1    4    4    0    0  0.60712790871E+01 -0.33729141274E+02 -0.46941927195E+02  0.58121079908E+02  0.00000000000E+00 0.  1.
        -13    1    3    3    0    0 -0.25822804281E+02 -0.27785839032E+02 -0.16891207023E+02  0.41523281980E+02  0.00000000000E+00 0.  1.
         13    1    3    3    0    0  0.30193033535E+02 -0.15567267100E+02 -0.14033506308E+03  0.14438798083E+03  0.00000000000E+00 0. -1.
         -1    1    1    2    0  502 -0.14576801639E+02  0.16898397460E+02 -0.30610749164E+02  0.37882145492E+02  0.00000000000E+00 0.  1.
<scales pt_clust_5="13000.00000" pt_clust_6="13000.00000" pt_clust_7="13000.00000" pt_clust_8="13000.00000" pt_clust_9="22.31680"></scales>
<clustering>
<clus scale="   22.317">  2  9  1 -1</clus>
<clus scale="   89.131">  7  8 -1 -1</clus>
<clus scale="   91.438">  5  6 -1 -1</clus>
<clus scale="   95.836">  1  7  2 -1</clus>
<clus scale="   22.317">  2  5  1 -1</clus>
</clustering>
</event>
<event>
 9    1  0.1464797E-005  0.1052757E+03  0.7546771E-02  0.1273901E+00
         21   -1    0    0  501  502  0.00000000000E+00  0.00000000000E+00  0.22830734330E+03  0.22830734330E+03  0.00000000000E+00 0. -1.
          3   -1    0    0  502    0 -0.00000000000E+00 -0.00000000000E+00 -0.21417860781E+03  0.21417860781E+03  0.00000000000E+00 0. -1.
         23    2    1    2    0    0  0.39484179603E+02 -0.25507305040E+02 -0.98107272531E+02  0.14276477741E+03  0.92450644647E+02 0.  0.
         23    2    1    2    0    0 -0.21607068998E+02  0.56679367537E+02 -0.63299945185E+02  0.12054483756E+03  0.82733056669E+02 0.  0.
        -11    1    4    4    0    0 -0.31934482074E+02 -0.58347268484E+01 -0.22235570826E+01  0.32539197729E+02  0.00000000000E+00 0.  1.
         11    1    4    4    0    0  0.10327413076E+02  0.62514094386E+02 -0.61076388102E+02  0.88005639827E+02  0.00000000000E+00 0. -1.
        -13    1    3    3    0    0  0.30946523190E+02  0.29760110354E+02 -0.64617831265E+02  0.77581025923E+02  0.00000000000E+00 0.  1.
         13    1    3    3    0    0  0.85376564136E+01 -0.55267415394E+02 -0.33489441266E+02  0.65183751486E+02  0.00000000000E+00 0. -1.
          3    1    1    2  501    0 -0.17877110606E+02 -0.31172062497E+02  0.17553595321E+03  0.17917633614E+03  0.00000000000E+00 0. -1.
<scales pt_clust_5="13000.00000" pt_clust_6="13000.00000" pt_clust_7="13000.00000" pt_clust_8="13000.00000" pt_clust_9="35.93450"></scales>
<clustering>
<clus scale="   35.935">  1  9  2 -1</clus>
<clus scale="   82.733">  5  6 -1 -1</clus>
<clus scale="   92.451">  7  8 -1 -1</clus>
<clus scale="   96.854">  1  5  2 -1</clus>
<clus scale="   35.935">  1  5  2 -1</clus>
</clustering>
</event>
<event>
 9    1  0.1464797E-005  0.1087281E+03  0.7546771E-02  0.1263911E+00
         21   -1    0    0  501  502  0.00000000000E+00  0.00000000000E+00  0.23599027968E+03  0.23599027968E+03  0.00000000000E+00 0. -1.
          3   -1    0    0  502    0 -0.00000000000E+00 -0.00000000000E+00 -0.11486895786E+03  0.11486895786E+03  0.00000000000E+00 0. -1.
         23    2    1    2    0    0  0.38503343155E+02  0.36410009779E+02 -0.32173612346E+02  0.11062993980E+03  0.91627757811E+02 0.  0.
         23    2    1    2    0    0 -0.59369381681E+02 -0.37121643183E+02  0.32954221578E+02  0.11809091274E+03  0.89200577785E+02 0.  0.
        -11    1    4    4    0    0 -0.38374040205E+02 -0.65473352842E+02  0.33141606850E+02  0.82811188849E+02  0.00000000000E+00 0.  1.
         11    1    4    4    0    0 -0.20995341476E+02  0.28351709659E+02 -0.18738527134E+00  0.35279723887E+02  0.00000000000E+00 0. -1.
        -13    1    3    3    0    0  0.13437088898E+02  0.45256851556E+02 -0.57169173367E+02  0.74142109184E+02  0.00000000000E+00 0.  1.
         13    1    3    3    0    0  0.25066254257E+02 -0.88468417770E+01  0.24995561021E+02  0.36487830611E+02  0.00000000000E+00 0. -1.
          3    1    1    2  501    0  0.20866038526E+02  0.71163340438E+00  0.12034071259E+03  0.12213838501E+03  0.00000000000E+00 0. -1.
<scales pt_clust_5="13000.00000" pt_clust_6="13000.00000" pt_clust_7="13000.00000" pt_clust_8="13000.00000" pt_clust_9="20.87817"></scales>
<clustering>
<clus scale="   20.878">  1  9  2 -1</clus>
<clus scale="   89.201">  5  6 -1 -1</clus>
<clus scale="   91.628">  7  8 -1 -1</clus>
<clus scale="  106.691">  1  5  2 -1</clus>
<clus scale="   20.878">  1  5  2 -1</clus>
</clustering>
</event>
<event>
 9    1  0.1464797E-005  0.9297143E+02  0.7546771E-02  0.1297236E+00
         21   -1    0    0  501  502  0.00000000000E+00  0.00000000000E+00  0.48909895166E+03  0.48909895166E+03  0.00000000000E+00 0. -1.
         -3   -1    0    0    0  501 -0.00000000000E+00 -0.00000000000E+00 -0.94468762980E+02  0.94468762980E+02  0.00000000000E+00 0.  1.
         23    2    1    2    0    0 -0.82077734069E+01  0.17006340553E+02 -0.62286905859E+02  0.11195408775E+03  0.91090482263E+02 0.  0.
         23    2    1    2    0    0  0.25266294459E+02 -0.34559139390E+01  0.32178834692E+03  0.33474001499E+03  0.88616073288E+02 0.  0.
        -13    1    4    4    0    0  0.17959572496E+02 -0.42471198578E+02  0.11016841771E+03  0.11942959941E+03  0.00000000000E+00 0. -1.
         13    1    4    4    0    0  0.73067219634E+01  0.39015284639E+02  0.21161992921E+03  0.21531041558E+03  0.00000000000E+00 0.  1.
        -13    1    3    3    0    0 -0.33032734342E+02  0.43299680792E+02 -0.49510379660E+02  0.73602320540E+02  0.00000000000E+00 0.  1.
         13    1    3    3    0    0  0.24824960936E+02 -0.26293340238E+02 -0.12776526199E+02  0.38351767209E+02  0.00000000000E+00 0. -1.
         -3    1    1    2    0  502 -0.17058521052E+02 -0.13550426614E+02  0.13512874762E+03  0.13687361190E+03  0.00000000000E+00 0.  1.
<scales pt_clust_5="13000.00000" pt_clust_6="13000.00000" pt_clust_7="13000.00000" pt_clust_8="13000.00000" pt_clust_9="21.78548"></scales>
<clustering>
<clus scale="   21.785">  1  9  2 -1</clus>
<clus scale="   88.616">  5  6 -1 -1</clus>
<clus scale="   90.548">  1  5  2 -1</clus>
<clus scale="   91.090">  7  8 -1 -1</clus>
<clus scale="   21.785">  1  5  2 -1</clus>
</clustering>
</event>
<event>
 9    1  0.1464797E-005  0.1718258E+03  0.7546771E-02  0.1176248E+00
          2   -1    0    0  502    0 -0.00000000000E+00  0.00000000000E+00  0.27957699197E+03  0.27957699197E+03  0.00000000000E+00 0. -1.
         21   -1    0    0  501  502  0.00000000000E+00 -0.00000000000E+00 -0.15285619837E+03  0.15285619837E+03  0.00000000000E+00 0.  1.
         23    2    1    2    0    0 -0.50907094732E+02  0.11761688393E+03  0.58231869804E+02  0.16865768556E+03  0.92893490399E+02 0.  0.
         23    2    1    2    0    0  0.40357181460E+02 -0.16680118962E+03  0.22202154830E+02  0.19541717261E+03  0.90794254869E+02 0.  0.
        -11    1    4    4    0    0  0.27099361735E+02 -0.12381175679E+03 -0.26108224797E+02  0.12940388684E+03  0.00000000000E+00 0.  1.
         11    1    4    4    0    0  0.13257819725E+02 -0.42989432829E+02  0.48310379627E+02  0.66013285773E+02  0.00000000000E+00 0. -1.
        -13    1    3    3    0    0 -0.75815132081E+02  0.85066733592E+02  0.57568983853E+02  0.12766546643E+03  0.00000000000E+00 0.  1.
         13    1    3    3    0    0  0.24908037349E+02  0.32550150340E+02  0.66288595096E+00  0.40992219134E+02  0.00000000000E+00 0. -1.
          2    1    1    2  501    0  0.10549913272E+02  0.49184305690E+02  0.46286768961E+02  0.68358332170E+02  0.00000000000E+00 0. -1.
<scales pt_clust_5="13000.00000" pt_clust_6="13000.00000" pt_clust_7="13000.00000" pt_clust_8="13000.00000" pt_clust_9="50.30307"></scales>
<clustering>
<clus scale="   50.303">  2  9  1 -1</clus>
<clus scale="   90.794">  5  6 -1 -1</clus>
<clus scale="   92.893">  7  8 -1 -1</clus>
<clus scale="  170.700">  2  5  1 -1</clus>
<clus scale="   50.303">  2  5  1 -1</clus>
</clustering>
</event>
<event>
 9    1  0.1464797E-005  0.1848214E+03  0.7546771E-02  0.1163436E+00
         21   -1    0    0  501  502  0.00000000000E+00  0.00000000000E+00  0.44930536855E+02  0.44930536855E+02  0.00000000000E+00 0. -1.
          2   -1    0    0  502    0 -0.00000000000E+00 -0.00000000000E+00 -0.13795688351E+04  0.13795688351E+04  0.00000000000E+00 0. -1.
         23    2    1    2    0    0 -0.24505217283E+02 -0.15323819675E+03 -0.91891938940E+03  0.93646683072E+03  0.92058840974E+02 0.  0.
         23    2    1    2    0    0 -0.20041271281E+02  0.17928182047E+03 -0.35556420838E+03  0.40877821663E+03  0.90167069410E+02 0.  0.
        -11    1    3    3    0    0  0.29048151111E+01 -0.14752265637E+03 -0.83669853712E+03  0.84960921258E+03  0.00000000000E+00 0. -1.
         11    1    3    3    0    0 -0.27410032394E+02 -0.57155403782E+01 -0.82220852281E+02  0.86857618131E+02  0.00000000000E+00 0.  1.
        -11    1    4    4    0    0  0.24729895267E+02  0.13141596754E+03 -0.26683808811E+03  0.29846991391E+03  0.00000000000E+00 0. -1.
         11    1    4    4    0    0 -0.44771166548E+02  0.47865852931E+02 -0.88726120272E+02  0.11030830272E+03  0.00000000000E+00 0.  1.
          2    1    1    2  501    0  0.44546488564E+02 -0.26043623718E+02 -0.60154700444E+02  0.79254324584E+02  0.00000000000E+00 0. -1.
<scales pt_clust_5="13000.00000" pt_clust_6="13000.00000" pt_clust_7="13000.00000" pt_clust_8="13000.00000" pt_clust_9="51.60097"></scales>
<clustering>
<clus scale="   51.601">  1  9  2 -1</clus>
<clus scale="   90.167">  7  8 -1 -1</clus>
<clus scale="   92.059">  5  6 -1 -1</clus>
<clus scale="  183.886">  1  7  2 -1</clus>
<clus scale="   51.601">  1  5  2 -1</clus>
</clustering>
</event>
<event>
 9    1  0.2526896E-005  0.9883777E+02  0.7546771E-02  0.1283608E+00
          1   -1    0    0  502    0 -0.00000000000E+00  0.00000000000E+00  0.34642140496E+03  0.34642140496E+03  0.00000000000E+00 0. -1.
         21   -1    0    0  501  502  0.00000000000E+00 -0.00000000000E+00 -0.34353257896E+03  0.34353257896E+03  0.00000000000E+00 0. -1.
         23    2    1    2    0    0  0.15119585567E+02  0.37585250877E+02  0.31095274534E+03  0.32619820008E+03  0.89846552241E+02 0.  0.
         23    2    1    2    0    0  0.32798994812E+02 -0.73383656055E+01 -0.72631602105E+02  0.12159996538E+03  0.91550949119E+02 0.  0.
        -11    1    3    3    0    0  0.18924352277E+02  0.66327658346E+02  0.23445986860E+03  0.24439500682E+03  0.00000000000E+00 0. -1.
         11    1    3    3    0    0 -0.38047667099E+01 -0.28742407469E+02  0.76492876739E+02  0.81803193266E+02  0.00000000000E+00 0.  1.
        -11    1    4    4    0    0  0.14474192177E+02 -0.45976228201E+02 -0.60094863864E+02  0.77037059014E+02  0.00000000000E+00 0.  1.
         11    1    4    4    0    0  0.18324802636E+02  0.38637862596E+02 -0.12536738241E+02  0.44562906361E+02  0.00000000000E+00 0. -1.
          1    1    1    2  501    0 -0.47918580379E+02 -0.30246885271E+02 -0.23543231724E+03  0.24215581846E+03  0.00000000000E+00 0. -1.
<scales pt_clust_5="13000.00000" pt_clust_6="13000.00000" pt_clust_7="13000.00000" pt_clust_8="13000.00000" pt_clust_9="56.66625"></scales>
<clustering>
<clus scale="   56.666">  2  9  1 -1</clus>
<clus scale="   89.847">  5  6 -1 -1</clus>
<clus scale="   91.551">  7  8 -1 -1</clus>
<clus scale="   97.261">  1  5  2 -1</clus>
<clus scale="   56.666">  2  5  1 -1</clus>
</clustering>
</event>
<event>
 9    1  0.1464797E-005  0.1098976E+03  0.7546771E-02  0.1269047E+00
          2   -1    0    0  502    0 -0.00000000000E+00  0.00000000000E+00  0.46794808519E+03  0.46794808519E+03  0.00000000000E+00 0. -1.
         21   -1    0    0  501  502  0.00000000000E+00 -0.00000000000E+00 -0.73462207678E+02  0.73462207678E+02  0.00000000000E+00 0. -1.
         23    2    1    2    0    0  0.34456120699E+02  0.31963323799E+02  0.22889463877E+03  0.25230547038E+03  0.95165205864E+02 0.  0.
         23    2    1    2    0    0 -0.58267249060E+02 -0.25955343949E+02  0.21347579451E+03  0.23529036034E+03  0.75636542985E+02 0.  0.
        -13    1    4    4    0    0  0.17698257026E+02 -0.12634159143E+02  0.50779132295E+02  0.55239212120E+02  0.00000000000E+00 0.  1.
         13    1    4    4    0    0 -0.75965506085E+02 -0.13321184807E+02  0.16269666221E+03  0.18005114822E+03  0.00000000000E+00 0. -1.
        -13    1    3    3    0    0  0.59416215384E+02  0.16285138179E+02  0.20590627933E+03  0.21492530853E+03  0.00000000000E+00 0.  1.
         13    1    3    3    0    0 -0.24960094685E+02  0.15678185620E+02  0.22988359432E+02  0.37380161856E+02  0.00000000000E+00 0. -1.
          2    1    1    2  501    0  0.23811128361E+02 -0.60079798491E+01 -0.47884555762E+02  0.53814462147E+02  0.00000000000E+00 0. -1.
<scales pt_clust_5="13000.00000" pt_clust_6="13000.00000" pt_clust_7="13000.00000" pt_clust_8="13000.00000" pt_clust_9="24.55740"></scales>
<clustering>
<clus scale="   24.557">  2  9  1 -1</clus>
<clus scale="   75.637">  5  6 -1 -1</clus>
<clus scale="   93.498">  2  5  1 -1</clus>
<clus scale="   95.165">  7  8 -1 -1</clus>
<clus scale="   24.557">  2  5  1 -1</clus>
</clustering>
</event>
<event>
 9    1  0.1464797E-005  0.1057340E+03  0.7546771E-02  0.1269525E+00
          2   -1    0    0  502    0 -0.00000000000E+00  0.00000000000E+00  0.63952634104E+03  0.63952634104E+03  0.00000000000E+00 0. -1.
         21   -1    0    0  501  502  0.00000000000E+00 -0.00000000000E+00 -0.27991360462E+02  0.27991360462E+02  0.00000000000E+00 0.  1.
         23    2    1    2    0    0  0.45827581651E+02  0.12146152140E+02  0.28260354665E+03  0.29996238569E+03  0.88684677342E+02 0.  0.
         23    2    1    2    0    0 -0.63727665373E+02 -0.28103254672E+02  0.15849023396E+03  0.19543546001E+03  0.90690994644E+02 0.  0.
        -11    1    3    3    0    0  0.32712330711E+02 -0.29004657953E+02  0.66492478948E+02  0.79577738848E+02  0.00000000000E+00 0.  1.
         11    1    3    3    0    0  0.13115250940E+02  0.41150810092E+02  0.21611106771E+03  0.22038464684E+03  0.00000000000E+00 0. -1.
        -11    1    4    4    0    0 -0.74005669210E+02 -0.49953936596E+02  0.13416666258E+03  0.16116118703E+03  0.00000000000E+00 0. -1.
         11    1    4    4    0    0  0.10278003838E+02  0.21850681923E+02  0.24323571384E+02  0.34274272979E+02  0.00000000000E+00 0.  1.
          2    1    1    2  501    0  0.17900083722E+02  0.15957102533E+02  0.17044119996E+03  0.17211985580E+03  0.00000000000E+00 0. -1.
<scales pt_clust_5="13000.00000" pt_clust_6="13000.00000" pt_clust_7="13000.00000" pt_clust_8="13000.00000" pt_clust_9="23.98005"></scales>
<clustering>
<clus scale="   23.980">  2  9  1 -1</clus>
<clus scale="   88.685">  5  6 -1 -1</clus>
<clus scale="   90.691">  7  8 -1 -1</clus>
<clus scale="  104.018">  1  5  2 -1</clus>
<clus scale="   23.980">  2  5  1 -1</clus>
</clustering>
</event>
<event>
 9    1  0.1464797E-005  0.1775976E+03  0.7546771E-02  0.1187140E+00
         21   -1    0    0  501  502  0.00000000000E+00  0.00000000000E+00  0.17588540704E+03  0.17588540704E+03  0.00000000000E+00 0.  1.
          1   -1    0    0  502    0 -0.00000000000E+00 -0.00000000000E+00 -0.39643855487E+03  0.39643855487E+03  0.00000000000E+00 0. -1.
         23    2    1    2    0    0  0.63590208192E+02  0.47927498889E+02  0.22598777176E+00  0.12110476428E+03  0.91244469056E+02 0.  0.
         23    2    1    2    0    0  0.59002898158E+01  0.10363472822E+03 -0.24623060100E+03  0.28255439664E+03  0.91828687678E+02 0.  0.
        -13    1    4    4    0    0  0.27877656188E+02  0.44141570160E+02 -0.37176907841E+02  0.64091843532E+02  0.00000000000E+00 0. -1.
         13    1    4    4    0    0 -0.21977366372E+02  0.59493158061E+02 -0.20905369316E+03  0.21846255311E+03  0.00000000000E+00 0.  1.
        -13    1    3    3    0    0  0.87376541589E+02  0.37074834448E+02  0.14983849505E+01  0.94928649663E+02  0.00000000000E+00 0.  1.
         13    1    3    3    0    0 -0.23786333396E+02  0.10852664440E+02 -0.12723971787E+01  0.26176114618E+02  0.00000000000E+00 0. -1.
          1    1    1    2  501    0 -0.69490498008E+02 -0.15156222711E+03  0.25451465407E+02  0.16866480098E+03  0.00000000000E+00 0. -1.
<scales pt_clust_5="13000.00000" pt_clust_6="13000.00000" pt_clust_7="13000.00000" pt_clust_8="13000.00000" pt_clust_9="152.01448"></scales>
<clustering>
<clus scale="   91.244">  7  8 -1 -1</clus>
<clus scale="   91.829">  5  6 -1 -1</clus>
<clus scale="  121.105">  2  7  1 -1</clus>
<clus scale="  152.014">  1  9  2 -1</clus>
<clus scale="  152.014">  1  5  2 -1</clus>
</clustering>
</event>
<event>
 9    1  0.1464797E-005  0.1552314E+03  0.7546771E-02  0.1196412E+00
          3   -1    0    0  502    0 -0.00000000000E+00  0.00000000000E+00  0.23462517588E+03  0.23462517588E+03  0.00000000000E+00 0. -1.
         21   -1    0    0  501  502  0.00000000000E+00 -0.00000000000E+00 -0.24378664500E+03  0.24378664500E+03  0.00000000000E+00 0.  1.
         23    2    1    2    0    0  0.11105531819E+03  0.44448667299E+02  0.15239753070E+03  0.22021825666E+03  0.10470007392E+03 0.  0.
         23    2    1    2    0    0 -0.94669422052E+02 -0.32479837387E+02 -0.51489270586E+02  0.14626905496E+03  0.93414410801E+02 0.  0.
        -13    1    4    4    0    0 -0.34864019334E+02 -0.25872040563E+02 -0.70822151537E+02  0.83070087730E+02  0.00000000000E+00 0.  1.
         13    1    4    4    0    0 -0.59805402718E+02 -0.66077968230E+01  0.19332880952E+02  0.63198967231E+02  0.00000000000E+00 0. -1.
        -13    1    3    3    0    0  0.51422697703E+02 -0.28424386926E+02  0.89206961523E+02  0.10681817072E+03  0.00000000000E+00 0.  1.
         13    1    3    3    0    0  0.59632620487E+02  0.72873054225E+02  0.63190569178E+02  0.11340008594E+03  0.00000000000E+00 0. -1.
          3    1    1    2  501    0 -0.16385896138E+02 -0.11968829913E+02 -0.11006972923E+03  0.11192450927E+03  0.00000000000E+00 0. -1.
<scales pt_clust_5="13000.00000" pt_clust_6="13000.00000" pt_clust_7="13000.00000" pt_clust_8="13000.00000" pt_clust_9="20.29164"></scales>
<clustering>
<clus scale="   20.292">  2  9  1 -1</clus>
<clus scale="   93.414">  5  6 -1 -1</clus>
<clus scale="  104.700">  7  8 -1 -1</clus>
<clus scale="  147.854">  2  5  1 -1</clus>
<clus scale="   20.292">  2  5  1 -1</clus>
</clustering>
</event>
<event>
 9    1  0.1464797E-005  0.1066888E+03  0.7546771E-02  0.1266845E+00
         21   -1    0    0  501  502  0.00000000000E+00  0.00000000000E+00  0.10727731725E+03  0.10727731725E+03  0.00000000000E+00 0. -1.
          2   -1    0    0  502    0 -0.00000000000E+00 -0.00000000000E+00 -0.41557433980E+03  0.41557433980E+03  0.00000000000E+00 0. -1.
         23    2    1    2    0    0 -0.31952683588E+02  0.39027680287E+02 -0.25468494651E+03  0.27458817189E+03  0.89387405989E+02 0.  0.
         23    2    1    2    0    0  0.23358480100E+01 -0.96440038383E+02 -0.10293475564E+03  0.16698579735E+03  0.89345147659E+02 0.  0.
        -11    1    4    4    0    0  0.45480388452E+02 -0.53845963734E+02 -0.61604826638E+02  0.93610940650E+02  0.00000000000E+00 0.  1.
         11    1    4    4    0    0 -0.43144540442E+02 -0.42594074649E+02 -0.41329928998E+02  0.73374856702E+02  0.00000000000E+00 0. -1.
        -13    1    3    3    0    0  0.20338838795E+02 -0.28587185220E+01 -0.14263324970E+02  0.25005660846E+02  0.00000000000E+00 0.  1.
         13    1    3    3    0    0 -0.52291522383E+02  0.41886398809E+02 -0.24042162154E+03  0.24958251105E+03  0.00000000000E+00 0. -1.
          2    1    1    2  501    0  0.29616835578E+02  0.57412358096E+02  0.49322679602E+02  0.81277687805E+02  0.00000000000E+00 0. -1.
<scales pt_clust_5="13000.00000" pt_clust_6="13000.00000" pt_clust_7="13000.00000" pt_clust_8="13000.00000" pt_clust_9="64.60136"></scales>
<clustering>
<clus scale="   64.601">  1  9  2 -1</clus>
<clus scale="   89.345">  5  6 -1 -1</clus>
<clus scale="   89.387">  7  8 -1 -1</clus>
<clus scale="  106.653">  1  5  2 -1</clus>
<clus scale="   64.601">  1  5  2 -1</clus>
</clustering>
</event>
<event>
 9    1  0.1464797E-005  0.1370393E+03  0.7546771E-02  0.1220455E+00
         -3   -1    0    0    0  501 -0.00000000000E+00  0.00000000000E+00  0.20478380033E+03  0.20478380033E+03  0.00000000000E+00 0.  1.
         21   -1    0    0  501  502  0.00000000000E+00 -0.00000000000E+00 -0.12935034533E+03  0.12935034533E+03  0.00000000000E+00 0.  1.
         23    2    1    2    0    0 -0.11421434739E+02 -0.79187111081E+02  0.73239399558E+02  0.15060694140E+03  0.10448633125E+03 0.  0.
         23    2    1    2    0    0  0.45228457594E+02  0.94446613406E+02  0.21634262823E+02  0.14165013572E+03  0.92902871116E+02 0.  0.
        -11    1    4    4    0    0  0.15439409067E+02 -0.14115837040E+02  0.20178401414E+02  0.29065444970E+02  0.00000000000E+00 0. -1.
         11    1    4    4    0    0  0.29789048527E+02  0.10856245045E+03  0.14558614096E+01  0.11258469075E+03  0.00000000000E+00 0.  1.
        -13    1    3    3    0    0  0.26272917268E+02  0.13529521378E+02  0.63495264795E+01  0.30226323246E+02  0.00000000000E+00 0. -1.
         13    1    3    3    0    0 -0.37694352007E+02 -0.92716632459E+02  0.66889873078E+02  0.12038061816E+03  0.00000000000E+00 0.  1.
         -3    1    1    2    0  502 -0.33807022855E+02 -0.15259502324E+02 -0.19440207379E+02  0.41877068527E+02  0.00000000000E+00 0.  1.
<scales pt_clust_5="13000.00000" pt_clust_6="13000.00000" pt_clust_7="13000.00000" pt_clust_8="13000.00000" pt_clust_9="37.09134"></scales>
<clustering>
<clus scale="   37.091">  2  9  1 -1</clus>
<clus scale="   92.903">  5  6 -1 -1</clus>
<clus scale="  104.486">  7  8 -1 -1</clus>
<clus scale="  128.426">  2  5  1 -1</clus>
<clus scale="   37.091">  2  5  1 -1</clus>
</clustering>
</event>
<event>
 9    1  0.1464797E-005  0.1584323E+03  0.7546771E-02  0.1190769E+00
         -2   -1    0    0    0  501 -0.00000000000E+00  0.00000000000E+00  0.33568806902E+03  0.33568806902E+03  0.00000000000E+00 0.  1.
         21   -1    0    0  501  502  0.00000000000E+00 -0.00000000000E+00 -0.54792891972E+03  0.54792891972E+03  0.00000000000E+00 0. -1.
         23    2    1    2    0    0 -0.13086200254E+02  0.12539824969E+03  0.27904716450E+03  0.31957723660E+03  0.91467592470E+02 0.  0.
         23    2    1    2    0    0  0.38337894127E+02 -0.18398954949E+03 -0.32569833827E+03  0.38658404060E+03  0.89698742720E+02 0.  0.
        -11    1    4    4    0    0 -0.14397507142E+02 -0.41085514123E+02 -0.13884270659E+03  0.14550809207E+03  0.00000000000E+00 0.  1.
         11    1    4    4    0    0  0.52735401269E+02 -0.14290403537E+03 -0.18685563168E+03  0.24107594854E+03  0.00000000000E+00 0. -1.
        -13    1    3    3    0    0 -0.16217952328E+02  0.29626325062E+02  0.17458693225E+03  0.17782389611E+03  0.00000000000E+00 0.  1.
         13    1    3    3    0    0  0.31317520742E+01  0.95771924628E+02  0.10446023225E+03  0.14175334049E+03  0.00000000000E+00 0. -1.
         -2    1    1    2    0  502 -0.25251693873E+02  0.58591299801E+02 -0.16558967692E+03  0.17745571154E+03  0.00000000000E+00 0.  1.
<scales pt_clust_5="13000.00000" pt_clust_6="13000.00000" pt_clust_7="13000.00000" pt_clust_8="13000.00000" pt_clust_9="63.80116"></scales>
<clustering>
<clus scale="   63.801">  2  9  1 -1</clus>
<clus scale="   89.699">  5  6 -1 -1</clus>
<clus scale="   91.468">  7  8 -1 -1</clus>
<clus scale="  157.418">  2  5  1 -1</clus>
<clus scale="   63.801">  2  5  1 -1</clus>
</clustering>
</event>
<event>
 9    1  0.1464797E-005  0.1070614E+03  0.7546771E-02  0.1274605E+00
         21   -1    0    0  501  502  0.00000000000E+00  0.00000000000E+00  0.26580398063E+03  0.26580398063E+03  0.00000000000E+00 0.  1.
         -2   -1    0    0    0  501 -0.00000000000E+00 -0.00000000000E+00 -0.31667537129E+03  0.31667537129E+03  0.00000000000E+00 0.  1.
         23    2    1    2    0    0  0.24498874325E+01 -0.19222404075E+01 -0.16687732879E+03  0.18918657384E+03  0.89071992804E+02 0.  0.
         23    2    1    2    0    0  0.63950044114E+02 -0.53322702921E+02 -0.95446415794E+02  0.16487856518E+03  0.10555569232E+03 0.  0.
        -11    1    4    4    0    0  0.84225254252E+02 -0.66881263328E+02 -0.89131760769E+02  0.13968345505E+03  0.00000000000E+00 0.  1.
         11    1    4    4    0    0 -0.20275210138E+02  0.13558560406E+02 -0.63146550249E+01  0.25195110131E+02  0.00000000000E+00 0. -1.
        -11    1    3    3    0    0 -0.40711472891E+02 -0.92614045889E+01 -0.55031536180E+02  0.69077258300E+02  0.00000000000E+00 0. -1.
         11    1    3    3    0    0  0.43161360323E+02  0.73391641814E+01 -0.11184579261E+03  0.12010931554E+03  0.00000000000E+00 0.  1.
         -2    1    1    2    0  502 -0.66399931546E+02  0.55244943329E+02  0.21145235392E+03  0.22841421289E+03  0.00000000000E+00 0.  1.
<scales pt_clust_5="13000.00000" pt_clust_6="13000.00000" pt_clust_7="13000.00000" pt_clust_8="13000.00000" pt_clust_9="86.37682"></scales>
<clustering>
<clus scale="   86.377">  1  9  2 -1</clus>
<clus scale="   89.072">  7  8 -1 -1</clus>
<clus scale="   90.851">  2  7  1 -1</clus>
<clus scale="  105.556">  5  6 -1 -1</clus>
<clus scale="   86.377">  1  5  2 -1</clus>
</clustering>
</event>
<event>
 9    1  0.1464797E-005  0.1414201E+03  0.7546771E-02  0.1211823E+00
         21   -1    0    0  501  502  0.00000000000E+00  0.00000000000E+00  0.13111890799E+03  0.13111890799E+03  0.00000000000E+00 0. -1.
          2   -1    0    0  502    0 -0.00000000000E+00 -0.00000000000E+00 -0.43658295508E+03  0.43658295508E+03  0.00000000000E+00 0. -1.
         23    2    1    2    0    0 -0.52572963293E+02  0.82295331838E+02 -0.20174525072E+03  0.24244630478E+03  0.92426329594E+02 0.  0.
         23    2    1    2    0    0  0.89672141935E+02 -0.82400840361E+02 -0.18297655063E+03  0.23774469154E+03  0.90615278759E+02 0.  0.
        -11    1    3    3    0    0 -0.20048512376E+01  0.24262239896E+02 -0.14445595285E+03  0.14649299651E+03  0.00000000000E+00 0.  1.
         11    1    3    3    0    0 -0.50568112056E+02  0.58033091943E+02 -0.57289297868E+02  0.95953308268E+02  0.00000000000E+00 0. -1.
        -11    1    4    4    0    0  0.96145893892E+02 -0.61699638999E+02 -0.18337726350E+03  0.21605114935E+03  0.00000000000E+00 0. -1.
         11    1    4    4    0    0 -0.64737519569E+01 -0.20701201362E+02  0.40071286903E+00  0.21693542197E+02  0.00000000000E+00 0.  1.
          2    1    1    2  501    0 -0.37099178642E+02  0.10550852265E+00  0.79257754264E+02  0.87510866747E+02  0.00000000000E+00 0. -1.
<scales pt_clust_5="13000.00000" pt_clust_6="13000.00000" pt_clust_7="13000.00000" pt_clust_8="13000.00000" pt_clust_9="37.09933"></scales>
<clustering>
<clus scale="   37.099">  1  9  2 -1</clus>
<clus scale="   90.615">  7  8 -1 -1</clus>
<clus scale="   92.426">  5  6 -1 -1</clus>
<clus scale="  140.243">  1  7  2 -1</clus>
<clus scale="   37.099">  1  5  2 -1</clus>
</clustering>
</event>
<event>
 9    1  0.1464797E-005  0.1395417E+03  0.7546771E-02  0.1214702E+00
          4   -1    0    0  502    0 -0.00000000000E+00  0.00000000000E+00  0.31038050359E+03  0.31038050359E+03  0.00000000000E+00 0. -1.
         21   -1    0    0  501  502  0.00000000000E+00 -0.00000000000E+00 -0.31864816470E+03  0.31864816470E+03  0.00000000000E+00 0.  1.
         23    2    1    2    0    0  0.73903425194E+02 -0.68106289262E+02  0.24283579159E+03  0.27859667972E+03  0.92448393069E+02 0.  0.
         23    2    1    2    0    0 -0.10739326519E+03  0.83888595716E+02 -0.91834301242E+02  0.18691650555E+03  0.89070933894E+02 0.  0.
        -11    1    4    4    0    0 -0.94397142129E+02  0.19534725531E+02 -0.63353390477E+02  0.11535197453E+03  0.00000000000E+00 0.  1.
         11    1    4    4    0    0 -0.12996123061E+02  0.64353870185E+02 -0.28480910765E+02  0.71564531022E+02  0.00000000000E+00 0. -1.
        -13    1    3    3    0    0  0.65982057105E+02 -0.11421720264E+02  0.71532381872E+02  0.97984535565E+02  0.00000000000E+00 0.  1.
         13    1    3    3    0    0  0.79213680889E+01 -0.56684568997E+02  0.17130340972E+03  0.18061214416E+03  0.00000000000E+00 0. -1.
          4    1    1    2  501    0  0.33489839995E+02 -0.15782306454E+02 -0.15926915145E+03  0.16351548301E+03  0.00000000000E+00 0. -1.
<scales pt_clust_5="13000.00000" pt_clust_6="13000.00000" pt_clust_7="13000.00000" pt_clust_8="13000.00000" pt_clust_9="37.02230"></scales>
<clustering>
<clus scale="   37.022">  2  9  1 -1</clus>
<clus scale="   89.071">  5  6 -1 -1</clus>
<clus scale="   92.448">  7  8 -1 -1</clus>
<clus scale="  137.327">  2  5  1 -1</clus>
<clus scale="   37.022">  2  5  1 -1</clus>
</clustering>
</event>
<event>
 9    1  0.1464797E-005  0.1996971E+03  0.7546771E-02  0.1150163E+00
         21   -1    0    0  501  502  0.00000000000E+00  0.00000000000E+00  0.95827656515E+02  0.95827656515E+02  0.00000000000E+00 0. -1.
          2   -1    0    0  502    0 -0.00000000000E+00 -0.00000000000E+00 -0.14400889385E+04  0.14400889385E+04  0.00000000000E+00 0. -1.
         23    2    1    2    0    0  0.54735498708E+02 -0.17309773559E+03 -0.87781005713E+03  0.90102761527E+03  0.91331627623E+02 0.  0.
         23    2    1    2    0    0 -0.75838212763E+02  0.15294780254E+03 -0.53022949602E+03  0.56475330974E+03  0.93051155823E+02 0.  0.
        -11    1    3    3    0    0  0.14453808239E+02 -0.14982499414E+03 -0.75142508329E+03  0.76635246280E+03  0.00000000000E+00 0.  1.
         11    1    3    3    0    0  0.40281690469E+02 -0.23272741450E+02 -0.12638497383E+03  0.13467515247E+03  0.00000000000E+00 0. -1.
        -13    1    4    4    0    0 -0.69171301522E+02  0.10388288891E+03 -0.24185235247E+03  0.27215599196E+03  0.00000000000E+00 0. -1.
         13    1    4    4    0    0 -0.66669112410E+01  0.49064913637E+02 -0.28837714355E+03  0.29259731779E+03  0.00000000000E+00 0.  1.
          2    1    1    2  501    0  0.21102714055E+02  0.20149933041E+02  0.63778271131E+02  0.70135670029E+02  0.00000000000E+00 0. -1.
<scales pt_clust_5="13000.00000" pt_clust_6="13000.00000" pt_clust_7="13000.00000" pt_clust_8="13000.00000" pt_clust_9="29.17781"></scales>
<clustering>
<clus scale="   29.178">  1  9  2 -1</clus>
<clus scale="   91.332">  5  6 -1 -1</clus>
<clus scale="   93.051">  7  8 -1 -1</clus>
<clus scale="  198.902">  2  5  1 -1</clus>
<clus scale="   29.178">  1  5  2 -1</clus>
</clustering>
</event>
<event>
 9    1  0.1464797E-005  0.1817816E+03  0.7546771E-02  0.1194948E+00
          2   -1    0    0  502    0 -0.00000000000E+00  0.00000000000E+00  0.18939304121E+03  0.18939304121E+03  0.00000000000E+00 0. -1.
         21   -1    0    0  501  502  0.00000000000E+00 -0.00000000000E+00 -0.94453082128E+03  0.94453082128E+03  0.00000000000E+00 0. -1.
         23    2    1    2    0    0 -0.60272808913E+00 -0.28594675957E+02 -0.36576601069E+03  0.37791905313E+03  0.90664311436E+02 0.  0.
         23    2    1    2    0    0  0.66347790932E+02  0.17037553343E+03  0.11083994320E+03  0.23194757753E+03  0.89912924321E+02 0.  0.
        -11    1    4    4    0    0  0.86572508782E+02  0.12256161093E+03  0.68471213783E+02  0.16493773027E+03  0.00000000000E+00 0. -1.
         11    1    4    4    0    0 -0.20224717850E+02  0.47813922507E+02  0.42368729415E+02  0.67009847261E+02  0.00000000000E+00 0.  1.
        -13    1    3    3    0    0 -0.44604518258E+02 -0.23508646218E+02 -0.17837908170E+03  0.18536805627E+03  0.00000000000E+00 0.  1.
         13    1    3    3    0    0  0.44001790169E+02 -0.50860297384E+01 -0.18738692899E+03  0.19255099686E+03  0.00000000000E+00 0. -1.
          2    1    1    2  501    0 -0.65745062843E+02 -0.14178085748E+03 -0.50021171258E+03  0.52405723184E+03  0.00000000000E+00 0. -1.
<scales pt_clust_5="13000.00000" pt_clust_6="13000.00000" pt_clust_7="13000.00000" pt_clust_8="13000.00000" pt_clust_9="157.98798"></scales>
<clustering>
<clus scale="   89.913">  5  6 -1 -1</clus>
<clus scale="   90.664">  7  8 -1 -1</clus>
<clus scale="   95.069">  1  7  2 -1</clus>
<clus scale="  157.988">  2  9  1 -1</clus>
<clus scale="  157.988">  2  5  1 -1</clus>
</clustering>
</event>
<event>
 9    1  0.1464797E-005  0.1100080E+03  0.7546771E-02  0.1261233E+00
          1   -1    0    0  502    0 -0.00000000000E+00  0.00000000000E+00  0.28186067874E+02  0.28186067874E+02  0.00000000000E+00 0. -1.
         21   -1    0    0  501  502  0.00000000000E+00 -0.00000000000E+00 -0.64222049292E+03  0.64222049292E+03  0.00000000000E+00 0.  1.
         23    2    1    2    0    0 -0.42962710250E+01  0.62648454905E+02 -0.13407694865E+03  0.17324349612E+03  0.89963292187E+02 0.  0.
         23    2    1    2    0    0  0.22844918928E+02 -0.53205297310E+02 -0.38760636531E+03  0.40249547105E+03  0.91712680711E+02 0.  0.
        -11    1    4    4    0    0 -0.29707189339E+02 -0.30544688587E+02 -0.91833939045E+02  0.10123718418E+03  0.00000000000E+00 0. -1.
         11    1    4    4    0    0  0.52552108267E+02 -0.22660608723E+02 -0.29577242627E+03  0.30125828687E+03  0.00000000000E+00 0.  1.
        -11    1    3    3    0    0 -0.34040548510E+02  0.35129582027E+02 -0.21199353263E+02  0.53312841371E+02  0.00000000000E+00 0. -1.
         11    1    3    3    0    0  0.29744277485E+02  0.27518872877E+02 -0.11287759539E+03  0.11993065475E+03  0.00000000000E+00 0.  1.
          1    1    1    2  501    0 -0.18548647903E+02 -0.94431575947E+01 -0.92351111087E+02  0.94667593629E+02  0.00000000000E+00 0. -1.
<scales pt_clust_5="13000.00000" pt_clust_6="13000.00000" pt_clust_7="13000.00000" pt_clust_8="13000.00000" pt_clust_9="20.81407"></scales>
<clustering>
<clus scale="   20.814">  2  9  1 -1</clus>
<clus scale="   89.963">  7  8 -1 -1</clus>
<clus scale="   91.713">  5  6 -1 -1</clus>
<clus scale="  108.554">  1  7  2 -1</clus>
<clus scale="   20.814">  2  5  1 -1</clus>
</clustering>
</event>
<event>
 9    1  0.1464797E-005  0.1260802E+03  0.7546771E-02  0.1234041E+00
         21   -1    0    0  501  502  0.00000000000E+00  0.00000000000E+00  0.50713971694E+03  0.50713971694E+03  0.00000000000E+00 0.  1.
          1   -1    0    0  502    0 -0.00000000000E+00 -0.00000000000E+00 -0.53380333506E+02  0.53380333506E+02  0.00000000000E+00 0. -1.
         23    2    1    2    0    0  0.67958972738E+02  0.47173373943E+02  0.10831108687E+03  0.16366637532E+03  0.90618109043E+02 0.  0.
         23    2    1    2    0    0 -0.62819900719E+02 -0.82346815133E+02  0.33206760905E+03  0.35887178702E+03  0.88276410469E+02 0.  0.
        -13    1    4    4    0    0 -0.24185230370E+02 -0.77581123414E+02  0.13166725651E+03  0.15472563626E+03  0.00000000000E+00 0. -1.
         13    1    4    4    0    0 -0.38634670350E+02 -0.47656917190E+01  0.20040035254E+03  0.20414615076E+03  0.00000000000E+00 0.  1.
        -13    1    3    3    0    0  0.78046271688E+02  0.37688317316E+01  0.68535106153E+02  0.10393500562E+03  0.00000000000E+00 0.  1.
         13    1    3    3    0    0 -0.10087298950E+02  0.43404542211E+02  0.39775980716E+02  0.59731369703E+02  0.00000000000E+00 0. -1.
          1    1    1    2  501    0 -0.51390720192E+01  0.35173441191E+02  0.13380687516E+02  0.37981888115E+02  0.00000000000E+00 0. -1.
<scales pt_clust_5="13000.00000" pt_clust_6="13000.00000" pt_clust_7="13000.00000" pt_clust_8="13000.00000" pt_clust_9="35.54690"></scales>
<clustering>
<clus scale="   35.547">  1  9  2 -1</clus>
<clus scale="   88.276">  5  6 -1 -1</clus>
<clus scale="   90.618">  7  8 -1 -1</clus>
<clus scale="  124.408">  1  5  2 -1</clus>
<clus scale="   35.547">  1  5  2 -1</clus>
</clustering>
</event>
<event>
 9    1  0.1464797E-005  0.1959335E+03  0.7546771E-02  0.1182238E+00
         21   -1    0    0  501  502  0.00000000000E+00  0.00000000000E+00  0.13841398053E+03  0.13841398053E+03  0.00000000000E+00 0. -1.
          2   -1    0    0  502    0 -0.00000000000E+00 -0.00000000000E+00 -0.47233244068E+03  0.47233244068E+03  0.00000000000E+00 0. -1.
         23    2    1    2    0    0  0.41729738784E+02  0.35887062127E+02 -0.18039944411E+03  0.20655486131E+03  0.84212225767E+02 0.  0.
         23    2    1    2    0    0  0.13348863095E+03 -0.95547202156E+02 -0.94121169033E+02  0.20979785211E+03  0.90597250831E+02 0.  0.
        -11    1    3    3    0    0  0.66877055980E+02  0.29534925169E+02 -0.14782654377E+03  0.16491676526E+03  0.00000000000E+00 0. -1.
         11    1    3    3    0    0 -0.25147317195E+02  0.63521369579E+01 -0.32572900342E+02  0.41638096051E+02  0.00000000000E+00 0.  1.
        -11    1    4    4    0    0  0.14603586394E+03 -0.77097515515E+02 -0.84475330554E+02  0.18549011275E+03  0.00000000000E+00 0. -1.
         11    1    4    4    0    0 -0.12547232993E+02 -0.18449686641E+02 -0.96458384788E+01  0.24307739362E+02  0.00000000000E+00 0.  1.
          2    1    1    2  501    0 -0.17521836973E+03  0.59660140029E+02 -0.59397847005E+02  0.19439370779E+03  0.00000000000E+00 0. -1.
<scales pt_clust_5="13000.00000" pt_clust_6="13000.00000" pt_clust_7="13000.00000" pt_clust_8="13000.00000" pt_clust_9="173.72988"></scales>
<clustering>
<clus scale="   84.212">  5  6 -1 -1</clus>
<clus scale="   90.597">  7  8 -1 -1</clus>
<clus scale="  100.603">  2  5  1 -1</clus>
<clus scale="  173.730">  1  9  2 -1</clus>
<clus scale="  173.730">  1  5  2 -1</clus>
</clustering>
</event>
<event>
 9    1  0.1464797E-005  0.3234229E+03  0.7546771E-02  0.1074517E+00
         21   -1    0    0  501  502  0.00000000000E+00  0.00000000000E+00  0.11412564015E+04  0.11412564015E+04  0.00000000000E+00 0.  1.
         -1   -1    0    0    0  501 -0.00000000000E+00 -0.00000000000E+00 -0.18871738349E+03  0.18871738349E+03  0.00000000000E+00 0.  1.
         23    2    1    2    0    0  0.22797427105E+03  0.59577658329E+02  0.29763493759E+03  0.38792414674E+03  0.79855005580E+02 0.  0.
         23    2    1    2    0    0 -0.36976496308E+03 -0.23661437616E+03  0.46357123062E+03  0.64530924797E+03  0.93878904620E+02 0.  0.
        -11    1    3    3    0    0  0.14205829169E+03  0.33808497316E+02  0.12030953779E+03  0.18920348203E+03  0.00000000000E+00 0. -1.
         11    1    3    3    0    0  0.85915979364E+02  0.25769161013E+02  0.17732539980E+03  0.19872066471E+03  0.00000000000E+00 0.  1.
        -13    1    4    4    0    0 -0.28263999274E+03 -0.22020586508E+03  0.39449924551E+03  0.53292179841E+03  0.00000000000E+00 0.  1.
         13    1    4    4    0    0 -0.87124970336E+02 -0.16408511085E+02  0.69071985106E+02  0.11238744956E+03  0.00000000000E+00 0. -1.
         -1    1    1    2    0  502  0.14179069203E+03  0.17703671783E+03  0.19133284980E+03  0.29674039027E+03  0.00000000000E+00 0.  1.
<scales pt_clust_5="13000.00000" pt_clust_6="13000.00000" pt_clust_7="13000.00000" pt_clust_8="13000.00000" pt_clust_9="226.81854"></scales>
<clustering>
<clus scale="   79.855">  5  6 -1 -1</clus>
<clus scale="   93.879">  7  8 -1 -1</clus>
<clus scale="  226.819">  1  9  2 -1</clus>
<clus scale="  319.634">  2  5  1 -1</clus>
<clus scale="  226.819">  1  5  2 -1</clus>
</clustering>
</event>
<event>
 9    1  0.1464797E-005  0.9431304E+02  0.7546771E-02  0.1298457E+00
         21   -1    0    0  501  502  0.00000000000E+00  0.00000000000E+00  0.64167627788E+02  0.64167627788E+02  0.00000000000E+00 0.  1.
          1   -1    0    0  502    0 -0.00000000000E+00 -0.00000000000E+00 -0.41671283111E+03  0.41671283111E+03  0.00000000000E+00 0. -1.
         23    2    1    2    0    0  0.18554707395E+02  0.22328518755E+02 -0.29742718157E+03  0.31304812374E+03  0.93238187054E+02 0.  0.
         23    2    1    2    0    0  0.15977071791E+02  0.23483832846E+02 -0.64968930212E+02  0.10962360960E+03  0.83603927301E+02 0.  0.
        -11    1    3    3    0    0 -0.21676923022E+02  0.43949183804E+02 -0.19195699010E+03  0.19811336602E+03  0.00000000000E+00 0.  1.
         11    1    3    3    0    0  0.40231630417E+02 -0.21620665048E+02 -0.10547019147E+03  0.11493475772E+03  0.00000000000E+00 0. -1.
        -13    1    4    4    0    0  0.38682304655E+02  0.22762733253E+02 -0.45950335605E+01  0.45117369737E+02  0.00000000000E+00 0.  1.
         13    1    4    4    0    0 -0.22705232864E+02  0.72109959265E+00 -0.60373896652E+02  0.64506239861E+02  0.00000000000E+00 0. -1.
          1    1    1    2  501    0 -0.34531779186E+02 -0.45812351601E+02  0.98509084658E+01  0.58208725553E+02  0.00000000000E+00 0. -1.
<scales pt_clust_5="13000.00000" pt_clust_6="13000.00000" pt_clust_7="13000.00000" pt_clust_8="13000.00000" pt_clust_9="57.36911"></scales>
<clustering>
<clus scale="   57.369">  1  9  2 -1</clus>
<clus scale="   83.604">  7  8 -1 -1</clus>
<clus scale="   84.801">  1  7  2 -1</clus>
<clus scale="   93.238">  5  6 -1 -1</clus>
<clus scale="   57.369">  1  5  2 -1</clus>
</clustering>
</event>
<event>
 9    1  0.1464797E-005  0.1000866E+03  0.7546771E-02  0.1283122E+00
         21   -1    0    0  501  502  0.00000000000E+00  0.00000000000E+00  0.46588645257E+03  0.46588645257E+03  0.00000000000E+00 0.  1.
         -2   -1    0    0    0  501 -0.00000000000E+00 -0.00000000000E+00 -0.47300210371E+02  0.47300210371E+02  0.00000000000E+00 0.  1.
         23    2    1    2    0    0  0.40283473229E+01  0.44417117693E+02  0.29751828085E+02  0.10594134678E+03  0.91374448056E+02 0.  0.
         23    2    1    2    0    0  0.11833797882E+02 -0.27901169100E+02  0.23683213961E+03  0.25352779711E+03  0.85254721542E+02 0.  0.
        -13    1    4    4    0    0  0.33078814910E+02 -0.16105922175E+01  0.32438112894E+02  0.46357665723E+02  0.00000000000E+00 0.  1.
         13    1    4    4    0    0 -0.21245017029E+02 -0.26290576883E+02  0.20439402672E+03  0.20717013139E+03  0.00000000000E+00 0. -1.
        -13    1    3    3    0    0  0.41323571967E+02  0.47151024363E+02  0.94933733228E+01  0.63411204339E+02  0.00000000000E+00 0.  1.
         13    1    3    3    0    0 -0.37295224645E+02 -0.27339066700E+01  0.20258454763E+02  0.42530142444E+02  0.00000000000E+00 0. -1.
         -2    1    1    2    0  502 -0.15862145204E+02 -0.16515948593E+02  0.15200227450E+03  0.15371751905E+03  0.00000000000E+00 0.  1.
<scales pt_clust_5="13000.00000" pt_clust_6="13000.00000" pt_clust_7="13000.00000" pt_clust_8="13000.00000" pt_clust_9="22.89944"></scales>
<clustering>
<clus scale="   22.899">  1  9  2 -1</clus>
<clus scale="   85.255">  5  6 -1 -1</clus>
<clus scale="   91.374">  7  8 -1 -1</clus>
<clus scale="   94.533">  1  5  2 -1</clus>
<clus scale="   22.899">  1  5  2 -1</clus>
</clustering>
</event>
<event>
 9    1  0.1464797E-005  0.1846687E+03  0.7546771E-02  0.1164400E+00
          1   -1    0    0  502    0 -0.00000000000E+00  0.00000000000E+00  0.48984295147E+03  0.48984295147E+03  0.00000000000E+00 0. -1.
         21   -1    0    0  501  502  0.00000000000E+00 -0.00000000000E+00 -0.87931369432E+02  0.87931369432E+02  0.00000000000E+00 0.  1.
         23    2    1    2    0    0  0.52974403430E+02 -0.14884080211E+03  0.27673219317E+03  0.32929331460E+03  0.83027155291E+02 0.  0.
         23    2    1    2    0    0 -0.36151991077E+02  0.16065579544E+03  0.12756701639E+03  0.22778587667E+03  0.92172723034E+02 0.  0.
        -11    1    3    3    0    0  0.65873379058E+01 -0.11778170195E+03  0.22040727639E+03  0.24999057946E+03  0.00000000000E+00 0. -1.
         11    1    3    3    0    0  0.46387065524E+02 -0.31059100159E+02  0.56324916777E+02  0.79302735140E+02  0.00000000000E+00 0.  1.
        -13    1    4    4    0    0 -0.25091029388E+02  0.27584383978E+02  0.75980265961E+02  0.84637218827E+02  0.00000000000E+00 0. -1.
         13    1    4    4    0    0 -0.11060961689E+02  0.13307141147E+03  0.51586750433E+02  0.14314865785E+03  0.00000000000E+00 0.  1.
          1    1    1    2  501    0 -0.16822412353E+02 -0.11814993334E+02 -0.23876275250E+01  0.20695129622E+02  0.00000000000E+00 0. -1.
<scales pt_clust_5="13000.00000" pt_clust_6="13000.00000" pt_clust_7="13000.00000" pt_clust_8="13000.00000" pt_clust_9="20.55694"></scales>
<clustering>
<clus scale="   20.557">  2  9  1 -1</clus>
<clus scale="   83.027">  5  6 -1 -1</clus>
<clus scale="   92.173">  7  8 -1 -1</clus>
<clus scale="  180.278">  1  5  2 -1</clus>
<clus scale="   20.557">  2  5  1 -1</clus>
</clustering>
</event>
<event>
 9    1  0.1464797E-005  0.9689210E+02  0.7546771E-02  0.1287105E+00
         21   -1    0    0  501  502  0.00000000000E+00  0.00000000000E+00  0.46159233331E+03  0.46159233331E+03  0.00000000000E+00 0. -1.
         -3   -1    0    0    0  501 -0.00000000000E+00 -0.00000000000E+00 -0.29421668514E+02  0.29421668514E+02  0.00000000000E+00 0.  1.
         23    2    1    2    0    0 -0.18238292971E+02 -0.13087562155E+02  0.16264584110E+03  0.18755589987E+03  0.90662154926E+02 0.  0.
         23    2    1    2    0    0  0.49152142497E+02  0.15780436619E+02  0.23506985225E+03  0.25708933312E+03  0.90399858832E+02 0.  0.
        -13    1    3    3    0    0 -0.46207028854E+02  0.83700414385E+01  0.13445147819E+03  0.14241610546E+03  0.00000000000E+00 0. -1.
         13    1    3    3    0    0  0.27968735883E+02 -0.21457603593E+02  0.28194362910E+02  0.45139794403E+02  0.00000000000E+00 0.  1.
        -13    1    4    4    0    0  0.34681643542E+02  0.49990249573E+02  0.18498505548E+03  0.19473395236E+03  0.00000000000E+00 0. -1.
         13    1    4    4    0    0  0.14470498955E+02 -0.34209812955E+02  0.50084796767E+02  0.62355380759E+02  0.00000000000E+00 0.  1.
         -3    1    1    2    0  502 -0.30913849526E+02 -0.26928744637E+01  0.34454971450E+02  0.46368768832E+02  0.00000000000E+00 0.  1.
<scales pt_clust_5="13000.00000" pt_clust_6="13000.00000" pt_clust_7="13000.00000" pt_clust_8="13000.00000" pt_clust_9="31.03093"></scales>
<clustering>
<clus scale="   31.031">  1  9  2 -1</clus>
<clus scale="   90.400">  7  8 -1 -1</clus>
<clus scale="   90.662">  5  6 -1 -1</clus>
<clus scale="   96.647">  1  7  2 -1</clus>
<clus scale="   31.031">  1  5  2 -1</clus>
</clustering>
</event>
<event>
 9    1  0.1464797E-005  0.2541079E+03  0.7546771E-02  0.1110879E+00
          2   -1    0    0  502    0 -0.00000000000E+00  0.00000000000E+00  0.79611968813E+03  0.79611968813E+03  0.00000000000E+00 0. -1.
         21   -1    0    0  501  502  0.00000000000E+00 -0.00000000000E+00 -0.14902213645E+03  0.14902213645E+03  0.00000000000E+00 0. -1.
         23    2    1    2    0    0  0.28091128776E+03  0.74949001015E+02  0.51140777855E+03  0.59557710063E+03  0.92982054647E+02 0.  0.
         23    2    1    2    0    0 -0.16541295521E+03 -0.30852408399E+02  0.11836835579E+03  0.22472720635E+03  0.90431923379E+02 0.  0.
        -11    1    3    3    0    0  0.21713091218E+03  0.96827154967E+02  0.40377834656E+03  0.46857046868E+03  0.00000000000E+00 0. -1.
         11    1    3    3    0    0  0.63780375586E+02 -0.21878153952E+02  0.10762943198E+03  0.12700663195E+03  0.00000000000E+00 0.  1.
        -13    1    4    4    0    0 -0.56904979985E+02  0.13191962739E+02  0.27537076967E+00  0.58414728083E+02  0.00000000000E+00 0. -1.
         13    1    4    4    0    0 -0.10850797523E+03 -0.44044371137E+02  0.11809298502E+03  0.16631247827E+03  0.00000000000E+00 0.  1.
          2    1    1    2  501    0 -0.11549833255E+03 -0.44096592617E+02  0.17321417349E+02  0.12483751760E+03  0.00000000000E+00 0. -1.
<scales pt_clust_5="13000.00000" pt_clust_6="13000.00000" pt_clust_7="13000.00000" pt_clust_8="13000.00000" pt_clust_9="123.62999"></scales>
<clustering>
<clus scale="   90.432">  7  8 -1 -1</clus>
<clus scale="   92.982">  5  6 -1 -1</clus>
<clus scale="  123.630">  2  9  1 -1</clus>
<clus scale="  253.186">  2  7  1 -1</clus>
<clus scale="  123.630">  2  5  1 -1</clus>
</clustering>
</event>
<event>
 9    1  0.1464797E-005  0.9375620E+02  0.7546771E-02  0.1294075E+00
         -4   -1    0    0    0  501 -0.00000000000E+00  0.00000000000E+00  0.13917377313E+03  0.13917377313E+03  0.00000000000E+00 0.  1.
         21   -1    0    0  501  502  0.00000000000E+00 -0.00000000000E+00 -0.31170634954E+03  0.31170634954E+03  0.00000000000E+00 0.  1.
         23    2    1    2    0    0 -0.78819483145E+01 -0.78922441846E+01  0.77526748556E+02  0.12037262851E+03  0.91404378038E+02 0.  0.
         23    2    1    2    0    0  0.80042618999E+02  0.49411869100E+02 -0.13175620204E+03  0.18584695863E+03  0.91274539667E+02 0.  0.
        -11    1    3    3    0    0  0.29557404230E+02 -0.30806191781E+02  0.58765742211E+02  0.72636588952E+02  0.00000000000E+00 0.  1.
         11    1    3    3    0    0 -0.37439352545E+02  0.22913947596E+02  0.18761006345E+02  0.47736039556E+02  0.00000000000E+00 0. -1.
        -11    1    4    4    0    0  0.37859452340E+02  0.63425098517E+02 -0.40258920121E+02  0.84124086341E+02  0.00000000000E+00 0.  1.
         11    1    4    4    0    0  0.42183166659E+02 -0.14013229418E+02 -0.91497281915E+02  0.10172287228E+03  0.00000000000E+00 0. -1.
         -4    1    1    2    0  502 -0.72160670685E+02 -0.41519624915E+02 -0.11830312293E+03  0.14466053554E+03  0.00000000000E+00 0.  1.
<scales pt_clust_5="13000.00000" pt_clust_6="13000.00000" pt_clust_7="13000.00000" pt_clust_8="13000.00000" pt_clust_9="83.25288"></scales>
<clustering>
<clus scale="   83.253">  2  9  1 -1</clus>
<clus scale="   91.275">  7  8 -1 -1</clus>
<clus scale="   91.404">  5  6 -1 -1</clus>
<clus scale="   93.630">  2  7  1 -1</clus>
<clus scale="   83.253">  2  5  1 -1</clus>
</clustering>
</event>
<event>
 9    1  0.1464797E-005  0.1376697E+03  0.7546771E-02  0.1228745E+00
          1   -1    0    0  502    0 -0.00000000000E+00  0.00000000000E+00  0.16544848463E+03  0.16544848463E+03  0.00000000000E+00 0. -1.
         21   -1    0    0  501  502  0.00000000000E+00 -0.00000000000E+00 -0.23885484101E+03  0.23885484101E+03  0.00000000000E+00 0. -1.
         23    2    1    2    0    0 -0.44200372688E+02  0.38626143904E+02  0.62426264281E+01  0.10675821368E+03  0.88953324080E+02 0.  0.
         23    2    1    2    0    0 -0.68942097539E+01  0.61180434132E+02  0.53631421214E+02  0.12337371514E+03  0.92488748487E+02 0.  0.
        -11    1    4    4    0    0  0.30666119040E+02  0.59848684138E+02  0.13875157958E+02  0.68664371098E+02  0.00000000000E+00 0.  1.
         11    1    4    4    0    0 -0.37560328793E+02  0.13317499944E+01  0.39756263256E+02  0.54709344039E+02  0.00000000000E+00 0. -1.
        -13    1    3    3    0    0  0.25259836801E+02 -0.31338588544E+01 -0.21430681817E+00  0.25454397537E+02  0.00000000000E+00 0.  1.
         13    1    3    3    0    0 -0.69460209489E+02  0.41760002758E+02  0.64569332463E+01  0.81303816144E+02  0.00000000000E+00 0. -1.
          1    1    1    2  501    0  0.51094582442E+02 -0.99806578036E+02 -0.13328040402E+03  0.17417139682E+03  0.00000000000E+00 0. -1.
<scales pt_clust_5="13000.00000" pt_clust_6="13000.00000" pt_clust_7="13000.00000" pt_clust_8="13000.00000" pt_clust_9="101.97444"></scales>
<clustering>
<clus scale="   88.953">  7  8 -1 -1</clus>
<clus scale="   92.489">  5  6 -1 -1</clus>
<clus scale="  106.576">  1  7  2 -1</clus>
<clus scale="  101.974">  2  9  1 -1</clus>
<clus scale="  101.974">  2  5  1 -1</clus>
</clustering>
</event>
<event>
 9    1  0.1464797E-005  0.2189290E+03  0.7546771E-02  0.1154022E+00
         -1   -1    0    0    0  501 -0.00000000000E+00  0.00000000000E+00  0.68319523854E+02  0.68319523854E+02  0.00000000000E+00 0.  1.
         21   -1    0    0  501  502  0.00000000000E+00 -0.00000000000E+00 -0.16759193398E+04  0.16759193398E+04  0.00000000000E+00 0.  1.
         23    2    1    2    0    0  0.86693392391E+02 -0.57562123727E+02 -0.15584847079E+03  0.20803913830E+03  0.90345973036E+02 0.  0.
         23    2    1    2    0    0 -0.20071533970E+03  0.19411253794E+03 -0.62097213373E+03  0.68658739127E+03  0.88484631469E+02 0.  0.
        -13    1    3    3    0    0  0.61288846707E+02  0.12736643016E+02 -0.79565406043E+02  0.10123832597E+03  0.00000000000E+00 0. -1.
         13    1    3    3    0    0  0.25404545684E+02 -0.70298766744E+02 -0.76283064745E+02  0.10680081233E+03  0.00000000000E+00 0.  1.
        -13    1    4    4    0    0 -0.24500743263E+02 -0.29775078391E+01 -0.27860559767E+02  0.37220461629E+02  0.00000000000E+00 0. -1.
         13    1    4    4    0    0 -0.17621459644E+03  0.19709004578E+03 -0.59311157397E+03  0.64936692964E+03  0.00000000000E+00 0.  1.
         -1    1    1    2    0  502  0.11402194731E+03 -0.13655041422E+03 -0.83077921141E+03  0.84961233407E+03  0.00000000000E+00 0.  1.
<scales pt_clust_5="13000.00000" pt_clust_6="13000.00000" pt_clust_7="13000.00000" pt_clust_8="13000.00000" pt_clust_9="200.25082"></scales>
<clustering>
<clus scale="   88.485">  7  8 -1 -1</clus>
<clus scale="   90.346">  5  6 -1 -1</clus>
<clus scale="  137.810">  1  5  2 -1</clus>
<clus scale="  200.251">  2  9  1 -1</clus>
<clus scale="  200.251">  2  5  1 -1</clus>
</clustering>
</event>
<event>
 9    1  0.1464797E-005  0.9829909E+02  0.7546771E-02  0.1284368E+00
          2   -1    0    0  502    0 -0.00000000000E+00  0.00000000000E+00  0.17723222151E+03  0.17723222151E+03  0.00000000000E+00 0. -1.
         21   -1    0    0  501  502  0.00000000000E+00 -0.00000000000E+00 -0.16144021724E+03  0.16144021724E+03  0.00000000000E+00 0.  1.
         23    2    1    2    0    0 -0.11679949360E+02  0.82491217894E+01  0.92103571715E+02  0.13346037039E+03  0.95520329320E+02 0.  0.
         23    2    1    2    0    0  0.28032883797E+02 -0.70022754591E+02 -0.72746571303E+02  0.14121121391E+03  0.94654712308E+02 0.  0.
        -11    1    3    3    0    0  0.32089806882E+02  0.20704309089E+02  0.76235260528E+02  0.85265696903E+02  0.00000000000E+00 0.  1.
         11    1    3    3    0    0 -0.43769756242E+02 -0.12455187299E+02  0.15868311187E+02  0.48194673482E+02  0.00000000000E+00 0. -1.
        -13    1    4    4    0    0  0.37598403266E+02 -0.21975462713E+02 -0.80583261312E+02  0.91598159880E+02  0.00000000000E+00 0.  1.
         13    1    4    4    0    0 -0.95655194699E+01 -0.48047291878E+02  0.78366900097E+01  0.49613054026E+02  0.00000000000E+00 0. -1.
          2    1    1    2  501    0 -0.16352934437E+02  0.61773632801E+02 -0.35649961350E+01  0.64000854460E+02  0.00000000000E+00 0. -1.
<scales pt_clust_5="13000.00000" pt_clust_6="13000.00000" pt_clust_7="13000.00000" pt_clust_8="13000.00000" pt_clust_9="63.90149"></scales>
<clustering>
<clus scale="   63.901">  2  9  1 -1</clus>
<clus scale="   94.655">  7  8 -1 -1</clus>
<clus scale="   95.520">  5  6 -1 -1</clus>
<clus scale="   97.458">  2  7  1 -1</clus>
<clus scale="   63.901">  2  5  1 -1</clus>
</clustering>
</event>
<event>
 9    1  0.1464797E-005  0.1393232E+03  0.7546771E-02  0.1214959E+00
         21   -1    0    0  501  502  0.00000000000E+00  0.00000000000E+00  0.73564946897E+03  0.73564946897E+03  0.00000000000E+00 0. -1.
          1   -1    0    0  502    0 -0.00000000000E+00 -0.00000000000E+00 -0.49914787188E+02  0.49914787188E+02  0.00000000000E+00 0. -1.
         23    2    1    2    0    0 -0.31196402553E+01  0.89583652037E+02  0.12477677627E+03  0.18046265009E+03  0.94670804963E+02 0.  0.
         23    2    1    2    0    0 -0.10535721820E+02 -0.12672226396E+03  0.27572404661E+03  0.31713615733E+03  0.91553584242E+02 0.  0.
        -11    1    3    3    0    0 -0.37989182177E+02  0.26776035108E+02  0.14197515917E+02  0.48597360801E+02  0.00000000000E+00 0.  1.
         11    1    3    3    0    0  0.34869541922E+02  0.62807616929E+02  0.11057926036E+03  0.13186528929E+03  0.00000000000E+00 0. -1.
        -13    1    4    4    0    0  0.19197023973E+02 -0.10335433135E+02  0.11182046805E+03  0.11392613389E+03  0.00000000000E+00 0.  1.
         13    1    4    4    0    0 -0.29732745793E+02 -0.11638683082E+03  0.16390357856E+03  0.20321002344E+03  0.00000000000E+00 0. -1.
          1    1    1    2  501    0  0.13655362075E+02  0.37138611919E+02  0.28523385889E+03  0.28796544874E+03  0.00000000000E+00 0. -1.
<scales pt_clust_5="13000.00000" pt_clust_6="13000.00000" pt_clust_7="13000.00000" pt_clust_8="13000.00000" pt_clust_9="39.56950"></scales>
<clustering>
<clus scale="   39.570">  1  9  2 -1</clus>
<clus scale="   91.554">  7  8 -1 -1</clus>
<clus scale="   94.671">  5  6 -1 -1</clus>
<clus scale="  137.224">  1  7  2 -1</clus>
<clus scale="   39.570">  1  5  2 -1</clus>
</clustering>
</event>
<event>
 9    1  0.1464797E-005  0.1676165E+03  0.7546771E-02  0.1201517E+00
         21   -1    0    0  501  502  0.00000000000E+00  0.00000000000E+00  0.15619069779E+04  0.15619069779E+04  0.00000000000E+00 0. -1.
          3   -1    0    0  502    0 -0.00000000000E+00 -0.00000000000E+00 -0.39734090000E+02  0.39734090000E+02  0.00000000000E+00 0. -1.
         23    2    1    2    0    0 -0.36482771670E+02 -0.30515185106E+02  0.27476711830E+03  0.29418004948E+03  0.93716396967E+02 0.  0.
         23    2    1    2    0    0  0.11358842582E+03 -0.87443397377E+02  0.26483916572E+03  0.31483992246E+03  0.91846147729E+02 0.  0.
        -13    1    3    3    0    0  0.13964777355E+01 -0.56347464619E+02  0.18478562913E+03  0.19319087881E+03  0.00000000000E+00 0. -1.
         13    1    3    3    0    0 -0.37879249406E+02  0.25832279513E+02  0.89981489166E+02  0.10098917067E+03  0.00000000000E+00 0.  1.
        -13    1    4    4    0    0  0.42755400232E+02 -0.72909929696E+02  0.80072323065E+02  0.11642791340E+03  0.00000000000E+00 0.  1.
         13    1    4    4    0    0  0.70833025585E+02 -0.14533467681E+02  0.18476684265E+03  0.19841200906E+03  0.00000000000E+00 0. -1.
          3    1    1    2  501    0 -0.77105654147E+02  0.11795858248E+03  0.98256660386E+03  0.99262109594E+03  0.00000000000E+00 0. -1.
<scales pt_clust_5="13000.00000" pt_clust_6="13000.00000" pt_clust_7="13000.00000" pt_clust_8="13000.00000" pt_clust_9="140.21257"></scales>
<clustering>
<clus scale="   91.846">  7  8 -1 -1</clus>
<clus scale="   93.716">  5  6 -1 -1</clus>
<clus scale="  105.095">  2  5  1 -1</clus>
<clus scale="  140.213">  1  9  2 -1</clus>
<clus scale="  140.213">  1  5  2 -1</clus>
</clustering>
</event>
<event>
 9    1  0.1464797E-005  0.2773052E+03  0.7546771E-02  0.1098061E+00
         21   -1    0    0  501  502  0.00000000000E+00  0.00000000000E+00  0.16046429490E+03  0.16046429490E+03  0.00000000000E+00 0. -1.
          1   -1    0    0  502    0 -0.00000000000E+00 -0.00000000000E+00 -0.98892704472E+03  0.98892704472E+03  0.00000000000E+00 0. -1.
         23    2    1    2    0    0  0.33311387693E+02  0.23688689713E+03 -0.42823945674E+03  0.49887118172E+03  0.90875591157E+02 0.  0.
         23    2    1    2    0    0  0.29027505547E+02 -0.27810320332E+03 -0.46386460783E+03  0.55236141682E+03  0.10839175533E+03 0.  0.
        -13    1    4    4    0    0 -0.23296680919E+02 -0.20286861381E+03 -0.35971568626E+03  0.41363484470E+03  0.00000000000E+00 0. -1.
         13    1    4    4    0    0  0.52324186466E+02 -0.75234589509E+02 -0.10414892157E+03  0.13872657212E+03  0.00000000000E+00 0.  1.
        -13    1    3    3    0    0  0.22471065070E+02  0.10560760555E+02 -0.19665638521E+02  0.31673581536E+02  0.00000000000E+00 0. -1.
         13    1    3    3    0    0  0.10840322623E+02  0.22632613657E+03 -0.40857381821E+03  0.46719760019E+03  0.00000000000E+00 0.  1.
          1    1    1    2  501    0 -0.62338893240E+02  0.41216306194E+02  0.63641314749E+02  0.98158741076E+02  0.00000000000E+00 0. -1.
<scales pt_clust_5="13000.00000" pt_clust_6="13000.00000" pt_clust_7="13000.00000" pt_clust_8="13000.00000" pt_clust_9="74.73233"></scales>
<clustering>
<clus scale="   74.732">  1  9  2 -1</clus>
<clus scale="   90.876">  7  8 -1 -1</clus>
<clus scale="  108.392">  5  6 -1 -1</clus>
<clus scale="  270.939">  2  7  1 -1</clus>
<clus scale="   74.732">  1  5  2 -1</clus>
</clustering>
</event>
<event>
 9    1  0.1464797E-005  0.2871252E+03  0.7546771E-02  0.1092054E+00
         21   -1    0    0  501  502  0.00000000000E+00  0.00000000000E+00  0.24600707008E+03  0.24600707008E+03  0.00000000000E+00 0. -1.
          2   -1    0    0  502    0 -0.00000000000E+00 -0.00000000000E+00 -0.18834446540E+04  0.18834446540E+04  0.00000000000E+00 0. -1.
         23    2    1    2    0    0 -0.32185577885E+02  0.31078820537E+03 -0.12185923338E+04  0.12617216420E+04  0.96690257948E+02 0.  0.
         23    2    1    2    0    0 -0.70322784615E+02 -0.21849231330E+03 -0.59401689961E+03  0.64476909260E+03  0.10093027661E+03 0.  0.
        -11    1    3    3    0    0 -0.36921461389E+01  0.23783241758E+03 -0.75570998895E+03  0.79225972900E+03  0.00000000000E+00 0. -1.
         11    1    3    3    0    0 -0.28493431746E+02  0.72955787784E+02 -0.46288234481E+03  0.46946191300E+03  0.00000000000E+00 0.  1.
        -13    1    4    4    0    0 -0.90634413624E+02 -0.20998576962E+03 -0.54025151051E+03  0.58666882905E+03  0.00000000000E+00 0.  1.
         13    1    4    4    0    0  0.20311629009E+02 -0.85065436747E+01 -0.53765389105E+02  0.58100263544E+02  0.00000000000E+00 0. -1.
          2    1    1    2  501    0  0.10250836250E+03 -0.92295892068E+02  0.17517164944E+03  0.22296098951E+03  0.00000000000E+00 0. -1.
<scales pt_clust_5="13000.00000" pt_clust_6="13000.00000" pt_clust_7="13000.00000" pt_clust_8="13000.00000" pt_clust_9="137.93657"></scales>
<clustering>
<clus scale="   96.690">  5  6 -1 -1</clus>
<clus scale="  100.930">  7  8 -1 -1</clus>
<clus scale="  137.937">  1  9  2 -1</clus>
<clus scale="  285.662">  2  5  1 -1</clus>
<clus scale="  137.937">  1  5  2 -1</clus>
</clustering>
</event>
<event>
 9    1  0.1464797E-005  0.1601671E+03  0.7546771E-02  0.1192166E+00
          2   -1    0    0  502    0 -0.00000000000E+00  0.00000000000E+00  0.23453093233E+03  0.23453093233E+03  0.00000000000E+00 0. -1.
         21   -1    0    0  501  502  0.00000000000E+00 -0.00000000000E+00 -0.22594528782E+03  0.22594528782E+03  0.00000000000E+00 0.  1.
         23    2    1    2    0    0 -0.33248062590E+02 -0.87794003783E+02  0.84113415542E+02  0.15791199222E+03  0.95120501722E+02 0.  0.
         23    2    1    2    0    0  0.57637906058E+02  0.15960126020E+03 -0.13470709578E+02  0.20457328234E+03  0.11346399147E+03 0.  0.
        -11    1    4    4    0    0  0.56927678513E+02  0.13383410517E+03 -0.55169326592E+02  0.15555057982E+03  0.00000000000E+00 0.  1.
         11    1    4    4    0    0  0.71022754523E+00  0.25767155035E+02  0.41698617013E+02  0.49022702522E+02  0.00000000000E+00 0. -1.
        -13    1    3    3    0    0 -0.56007874799E+02 -0.54634837747E+02  0.17620236869E+02  0.80201747378E+02  0.00000000000E+00 0.  1.
         13    1    3    3    0    0  0.22759812210E+02 -0.33159166036E+02  0.66493178673E+02  0.77710244846E+02  0.00000000000E+00 0. -1.
          2    1    1    2  501    0 -0.24389843468E+02 -0.71807256418E+02 -0.62057061462E+02  0.97990945581E+02  0.00000000000E+00 0. -1.
<scales pt_clust_5="13000.00000" pt_clust_6="13000.00000" pt_clust_7="13000.00000" pt_clust_8="13000.00000" pt_clust_9="75.83631"></scales>
<clustering>
<clus scale="   75.836">  2  9  1 -1</clus>
<clus scale="   95.121">  7  8 -1 -1</clus>
<clus scale="  113.464">  5  6 -1 -1</clus>
<clus scale="  147.741">  1  7  2 -1</clus>
<clus scale="   75.836">  2  5  1 -1</clus>
</clustering>
</event>
<event>
 9    1  0.1464797E-005  0.9321017E+02  0.7546771E-02  0.1295661E+00
          2   -1    0    0  502    0 -0.00000000000E+00  0.00000000000E+00  0.35284928597E+03  0.35284928597E+03  0.00000000000E+00 0. -1.
         21   -1    0    0  501  502  0.00000000000E+00 -0.00000000000E+00 -0.38275323372E+02  0.38275323372E+02  0.00000000000E+00 0.  1.
         23    2    1    2    0    0 -0.18123845801E+02  0.74497258955E+00  0.20114631272E+03  0.22199280256E+03  0.92151703703E+02 0.  0.
         23    2    1    2    0    0  0.24568720799E+01  0.12945529087E+02  0.55973817469E+02  0.10802675986E+03  0.91449929793E+02 0.  0.
        -11    1    4    4    0    0  0.10898757821E+02 -0.37895694620E+02  0.33745605059E+02  0.51900216315E+02  0.00000000000E+00 0.  1.
         11    1    4    4    0    0 -0.84418857410E+01  0.50841223707E+02  0.22228212409E+02  0.56126543540E+02  0.00000000000E+00 0. -1.
        -11    1    3    3    0    0  0.31150052081E+02  0.17155631182E+02  0.44513915074E+02  0.56974819536E+02  0.00000000000E+00 0. -1.
         11    1    3    3    0    0 -0.49273897882E+02 -0.16410658592E+02  0.15663239765E+03  0.16501798303E+03  0.00000000000E+00 0.  1.
          2    1    1    2  501    0  0.15666973721E+02 -0.13690501677E+02  0.57453832410E+02  0.61105046930E+02  0.00000000000E+00 0. -1.
<scales pt_clust_5="13000.00000" pt_clust_6="13000.00000" pt_clust_7="13000.00000" pt_clust_8="13000.00000" pt_clust_9="20.80587"></scales>
<clustering>
<clus scale="   20.806">  2  9  1 -1</clus>
<clus scale="   91.450">  5  6 -1 -1</clus>
<clus scale="   92.152">  7  8 -1 -1</clus>
<clus scale="   92.516">  2  5  1 -1</clus>
<clus scale="   20.806">  2  5  1 -1</clus>
</clustering>
</event>
<event>
 9    1  0.1464797E-005  0.1563765E+03  0.7546771E-02  0.1215718E+00
         21   -1    0    0  501  502  0.00000000000E+00  0.00000000000E+00  0.15793241317E+03  0.15793241317E+03  0.00000000000E+00 0. -1.
          4   -1    0    0  502    0 -0.00000000000E+00 -0.00000000000E+00 -0.41321646989E+03  0.41321646989E+03  0.00000000000E+00 0. -1.
         23    2    1    2    0    0  0.12215828534E+02  0.21236475677E+02  0.55556370071E+02  0.11048503399E+03  0.92305027567E+02 0.  0.
         23    2    1    2    0    0  0.59562003855E+02 -0.12408873553E+03 -0.28998347409E+03  0.33351961187E+03  0.90549818703E+02 0.  0.
        -11    1    4    4    0    0  0.70866294062E+02 -0.61954240406E+02 -0.21978323195E+03  0.23909209227E+03  0.00000000000E+00 0. -1.
         11    1    4    4    0    0 -0.11304290207E+02 -0.62134495126E+02 -0.70200242137E+02  0.94427519600E+02  0.00000000000E+00 0.  1.
        -13    1    3    3    0    0 -0.32883311061E+02  0.80234079673E+01  0.53670402137E+02  0.63452338706E+02  0.00000000000E+00 0. -1.
         13    1    3    3    0    0  0.45099139595E+02  0.13213067710E+02  0.18859679341E+01  0.47032695283E+02  0.00000000000E+00 0.  1.
          4    1    1    2  501    0 -0.71777832389E+02  0.10285225985E+03 -0.20856952706E+02  0.12714423721E+03  0.00000000000E+00 0. -1.
<scales pt_clust_5="13000.00000" pt_clust_6="13000.00000" pt_clust_7="13000.00000" pt_clust_8="13000.00000" pt_clust_9="127.49251"></scales>
<clustering>
<clus scale="   90.550">  5  6 -1 -1</clus>
<clus scale="   92.305">  7  8 -1 -1</clus>
<clus scale="   95.501">  2  7  1 -1</clus>
<clus scale="  127.493">  1  9  2 -1</clus>
<clus scale="  127.493">  1  5  2 -1</clus>
</clustering>
</event>
<event>
 9    1  0.1539469E-005  0.1027339E+03  0.7546771E-02  0.1275103E+00
          2   -1    0    0  502    0 -0.00000000000E+00  0.00000000000E+00  0.52672431945E+03  0.52672431945E+03  0.00000000000E+00 0. -1.
         21   -1    0    0  501  502  0.00000000000E+00 -0.00000000000E+00 -0.11844044832E+03  0.11844044832E+03  0.00000000000E+00 0. -1.
         23    2    1    2    0    0 -0.42922250174E+02  0.15001816324E+02  0.36873886331E+03  0.38272355351E+03  0.91878153208E+02 0.  0.
         23    2    1    2    0    0  0.54151629274E+02  0.27682797945E+02  0.12510895342E+03  0.16616419708E+03  0.90882087949E+02 0.  0.
        -13    1    3    3    0    0  0.11497038800E+02 -0.24076397276E+02  0.46652360120E+02  0.53742883358E+02  0.00000000000E+00 0.  1.
         13    1    3    3    0    0 -0.54419288974E+02  0.39078213600E+02  0.32208650319E+03  0.32898067015E+03  0.00000000000E+00 0. -1.
        -13    1    4    4    0    0  0.69303755451E+02  0.49251874458E+01  0.48255146782E+02  0.84592122458E+02  0.00000000000E+00 0.  1.
         13    1    4    4    0    0 -0.15152126177E+02  0.22757610499E+02  0.76853806637E+02  0.81572074620E+02  0.00000000000E+00 0. -1.
          2    1    1    2  501    0 -0.11229379100E+02 -0.42684614269E+02 -0.85563945609E+02  0.96277017187E+02  0.00000000000E+00 0. -1.
<scales pt_clust_5="13000.00000" pt_clust_6="13000.00000" pt_clust_7="13000.00000" pt_clust_8="13000.00000" pt_clust_9="44.13701"></scales>
<clustering>
<clus scale="   44.137">  2  9  1 -1</clus>
<clus scale="   90.882">  7  8 -1 -1</clus>
<clus scale="   91.878">  5  6 -1 -1</clus>
<clus scale="  101.844">  2  7  1 -1</clus>
<clus scale="   44.137">  2  5  1 -1</clus>
</clustering>
</event>
<event>
 9    1  0.1464797E-005  0.1070537E+03  0.7546771E-02  0.1267582E+00
          2   -1    0    0  502    0 -0.00000000000E+00  0.00000000000E+00  0.13223886724E+03  0.13223886724E+03  0.00000000000E+00 0. -1.
         21   -1    0    0  501  502  0.00000000000E+00 -0.00000000000E+00 -0.16162998801E+03  0.16162998801E+03  0.00000000000E+00 0.  1.
         23    2    1    2    0    0  0.77747120693E+01 -0.51491365132E+02  0.69341083420E+02  0.12764313060E+03  0.93663098965E+02 0.  0.
         23    2    1    2    0    0 -0.30630289746E+02  0.45772093503E+02 -0.61898770875E+02  0.12250171171E+03  0.90232545913E+02 0.  0.
        -11    1    3    3    0    0 -0.26415233413E+02  0.14329917260E+02  0.72521046631E+01  0.30914464365E+02  0.00000000000E+00 0.  1.
         11    1    3    3    0    0  0.34189945483E+02 -0.65821282392E+02  0.62088978757E+02  0.96728666231E+02  0.00000000000E+00 0. -1.
        -13    1    4    4    0    0 -0.30109023139E+02 -0.21727388992E+02 -0.30518850802E+02  0.48062802260E+02  0.00000000000E+00 0.  1.
         13    1    4    4    0    0 -0.52126660690E+00  0.67499482495E+02 -0.31379920073E+02  0.74438909448E+02  0.00000000000E+00 0. -1.
          2    1    1    2  501    0  0.22855577677E+02  0.57192716290E+01 -0.36833433311E+02  0.43724012949E+02  0.00000000000E+00 0. -1.
<scales pt_clust_5="13000.00000" pt_clust_6="13000.00000" pt_clust_7="13000.00000" pt_clust_8="13000.00000" pt_clust_9="23.56029"></scales>
<clustering>
<clus scale="   23.560">  2  9  1 -1</clus>
<clus scale="   90.233">  7  8 -1 -1</clus>
<clus scale="   93.663">  5  6 -1 -1</clus>
<clus scale="  104.066">  2  7  1 -1</clus>
<clus scale="   23.560">  2  5  1 -1</clus>
</clustering>
</event>
<event>
 9    1  0.1464797E-005  0.1096851E+03  0.7546771E-02  0.1261665E+00
         21   -1    0    0  501  502  0.00000000000E+00  0.00000000000E+00  0.56721164899E+02  0.56721164899E+02  0.00000000000E+00 0. -1.
         -3   -1    0    0    0  501 -0.00000000000E+00 -0.00000000000E+00 -0.37297949718E+03  0.37297949718E+03  0.00000000000E+00 0.  1.
         23    2    1    2    0    0 -0.68083522761E+02  0.55314228074E+02 -0.19281964030E+03  0.23015962247E+03  0.89994490008E+02 0.  0.
         23    2    1    2    0    0  0.29597552880E+02 -0.76082540990E+01 -0.60008583367E+02  0.11133441565E+03  0.88659017388E+02 0.  0.
        -11    1    4    4    0    0 -0.31442628155E+02  0.34663151670E+01 -0.17758421210E+02  0.36276931099E+02  0.00000000000E+00 0.  1.
         11    1    4    4    0    0  0.61040181035E+02 -0.11074569266E+02 -0.42250162158E+02  0.75057484554E+02  0.00000000000E+00 0. -1.
        -13    1    3    3    0    0 -0.73581853564E+02  0.36067431944E+01 -0.11200865557E+03  0.13406430059E+03  0.00000000000E+00 0.  1.
         13    1    3    3    0    0  0.54983308030E+01  0.51707484880E+02 -0.80810984730E+02  0.96095321880E+02  0.00000000000E+00 0. -1.
         -3    1    1    2    0  502  0.38485969882E+02 -0.47705973975E+02 -0.63430108614E+02  0.88206623954E+02  0.00000000000E+00 0.  1.
<scales pt_clust_5="13000.00000" pt_clust_6="13000.00000" pt_clust_7="13000.00000" pt_clust_8="13000.00000" pt_clust_9="61.29462"></scales>
<clustering>
<clus scale="   61.295">  1  9  2 -1</clus>
<clus scale="   88.659">  5  6 -1 -1</clus>
<clus scale="   89.994">  7  8 -1 -1</clus>
<clus scale="  108.592">  1  5  2 -1</clus>
<clus scale="   61.295">  1  5  2 -1</clus>
</clustering>
</event>
<event>
 9    1  0.1464797E-005  0.1210844E+03  0.7546771E-02  0.1244784E+00
         21   -1    0    0  501  502  0.00000000000E+00  0.00000000000E+00  0.59190346912E+02  0.59190346912E+02  0.00000000000E+00 0. -1.
          3   -1    0    0  502    0 -0.00000000000E+00 -0.00000000000E+00 -0.44594484617E+03  0.44594484617E+03  0.00000000000E+00 0. -1.
         23    2    1    2    0    0 -0.46971469819E+02 -0.83576763332E+02 -0.26164037170E+03  0.29019872698E+03  0.81044572248E+02 0.  0.
         23    2    1    2    0    0  0.48667833851E+01  0.57442631010E+02 -0.12466869777E+03  0.16537846070E+03  0.92110855065E+02 0.  0.
        -13    1    3    3    0    0  0.17578124388E+01 -0.43417007159E+02 -0.18908392242E+03  0.19401251540E+03  0.00000000000E+00 0. -1.
         13    1    3    3    0    0 -0.48729282257E+02 -0.40159756173E+02 -0.72556449279E+02  0.96186211575E+02  0.00000000000E+00 0.  1.
        -13    1    4    4    0    0  0.23636655543E+02 -0.10999060341E+01  0.28309246054E+01  0.23830975907E+02  0.00000000000E+00 0. -1.
         13    1    4    4    0    0 -0.18769872158E+02  0.58542537044E+02 -0.12749962238E+03  0.14154748479E+03  0.00000000000E+00 0.  1.
          3    1    1    2  501    0  0.42104686434E+02  0.26134132322E+02 -0.44542978447E+00  0.49558005404E+02  0.00000000000E+00 0. -1.
<scales pt_clust_5="13000.00000" pt_clust_6="13000.00000" pt_clust_7="13000.00000" pt_clust_8="13000.00000" pt_clust_9="49.55600"></scales>
<clustering>
<clus scale="   49.556">  1  9  2 -1</clus>
<clus scale="   81.045">  5  6 -1 -1</clus>
<clus scale="   92.111">  7  8 -1 -1</clus>
<clus scale="  112.895">  2  5  1 -1</clus>
<clus scale="   49.556">  1  5  2 -1</clus>
</clustering>
</event>
<event>
 9    1  0.1464797E-005  0.9719194E+02  0.7546771E-02  0.1287016E+00
          2   -1    0    0  502    0 -0.00000000000E+00  0.00000000000E+00  0.39897811910E+03  0.39897811910E+03  0.00000000000E+00 0. -1.
         21   -1    0    0  501  502  0.00000000000E+00 -0.00000000000E+00 -0.88028892780E+02  0.88028892780E+02  0.00000000000E+00 0. -1.
         23    2    1    2    0    0 -0.91178770679E+01 -0.46807467128E+02  0.21843716105E+03  0.24082822744E+03  0.89495067720E+02 0.  0.
         23    2    1    2    0    0  0.89319828297E+00  0.19342269389E+02  0.15313868537E+03  0.17911486348E+03  0.90861191795E+02 0.  0.
        -13    1    3    3    0    0  0.16938683363E+02  0.10939979788E+02  0.91152314562E+01  0.22128931207E+02  0.00000000000E+00 0.  1.
         13    1    3    3    0    0 -0.26056560431E+02 -0.57747446917E+02  0.20932192959E+03  0.21869929624E+03  0.00000000000E+00 0. -1.
        -13    1    4    4    0    0  0.23857353023E+02 -0.24123497086E+02  0.10486335553E+03  0.11021542423E+03  0.00000000000E+00 0. -1.
         13    1    4    4    0    0 -0.22964154740E+02  0.43465766474E+02  0.48275329846E+02  0.68899439256E+02  0.00000000000E+00 0.  1.
          2    1    1    2  501    0  0.82246787849E+01  0.27465197740E+02 -0.60626620104E+02  0.67063920950E+02  0.00000000000E+00 0. -1.
<scales pt_clust_5="13000.00000" pt_clust_6="13000.00000" pt_clust_7="13000.00000" pt_clust_8="13000.00000" pt_clust_9="28.67024"></scales>
<clustering>
<clus scale="   28.670">  2  9  1 -1</clus>
<clus scale="   89.495">  5  6 -1 -1</clus>
<clus scale="   90.861">  7  8 -1 -1</clus>
<clus scale="   95.916">  1  5  2 -1</clus>
<clus scale="   28.670">  2  5  1 -1</clus>
</clustering>
</event>
<event>
 9    1  0.1464797E-005  0.1054313E+03  0.7546771E-02  0.1273477E+00
          2   -1    0    0  502    0 -0.00000000000E+00  0.00000000000E+00  0.50499076337E+03  0.50499076337E+03  0.00000000000E+00 0. -1.
         21   -1    0    0  501  502  0.00000000000E+00 -0.00000000000E+00 -0.37528618961E+02  0.37528618961E+02  0.00000000000E+00 0. -1.
         23    2    1    2    0    0  0.50013666787E+02  0.29764804594E+02  0.31154394704E+03  0.33121297705E+03  0.96203403117E+02 0.  0.
         23    2    1    2    0    0 -0.85741976971E+01 -0.25989858522E+02  0.13916265472E+03  0.16644854058E+03  0.87119932163E+02 0.  0.
        -11    1    4    4    0    0  0.27402770342E+02  0.17332859749E+02  0.32935079057E+02  0.46217521374E+02  0.00000000000E+00 0.  1.
         11    1    4    4    0    0 -0.35976968039E+02 -0.43322718271E+02  0.10622757567E+03  0.12023101921E+03  0.00000000000E+00 0. -1.
        -11    1    3    3    0    0  0.26413091376E+02 -0.28959667965E+02  0.19188695275E+03  0.19584921853E+03  0.00000000000E+00 0. -1.
         11    1    3    3    0    0  0.23600575411E+02  0.58724472560E+02  0.11965699429E+03  0.13536375852E+03  0.00000000000E+00 0.  1.
          2    1    1    2  501    0 -0.41439469090E+02 -0.37749460725E+01  0.16755542649E+02  0.44857864703E+02  0.00000000000E+00 0. -1.
<scales pt_clust_5="13000.00000" pt_clust_6="13000.00000" pt_clust_7="13000.00000" pt_clust_8="13000.00000" pt_clust_9="41.61105"></scales>
<clustering>
<clus scale="   41.611">  2  9  1 -1</clus>
<clus scale="   87.120">  5  6 -1 -1</clus>
<clus scale="   96.203">  7  8 -1 -1</clus>
<clus scale="   97.214">  2  5  1 -1</clus>
<clus scale="   41.611">  2  5  1 -1</clus>
</clustering>
</event>
<event>
 9    1  0.1464797E-005  0.1101723E+03  0.7546771E-02  0.1260437E+00
         -1   -1    0    0    0  501 -0.00000000000E+00  0.00000000000E+00  0.41565746206E+03  0.41565746206E+03  0.00000000000E+00 0.  1.
         21   -1    0    0  501  502  0.00000000000E+00 -0.00000000000E+00 -0.67272497813E+02  0.67272497813E+02  0.00000000000E+00 0. -1.
         23    2    1    2    0    0  0.57472896280E+02 -0.29909604367E+02  0.34080719864E+03  0.35864601895E+03  0.90992867999E+02 0.  0.
         23    2    1    2    0    0 -0.41379837957E+02  0.13920321461E+02  0.57694483486E+01  0.10152622343E+03  0.91477981888E+02 0.  0.
        -11    1    3    3    0    0  0.73660301722E+02  0.41469424282E+01  0.23590871114E+03  0.24717596399E+03  0.00000000000E+00 0.  1.
         11    1    3    3    0    0 -0.16187405442E+02 -0.34056546795E+02  0.10489848750E+03  0.11147005496E+03  0.00000000000E+00 0. -1.
        -13    1    4    4    0    0 -0.65094222974E+02 -0.85959081409E+00 -0.14882892793E+02  0.66779467345E+02  0.00000000000E+00 0. -1.
         13    1    4    4    0    0  0.23714385017E+02  0.14779912275E+02  0.20652341142E+02  0.34746756082E+02  0.00000000000E+00 0.  1.
         -1    1    1    2    0  502 -0.16093058322E+02  0.15989282906E+02  0.18083172568E+01  0.22757717489E+02  0.00000000000E+00 0.  1.
<scales pt_clust_5="13000.00000" pt_clust_6="13000.00000" pt_clust_7="13000.00000" pt_clust_8="13000.00000" pt_clust_9="22.68576"></scales>
<clustering>
<clus scale="   22.686">  2  9  1 -1</clus>
<clus scale="   90.993">  5  6 -1 -1</clus>
<clus scale="   91.478">  7  8 -1 -1</clus>
<clus scale="  109.770">  1  5  2 -1</clus>
<clus scale="   22.686">  2  5  1 -1</clus>
</clustering>
</event>
<event>
 9    1  0.1464797E-005  0.9783816E+02  0.7546771E-02  0.1284998E+00
         21   -1    0    0  501  502  0.00000000000E+00  0.00000000000E+00  0.25412490648E+03  0.25412490648E+03  0.00000000000E+00 0.  1.
          4   -1    0    0  502    0 -0.00000000000E+00 -0.00000000000E+00 -0.53060101936E+02  0.53060101936E+02  0.00000000000E+00 0. -1.
         23    2    1    2    0    0 -0.28080513771E+02 -0.61710596202E+01  0.80201737676E+02  0.12493857956E+03  0.91382343517E+02 0.  0.
         23    2    1    2    0    0  0.30749083765E+02  0.34101396029E+02  0.11420806744E+03  0.15341044482E+03  0.91558017390E+02 0.  0.
        -13    1    4    4    0    0  0.20156227575E+02  0.64579271026E+02  0.92183236909E+02  0.11434380142E+03  0.00000000000E+00 0.  1.
         13    1    4    4    0    0  0.10592856190E+02 -0.30477874998E+02  0.22024830530E+02  0.39066643400E+02  0.00000000000E+00 0. -1.
        -13    1    3    3    0    0  0.25481520281E+02 -0.25445726412E+02  0.46400150924E+02  0.58734716091E+02  0.00000000000E+00 0. -1.
         13    1    3    3    0    0 -0.53562034053E+02  0.19274666792E+02  0.33801586752E+02  0.66203863473E+02  0.00000000000E+00 0.  1.
          4    1    1    2  501    0 -0.26685699940E+01 -0.27930336408E+02  0.66549994301E+01  0.28835984032E+02  0.00000000000E+00 0. -1.
<scales pt_clust_5="13000.00000" pt_clust_6="13000.00000" pt_clust_7="13000.00000" pt_clust_8="13000.00000" pt_clust_9="28.05754"></scales>
<clustering>
<clus scale="   28.058">  1  9  2 -1</clus>
<clus scale="   91.382">  7  8 -1 -1</clus>
<clus scale="   91.558">  5  6 -1 -1</clus>
<clus scale="   97.674">  2  7  1 -1</clus>
<clus scale="   28.058">  1  5  2 -1</clus>
</clustering>
</event>
<event>
 9    1  0.1464797E-005  0.3208745E+03  0.7546771E-02  0.1119592E+00
         -1   -1    0    0    0  501 -0.00000000000E+00  0.00000000000E+00  0.56355914903E+03  0.56355914903E+03  0.00000000000E+00 0.  1.
         21   -1    0    0  501  502  0.00000000000E+00 -0.00000000000E+00 -0.31283194782E+03  0.31283194782E+03  0.00000000000E+00 0.  1.
         23    2    1    2    0    0 -0.18466871969E+02  0.38421819078E+02 -0.52895210361E+02  0.11395176561E+03  0.91486830004E+02 0.  0.
         23    2    1    2    0    0  0.16629737325E+03 -0.29323766323E+03  0.30970082599E+03  0.46778373795E+03  0.96249053927E+02 0.  0.
        -11    1    4    4    0    0  0.14862277322E+03 -0.21109131670E+03  0.27407378231E+03  0.37651654792E+03  0.00000000000E+00 0.  1.
         11    1    4    4    0    0  0.17674600030E+02 -0.82146346531E+02  0.35627043682E+02  0.91267190031E+02  0.00000000000E+00 0. -1.
        -13    1    3    3    0    0  0.21101444245E+02  0.43958485056E+02 -0.55543758481E+02  0.73910273060E+02  0.00000000000E+00 0.  1.
         13    1    3    3    0    0 -0.39568316214E+02 -0.55366659776E+01  0.26485481201E+01  0.40041492546E+02  0.00000000000E+00 0. -1.
         -1    1    1    2    0  502 -0.14783050128E+03  0.25481584415E+03 -0.60784144252E+01  0.29465559329E+03  0.00000000000E+00 0.  1.
<scales pt_clust_5="13000.00000" pt_clust_6="13000.00000" pt_clust_7="13000.00000" pt_clust_8="13000.00000" pt_clust_9="306.09896"></scales>
<clustering>
<clus scale="   91.487">  7  8 -1 -1</clus>
<clus scale="   96.249">  5  6 -1 -1</clus>
<clus scale="  100.931">  1  7  2 -1</clus>
<clus scale="  306.099">  2  9  1 -1</clus>
<clus scale="  306.099">  2  5  1 -1</clus>
</clustering>
</event>
<event>
 9    1  0.1464797E-005  0.9930805E+02  0.7546771E-02  0.1282243E+00
          3   -1    0    0  502    0 -0.00000000000E+00  0.00000000000E+00  0.22183876044E+03  0.22183876044E+03  0.00000000000E+00 0. -1.
         21   -1    0    0  501  502  0.00000000000E+00 -0.00000000000E+00 -0.10423334916E+03  0.10423334916E+03  0.00000000000E+00 0. -1.
         23    2    1    2    0    0  0.10772786831E+02 -0.37350787796E+02  0.13888189446E+03  0.17060451555E+03  0.91140473085E+02 0.  0.
         23    2    1    2    0    0 -0.27738854086E+02  0.24510220909E+02  0.26849782168E+02  0.10284758822E+03  0.92122313505E+02 0.  0.
        -11    1    4    4    0    0 -0.20813063668E+02 -0.33578267240E+02  0.28244126031E+01  0.39606324705E+02  0.00000000000E+00 0.  1.
         11    1    4    4    0    0 -0.69257904178E+01  0.58088488150E+02  0.24025369565E+02  0.63241263516E+02  0.00000000000E+00 0. -1.
        -13    1    3    3    0    0 -0.24699400649E+02  0.18353084326E+02  0.28313520152E+02  0.41815685096E+02  0.00000000000E+00 0. -1.
         13    1    3    3    0    0  0.35472187480E+02 -0.55703872122E+02  0.11056837431E+03  0.12878883046E+03  0.00000000000E+00 0.  1.
          3    1    1    2  501    0  0.16966067256E+02  0.12840566887E+02 -0.48126265349E+02  0.52620005820E+02  0.00000000000E+00 0. -1.
<scales pt_clust_5="13000.00000" pt_clust_6="13000.00000" pt_clust_7="13000.00000" pt_clust_8="13000.00000" pt_clust_9="21.27740"></scales>
<clustering>
<clus scale="   21.277">  2  9  1 -1</clus>
<clus scale="   91.140">  7  8 -1 -1</clus>
<clus scale="   92.122">  5  6 -1 -1</clus>
<clus scale="   98.398">  1  7  2 -1</clus>
<clus scale="   21.277">  2  5  1 -1</clus>
</clustering>
</event>
<event>
 9    1  0.1464797E-005  0.1269509E+03  0.7546771E-02  0.1232401E+00
         21   -1    0    0  501  502  0.00000000000E+00  0.00000000000E+00  0.20843926675E+03  0.20843926675E+03  0.00000000000E+00 0.  1.
         -4   -1    0    0    0  501 -0.00000000000E+00 -0.00000000000E+00 -0.25017838869E+03  0.25017838869E+03  0.00000000000E+00 0.  1.
         23    2    1    2    0    0  0.51058870562E+02  0.89392895907E+02 -0.16745724051E+03  0.21646586659E+03  0.90650129047E+02 0.  0.
         23    2    1    2    0    0  0.12109319987E+00 -0.57637432189E+02  0.66214839402E+01  0.10869090864E+03  0.91911812724E+02 0.  0.
        -11    1    4    4    0    0  0.27901486283E+02 -0.49401659076E+02  0.36186860751E+02  0.67294173205E+02  0.00000000000E+00 0.  1.
         11    1    4    4    0    0 -0.27780393083E+02 -0.82357731130E+01 -0.29565376811E+02  0.41396735434E+02  0.00000000000E+00 0. -1.
        -13    1    3    3    0    0  0.19500963459E+02  0.42254993031E+02 -0.15009164550E+03  0.15714093694E+03  0.00000000000E+00 0.  1.
         13    1    3    3    0    0  0.31557907103E+02  0.47137902875E+02 -0.17365595012E+02  0.59324929653E+02  0.00000000000E+00 0. -1.
         -4    1    1    2    0  502 -0.51179963762E+02 -0.31755463718E+02  0.11909663463E+03  0.13346088021E+03  0.00000000000E+00 0.  1.
<scales pt_clust_5="13000.00000" pt_clust_6="13000.00000" pt_clust_7="13000.00000" pt_clust_8="13000.00000" pt_clust_9="60.23121"></scales>
<clustering>
<clus scale="   60.231">  1  9  2 -1</clus>
<clus scale="   90.650">  7  8 -1 -1</clus>
<clus scale="   91.912">  5  6 -1 -1</clus>
<clus scale="  126.040">  2  7  1 -1</clus>
<clus scale="   60.231">  1  5  2 -1</clus>
</clustering>
</event>
<event>
 9    1  0.1464797E-005  0.9809920E+02  0.7546771E-02  0.1287351E+00
         21   -1    0    0  501  502  0.00000000000E+00  0.00000000000E+00  0.40868758510E+02  0.40868758510E+02  0.00000000000E+00 0.  1.
         -3   -1    0    0    0  501 -0.00000000000E+00 -0.00000000000E+00 -0.55220129386E+03  0.55220129386E+03  0.00000000000E+00 0.  1.
         23    2    1    2    0    0 -0.32882123999E+02 -0.21197461731E+02 -0.41297554462E+03  0.42369467191E+03  0.86242727731E+02 0.  0.
         23    2    1    2    0    0 -0.21319736712E+01  0.11819436970E+02 -0.40859110025E+02  0.10140523503E+03  0.92028856442E+02 0.  0.
        -11    1    4    4    0    0  0.46406452231E+01  0.49534344274E+02 -0.69434842610E+01  0.50233443286E+02  0.00000000000E+00 0. -1.
         11    1    4    4    0    0 -0.67726188943E+01 -0.37714907304E+02 -0.33915625764E+02  0.51171791747E+02  0.00000000000E+00 0.  1.
        -13    1    3    3    0    0  0.89103371883E+01  0.26801977122E+02 -0.84058104816E+02  0.88676406512E+02  0.00000000000E+00 0. -1.
         13    1    3    3    0    0 -0.41792461188E+02 -0.47999438853E+02 -0.32891743981E+03  0.33501826540E+03  0.00000000000E+00 0.  1.
         -3    1    1    2    0  502  0.35014097670E+02  0.93780247606E+01 -0.57497880703E+02  0.67970145427E+02  0.00000000000E+00 0.  1.
<scales pt_clust_5="13000.00000" pt_clust_6="13000.00000" pt_clust_7="13000.00000" pt_clust_8="13000.00000" pt_clust_9="36.24823"></scales>
<clustering>
<clus scale="   36.248">  1  9  2 -1</clus>
<clus scale="   86.243">  7  8 -1 -1</clus>
<clus scale="   92.029">  5  6 -1 -1</clus>
<clus scale="   92.693">  2  7  1 -1</clus>
<clus scale="   36.248">  1  5  2 -1</clus>
</clustering>
</event>
<event>
 9    1  0.1464797E-005  0.1481513E+03  0.7546771E-02  0.1204724E+00
         21   -1    0    0  501  502  0.00000000000E+00  0.00000000000E+00  0.73069984694E+02  0.73069984694E+02  0.00000000000E+00 0.  1.
          3   -1    0    0  502    0 -0.00000000000E+00 -0.00000000000E+00 -0.47792935270E+03  0.47792935270E+03  0.00000000000E+00 0. -1.
         23    2    1    2    0    0  0.46285190383E+02  0.90580131787E+02 -0.25102513810E+03  0.28768014931E+03  0.96949312657E+02 0.  0.
         23    2    1    2    0    0 -0.61683445519E+02 -0.12561082911E+03 -0.87402576364E+02  0.18665485082E+03  0.87280554172E+02 0.  0.
        -13    1    3    3    0    0 -0.63450170752E+01  0.47072432688E+02 -0.19082537795E+03  0.19664790370E+03  0.00000000000E+00 0. -1.
         13    1    3    3    0    0  0.52630207458E+02  0.43507699099E+02 -0.60199760151E+02  0.91032245607E+02  0.00000000000E+00 0.  1.
        -13    1    4    4    0    0 -0.55818373392E+02 -0.23993522395E+02 -0.17674152992E+02  0.63275236934E+02  0.00000000000E+00 0. -1.
         13    1    4    4    0    0 -0.58650721268E+01 -0.10161730672E+03 -0.69728423372E+02  0.12337961388E+03  0.00000000000E+00 0.  1.
          3    1    1    2  501    0  0.15398255136E+02  0.35030697327E+02 -0.66431653546E+02  0.76664337272E+02  0.00000000000E+00 0. -1.
<scales pt_clust_5="13000.00000" pt_clust_6="13000.00000" pt_clust_7="13000.00000" pt_clust_8="13000.00000" pt_clust_9="38.26562"></scales>
<clustering>
<clus scale="   38.266">  1  9  2 -1</clus>
<clus scale="   87.281">  7  8 -1 -1</clus>
<clus scale="   96.949">  5  6 -1 -1</clus>
<clus scale="  142.012">  1  7  2 -1</clus>
<clus scale="   38.266">  1  5  2 -1</clus>
</clustering>
</event>
<event>
 9    1  0.1464797E-005  0.9948329E+02  0.7546771E-02  0.1282074E+00
         21   -1    0    0  501  502  0.00000000000E+00  0.00000000000E+00  0.34183096412E+03  0.34183096412E+03  0.00000000000E+00 0. -1.
         -1   -1    0    0    0  501 -0.00000000000E+00 -0.00000000000E+00 -0.13685257393E+03  0.13685257393E+03  0.00000000000E+00 0.  1.
         23    2    1    2    0    0 -0.18545365073E+02  0.32523116011E+02 -0.88340212685E+02  0.13215492312E+03  0.90880398810E+02 0.  0.
         23    2    1    2    0    0 -0.40809735677E+02 -0.57487889792E+02  0.22133375722E+03  0.24994659838E+03  0.92273387047E+02 0.  0.
        -11    1    3    3    0    0 -0.42124994143E+02  0.49981988863E+02 -0.76220771815E+02  0.10041075838E+03  0.00000000000E+00 0.  1.
         11    1    3    3    0    0  0.23579629070E+02 -0.17458872852E+02 -0.12119440870E+02  0.31744164744E+02  0.00000000000E+00 0. -1.
        -11    1    4    4    0    0 -0.67349021625E+02 -0.36655210547E+02  0.11362466815E+03  0.13707684117E+03  0.00000000000E+00 0.  1.
         11    1    4    4    0    0  0.26539285947E+02 -0.20832679245E+02  0.10770908907E+03  0.11286975721E+03  0.00000000000E+00 0. -1.
         -1    1    1    2    0  502  0.59355100750E+02  0.24964773781E+02  0.71984845654E+02  0.96582016540E+02  0.00000000000E+00 0.  1.
<scales pt_clust_5="13000.00000" pt_clust_6="13000.00000" pt_clust_7="13000.00000" pt_clust_8="13000.00000" pt_clust_9="64.39152"></scales>
<clustering>
<clus scale="   64.392">  1  9  2 -1</clus>
<clus scale="   90.880">  5  6 -1 -1</clus>
<clus scale="   92.273">  7  8 -1 -1</clus>
<clus scale="   98.193">  2  5  1 -1</clus>
<clus scale="   64.392">  1  5  2 -1</clus>
</clustering>
</event>
<event>
 9    1  0.1464797E-005  0.1228511E+03  0.7546771E-02  0.1242223E+00
         21   -1    0    0  501  502  0.00000000000E+00  0.00000000000E+00  0.48333897624E+02  0.48333897624E+02  0.00000000000E+00 0.  1.
          1   -1    0    0  502    0 -0.00000000000E+00 -0.00000000000E+00 -0.44254315725E+03  0.44254315725E+03  0.00000000000E+00 0. -1.
         23    2    1    2    0    0  0.58812321015E+02  0.43416071800E+02 -0.26464692130E+03  0.28982780348E+03  0.92834898197E+02 0.  0.
         23    2    1    2    0    0 -0.74961312596E+02 -0.58927680419E+02 -0.12773558087E+03  0.17858289935E+03  0.80522067877E+02 0.  0.
        -13    1    4    4    0    0 -0.30058632229E+02 -0.62434368478E+02 -0.40122916907E+02  0.80071344437E+02  0.00000000000E+00 0.  1.
         13    1    4    4    0    0 -0.44902680367E+02  0.35066880590E+01 -0.87612663961E+02  0.98511554914E+02  0.00000000000E+00 0. -1.
        -13    1    3    3    0    0  0.10580191732E+02 -0.20932884185E+02 -0.15725882628E+02  0.28238793916E+02  0.00000000000E+00 0.  1.
         13    1    3    3    0    0  0.48232129283E+02  0.64348955985E+02 -0.24892103868E+03  0.26158900957E+03  0.00000000000E+00 0. -1.
          1    1    1    2  501    0  0.16148991581E+02  0.15511608619E+02 -0.18267574523E+01  0.22466352037E+02  0.00000000000E+00 0. -1.
<scales pt_clust_5="13000.00000" pt_clust_6="13000.00000" pt_clust_7="13000.00000" pt_clust_8="13000.00000" pt_clust_9="22.39196"></scales>
<clustering>
<clus scale="   22.392">  1  9  2 -1</clus>
<clus scale="   80.522">  5  6 -1 -1</clus>
<clus scale="   92.835">  7  8 -1 -1</clus>
<clus scale="  113.833">  1  5  2 -1</clus>
<clus scale="   22.392">  1  5  2 -1</clus>
</clustering>
</event>
<event>
 9    1  0.4762655E-005  0.1921929E+03  0.7546771E-02  0.1156911E+00
         -1   -1    0    0    0  501 -0.00000000000E+00  0.00000000000E+00  0.57726861107E+03  0.57726861107E+03  0.00000000000E+00 0.  1.
         21   -1    0    0  501  502  0.00000000000E+00 -0.00000000000E+00 -0.33758446229E+03  0.33758446229E+03  0.00000000000E+00 0.  1.
         23    2    1    2    0    0 -0.16288091663E+03  0.34017474767E+02  0.40994603376E+03  0.45224048318E+03  0.93692702170E+02 0.  0.
         23    2    1    2    0    0  0.17217429988E+03 -0.94080382335E+02 -0.27010731016E+03  0.34572363105E+03  0.89842986285E+02 0.  0.
        -11    1    3    3    0    0 -0.86564221437E+02  0.55614600028E+02  0.29628799840E+03  0.31364458575E+03  0.00000000000E+00 0.  1.
         11    1    3    3    0    0 -0.76316695194E+02 -0.21597125261E+02  0.11365803535E+03  0.13859589743E+03  0.00000000000E+00 0. -1.
        -13    1    4    4    0    0  0.43654416598E+02  0.85947107946E+01 -0.26526510196E+02  0.51799931326E+02  0.00000000000E+00 0. -1.
         13    1    4    4    0    0  0.12851988328E+03 -0.10267509313E+03 -0.24358079997E+03  0.29392369972E+03  0.00000000000E+00 0.  1.
         -1    1    1    2    0  502 -0.92933832451E+01  0.60062907568E+02  0.99845425177E+02  0.11688895913E+03  0.00000000000E+00 0.  1.
<scales pt_clust_5="13000.00000" pt_clust_6="13000.00000" pt_clust_7="13000.00000" pt_clust_8="13000.00000" pt_clust_9="60.77766"></scales>
<clustering>
<clus scale="   60.778">  2  9  1 -1</clus>
<clus scale="   89.843">  7  8 -1 -1</clus>
<clus scale="   93.693">  5  6 -1 -1</clus>
<clus scale="  190.346">  2  7  1 -1</clus>
<clus scale="   60.778">  2  5  1 -1</clus>
</clustering>
</event>
<event>
 9    1  0.1464797E-005  0.1412438E+03  0.7546771E-02  0.1212158E+00
         -1   -1    0    0    0  501 -0.00000000000E+00  0.00000000000E+00  0.46511422882E+03  0.46511422882E+03  0.00000000000E+00 0.  1.
         21   -1    0    0  501  502  0.00000000000E+00 -0.00000000000E+00 -0.68549744738E+02  0.68549744738E+02  0.00000000000E+00 0.  1.
         23    2    1    2    0    0  0.75121790701E+02  0.94972556370E+02  0.31663000057E+03  0.35116969029E+03  0.91665283591E+02 0.  0.
         23    2    1    2    0    0 -0.54625574912E+02 -0.59653298240E+02  0.73420703018E+02  0.14114244905E+03  0.89376293656E+02 0.  0.
        -11    1    4    4    0    0 -0.14935055723E+02 -0.73679672154E+02  0.62208206372E+02  0.97578742143E+02  0.00000000000E+00 0.  1.
         11    1    4    4    0    0 -0.39690519189E+02  0.14026373914E+02  0.11212496646E+02  0.43563706910E+02  0.00000000000E+00 0. -1.
        -13    1    3    3    0    0  0.19799561559E+02  0.51054975305E+02  0.24317036404E+03  0.24925982245E+03  0.00000000000E+00 0.  1.
         13    1    3    3    0    0  0.55322229142E+02  0.43917581065E+02  0.73459636534E+02  0.10190986784E+03  0.00000000000E+00 0. -1.
         -1    1    1    2    0  502 -0.20496215789E+02 -0.35319258130E+02  0.65137804924E+01  0.41351834214E+02  0.00000000000E+00 0.  1.
<scales pt_clust_5="13000.00000" pt_clust_6="13000.00000" pt_clust_7="13000.00000" pt_clust_8="13000.00000" pt_clust_9="40.83558"></scales>
<clustering>
<clus scale="   40.836">  2  9  1 -1</clus>
<clus scale="   89.376">  5  6 -1 -1</clus>
<clus scale="   91.665">  7  8 -1 -1</clus>
<clus scale="  139.769">  2  5  1 -1</clus>
<clus scale="   40.836">  2  5  1 -1</clus>
</clustering>
</event>
<event>
 9    1  0.1464797E-005  0.9177928E+02  0.7546771E-02  0.1317001E+00
         21   -1    0    0  501  502  0.00000000000E+00  0.00000000000E+00  0.39275716620E+02  0.39275716620E+02  0.00000000000E+00 0. -1.
          2   -1    0    0  502    0 -0.00000000000E+00 -0.00000000000E+00 -0.37890856072E+03  0.37890856072E+03  0.00000000000E+00 0. -1.
         23    2    1    2    0    0 -0.46472964323E+01  0.12957337563E+02 -0.21385417231E+03  0.22387175000E+03  0.64772397460E+02 0.  0.
         23    2    1    2    0    0 -0.25795272848E+02 -0.20741305046E+01 -0.13088042382E+03  0.16158299796E+03  0.91157455929E+02 0.  0.
        -11    1    3    3    0    0 -0.25713673956E+02  0.29470733306E+02 -0.11562527991E+03  0.12206114249E+03  0.00000000000E+00 0. -1.
         11    1    3    3    0    0  0.21066377524E+02 -0.16513395743E+02 -0.98228892393E+02  0.10181060751E+03  0.00000000000E+00 0.  1.
        -13    1    4    4    0    0 -0.53123890114E+02 -0.14928917957E+01 -0.39540718967E+02  0.66240809801E+02  0.00000000000E+00 0.  1.
         13    1    4    4    0    0  0.27328617266E+02 -0.58123870890E+00 -0.91339704850E+02  0.95342188155E+02  0.00000000000E+00 0. -1.
          2    1    1    2  501    0  0.30442569280E+02 -0.10883207058E+02  0.51017520215E+01  0.32729529388E+02  0.00000000000E+00 0. -1.
<scales pt_clust_5="13000.00000" pt_clust_6="13000.00000" pt_clust_7="13000.00000" pt_clust_8="13000.00000" pt_clust_9="32.32946"></scales>
<clustering>
<clus scale="   32.329">  1  9  2 -1</clus>
<clus scale="   64.772">  5  6 -1 -1</clus>
<clus scale="   65.645">  2  5  1 -1</clus>
<clus scale="   91.157">  7  8 -1 -1</clus>
<clus scale="   32.329">  1  5  2 -1</clus>
</clustering>
</event>
<event>
 9    1  0.1464797E-005  0.1527151E+03  0.7546771E-02  0.1212049E+00
         -1   -1    0    0    0  501 -0.00000000000E+00  0.00000000000E+00  0.59154549793E+03  0.59154549793E+03  0.00000000000E+00 0.  1.
         21   -1    0    0  501  502  0.00000000000E+00 -0.00000000000E+00 -0.99224320714E+02  0.99224320714E+02  0.00000000000E+00 0.  1.
         23    2    1    2    0    0 -0.32505266907E+02 -0.36028873619E+02  0.35393782525E+03  0.37088619432E+03  0.99648948231E+02 0.  0.
         23    2    1    2    0    0  0.89237331168E+02 -0.81817184336E+02  0.40391581686E+02  0.15645594144E+03  0.90496567967E+02 0.  0.
        -13    1    3    3    0    0 -0.31982319044E+02 -0.67127494703E+02  0.29521066699E+03  0.30443112058E+03  0.00000000000E+00 0.  1.
         13    1    3    3    0    0 -0.52294786244E+00  0.31098621084E+02  0.58727158265E+02  0.66455073739E+02  0.00000000000E+00 0. -1.
        -13    1    4    4    0    0 -0.98050281079E+01 -0.20615720136E+02  0.32561723337E+02  0.39766975238E+02  0.00000000000E+00 0. -1.
         13    1    4    4    0    0  0.99042359276E+02 -0.61201464200E+02  0.78298583481E+01  0.11668896620E+03  0.00000000000E+00 0.  1.
         -1    1    1    2    0  502 -0.56732064262E+02  0.11784605796E+03  0.97991770284E+02  0.16342768289E+03  0.00000000000E+00 0.  1.
<scales pt_clust_5="13000.00000" pt_clust_6="13000.00000" pt_clust_7="13000.00000" pt_clust_8="13000.00000" pt_clust_9="123.01339"></scales>
<clustering>
<clus scale="   90.497">  7  8 -1 -1</clus>
<clus scale="   99.649">  5  6 -1 -1</clus>
<clus scale="  110.836">  1  5  2 -1</clus>
<clus scale="  123.013">  2  9  1 -1</clus>
<clus scale="  123.013">  2  5  1 -1</clus>
</clustering>
</event>
<event>
 9    1  0.1464797E-005  0.1055580E+03  0.7546771E-02  0.1270382E+00
         -1   -1    0    0    0  501 -0.00000000000E+00  0.00000000000E+00  0.47708339966E+03  0.47708339966E+03  0.00000000000E+00 0.  1.
         21   -1    0    0  501  502  0.00000000000E+00 -0.00000000000E+00 -0.59803994787E+02  0.59803994787E+02  0.00000000000E+00 0.  1.
         23    2    1    2    0    0  0.19081813062E+01  0.69529413198E+02  0.33149312566E+03  0.34992015147E+03  0.87854650347E+02 0.  0.
         23    2    1    2    0    0  0.27771380785E+02 -0.81596857179E+01  0.65544024758E+02  0.11585557922E+03  0.91042111104E+02 0.  0.
        -13    1    3    3    0    0 -0.27774369171E+02  0.71107327081E+02  0.28233963806E+03  0.29247792869E+03  0.00000000000E+00 0.  1.
         13    1    3    3    0    0  0.29682550477E+02 -0.15779138827E+01  0.49153487597E+02  0.57442222781E+02  0.00000000000E+00 0. -1.
        -13    1    4    4    0    0  0.17303888080E+02  0.35482807971E+02  0.39915664191E+01  0.39678543404E+02  0.00000000000E+00 0.  1.
         13    1    4    4    0    0  0.10467492704E+02 -0.43642493689E+02  0.61552458339E+02  0.76177035821E+02  0.00000000000E+00 0. -1.
         -1    1    1    2    0  502 -0.29679562091E+02 -0.61369727480E+02  0.20242254457E+02  0.71111663758E+02  0.00000000000E+00 0.  1.
<scales pt_clust_5="13000.00000" pt_clust_6="13000.00000" pt_clust_7="13000.00000" pt_clust_8="13000.00000" pt_clust_9="68.16979"></scales>
<clustering>
<clus scale="   68.170">  2  9  1 -1</clus>
<clus scale="   87.855">  5  6 -1 -1</clus>
<clus scale="   91.042">  7  8 -1 -1</clus>
<clus scale="  102.822">  1  5  2 -1</clus>
<clus scale="   68.170">  2  5  1 -1</clus>
</clustering>
</event>
<event>
 9    1  0.1464797E-005  0.9966341E+02  0.7546771E-02  0.1281209E+00
         -1   -1    0    0    0  501 -0.00000000000E+00  0.00000000000E+00  0.40572578207E+02  0.40572578207E+02  0.00000000000E+00 0.  1.
         21   -1    0    0  501  502  0.00000000000E+00 -0.00000000000E+00 -0.37139773290E+03  0.37139773290E+03  0.00000000000E+00 0.  1.
         23    2    1    2    0    0  0.50681479860E+02 -0.22371645549E+02 -0.97054231881E+02  0.14430446627E+03  0.91297054352E+02 0.  0.
         23    2    1    2    0    0 -0.17826828630E+02  0.51043262012E+01 -0.15594191198E+03  0.18143972726E+03  0.90877085961E+02 0.  0.
        -11    1    4    4    0    0  0.18219969057E+02  0.38950504965E+02 -0.79868723770E+02  0.90708997052E+02  0.00000000000E+00 0. -1.
         11    1    4    4    0    0 -0.36046797687E+02 -0.33846178764E+02 -0.76073188207E+02  0.90730730210E+02  0.00000000000E+00 0.  1.
        -13    1    3    3    0    0  0.29403963761E+02 -0.30427276676E+02 -0.11018885068E+03  0.11803387253E+03  0.00000000000E+00 0.  1.
         13    1    3    3    0    0  0.21277516099E+02  0.80556311265E+01  0.13134618800E+02  0.26270593735E+02  0.00000000000E+00 0. -1.
         -1    1    1    2    0  502 -0.32854651229E+02  0.17267319348E+02 -0.77829010833E+02  0.86226117575E+02  0.00000000000E+00 0.  1.
<scales pt_clust_5="13000.00000" pt_clust_6="13000.00000" pt_clust_7="13000.00000" pt_clust_8="13000.00000" pt_clust_9="37.11588"></scales>
<clustering>
<clus scale="   37.116">  2  9  1 -1</clus>
<clus scale="   90.877">  5  6 -1 -1</clus>
<clus scale="   91.297">  7  8 -1 -1</clus>
<clus scale="   99.279">  2  5  1 -1</clus>
<clus scale="   37.116">  2  5  1 -1</clus>
</clustering>
</event>
<event>
 9    1  0.1464797E-005  0.2132575E+03  0.7546771E-02  0.1139083E+00
         21   -1    0    0  501  502  0.00000000000E+00  0.00000000000E+00  0.78078372038E+03  0.78078372038E+03  0.00000000000E+00 0. -1.
         -1   -1    0    0    0  501 -0.00000000000E+00 -0.00000000000E+00 -0.88310921608E+02  0.88310921608E+02  0.00000000000E+00 0.  1.
         23    2    1    2    0    0  0.12589981870E+03  0.13362149291E+03  0.13764613500E+03  0.24756263312E+03  0.92926482361E+02 0.  0.
         23    2    1    2    0    0 -0.12961444966E+03 -0.17304339340E+03  0.51113567597E+03  0.56256772190E+03  0.92080621827E+02 0.  0.
        -13    1    3    3    0    0  0.82025554760E+02  0.28769618031E+02  0.32732773588E+02  0.92883351695E+02  0.00000000000E+00 0.  1.
         13    1    3    3    0    0  0.43874263944E+02  0.10485187488E+03  0.10491336141E+03  0.15467928143E+03  0.00000000000E+00 0. -1.
        -13    1    4    4    0    0 -0.61252556509E+02 -0.26002449616E+02  0.21345343528E+03  0.22358526807E+03  0.00000000000E+00 0. -1.
         13    1    4    4    0    0 -0.68361893149E+02 -0.14704094378E+03  0.29768224070E+03  0.33898245384E+03  0.00000000000E+00 0.  1.
         -1    1    1    2    0  502  0.37146309531E+01  0.39421900492E+02  0.43690987807E+02  0.58964286963E+02  0.00000000000E+00 0.  1.
<scales pt_clust_5="13000.00000" pt_clust_6="13000.00000" pt_clust_7="13000.00000" pt_clust_8="13000.00000" pt_clust_9="39.59654"></scales>
<clustering>
<clus scale="   39.597">  1  9  2 -1</clus>
<clus scale="   92.081">  7  8 -1 -1</clus>
<clus scale="   92.926">  5  6 -1 -1</clus>
<clus scale="  212.890">  1  7  2 -1</clus>
<clus scale="   39.597">  1  5  2 -1</clus>
</clustering>
</event>
<event>
 9    1  0.1464797E-005  0.1076751E+03  0.7546771E-02  0.1267001E+00
         21   -1    0    0  501  502  0.00000000000E+00  0.00000000000E+00  0.38429763375E+02  0.38429763375E+02  0.00000000000E+00 0.  1.
          4   -1    0    0  502    0 -0.00000000000E+00 -0.00000000000E+00 -0.45869136638E+03  0.45869136638E+03  0.00000000000E+00 0. -1.
         23    2    1    2    0    0 -0.34155662205E+02 -0.31444196296E+02 -0.26015885480E+03  0.27934721700E+03  0.90536684131E+02 0.  0.
         23    2    1    2    0    0  0.19782539190E+02  0.60778177859E+02 -0.12026960214E+03  0.16625936466E+03  0.95352311871E+02 0.  0.
        -11    1    3    3    0    0 -0.61039830377E+02 -0.29298176478E+01 -0.18062057757E+03  0.19067836208E+03  0.00000000000E+00 0.  1.
         11    1    3    3    0    0  0.26884168173E+02 -0.28514378648E+02 -0.79538277228E+02  0.88668854918E+02  0.00000000000E+00 0. -1.
        -11    1    4    4    0    0  0.41210116889E+02  0.68883189092E+02 -0.11870464565E+03  0.14329675632E+03  0.00000000000E+00 0. -1.
         11    1    4    4    0    0 -0.21427577699E+02 -0.81050112331E+01 -0.15649564914E+01  0.22962608344E+02  0.00000000000E+00 0.  1.
          4    1    1    2  501    0  0.14373123014E+02 -0.29333981563E+02 -0.39833146066E+02  0.51514548091E+02  0.00000000000E+00 0. -1.
<scales pt_clust_5="13000.00000" pt_clust_6="13000.00000" pt_clust_7="13000.00000" pt_clust_8="13000.00000" pt_clust_9="32.66602"></scales>
<clustering>
<clus scale="   32.666">  1  9  2 -1</clus>
<clus scale="   90.537">  5  6 -1 -1</clus>
<clus scale="   95.352">  7  8 -1 -1</clus>
<clus scale="  103.435">  2  5  1 -1</clus>
<clus scale="   32.666">  1  5  2 -1</clus>
</clustering>
</event>
<event>
 9    1  0.1464797E-005  0.1650661E+03  0.7546771E-02  0.1183262E+00
         21   -1    0    0  501  502  0.00000000000E+00  0.00000000000E+00  0.23658114356E+03  0.23658114356E+03  0.00000000000E+00 0.  1.
         -3   -1    0    0    0  501 -0.00000000000E+00 -0.00000000000E+00 -0.18493159087E+03  0.18493159087E+03  0.00000000000E+00 0.  1.
         23    2    1    2    0    0 -0.52114990537E+02  0.13600016945E+03 -0.84942798598E+02  0.19249703772E+03  0.92886017078E+02 0.  0.
         23    2    1    2    0    0  0.31248138825E+02 -0.10990767864E+03  0.91071105004E+02  0.17254953481E+03  0.91778275164E+02 0.  0.
        -13    1    3    3    0    0  0.12977843944E+02  0.30792693198E+02  0.11808958784E+02  0.35441019954E+02  0.00000000000E+00 0. -1.
         13    1    3    3    0    0 -0.65092834481E+02  0.10520747625E+03 -0.96751757382E+02  0.15705601777E+03  0.00000000000E+00 0.  1.
        -13    1    4    4    0    0  0.36950434839E+02 -0.73956795383E+02  0.94905982875E+01  0.83216667045E+02  0.00000000000E+00 0.  1.
         13    1    4    4    0    0 -0.57022960141E+01 -0.35950883254E+02  0.81580506717E+02  0.89332867763E+02  0.00000000000E+00 0. -1.
         -3    1    1    2    0  502  0.20866851712E+02 -0.26092490811E+02  0.45521246278E+02  0.56466161900E+02  0.00000000000E+00 0.  1.
<scales pt_clust_5="13000.00000" pt_clust_6="13000.00000" pt_clust_7="13000.00000" pt_clust_8="13000.00000" pt_clust_9="33.41023"></scales>
<clustering>
<clus scale="   33.410">  1  9  2 -1</clus>
<clus scale="   91.778">  7  8 -1 -1</clus>
<clus scale="   92.886">  5  6 -1 -1</clus>
<clus scale="  164.445">  1  7  2 -1</clus>
<clus scale="   33.410">  1  5  2 -1</clus>
</clustering>
</event>
<event>
 9    1  0.1464797E-005  0.1096135E+03  0.7546771E-02  0.1271163E+00
          1   -1    0    0  502    0 -0.00000000000E+00  0.00000000000E+00  0.59232344506E+03  0.59232344506E+03  0.00000000000E+00 0. -1.
         21   -1    0    0  501  502  0.00000000000E+00 -0.00000000000E+00 -0.23368572313E+02  0.23368572313E+02  0.00000000000E+00 0.  1.
         23    2    1    2    0    0 -0.35303829974E+01  0.10654586348E+02  0.35504818360E+03  0.37166267147E+03  0.10930665522E+03 0.  0.
         23    2    1    2    0    0 -0.14832069296E+02 -0.18131351233E+01  0.19845850206E+03  0.21845597306E+03  0.90077507667E+02 0.  0.
        -11    1    3    3    0    0 -0.60445019931E+01  0.55713223788E+02  0.12159283116E+03  0.13388545813E+03  0.00000000000E+00 0.  1.
         11    1    3    3    0    0  0.25141189957E+01 -0.45058637440E+02  0.23345535244E+03  0.23777721334E+03  0.00000000000E+00 0. -1.
        -13    1    4    4    0    0  0.30527748931E+01  0.29275069809E+02  0.18073197655E+02  0.34539681822E+02  0.00000000000E+00 0.  1.
         13    1    4    4    0    0 -0.17884844189E+02 -0.31088204933E+02  0.18038530441E+03  0.18391629124E+03  0.00000000000E+00 0. -1.
          1    1    1    2  501    0  0.18362452293E+02 -0.88414512243E+01  0.15448187080E+02  0.25573372833E+02  0.00000000000E+00 0. -1.
<scales pt_clust_5="13000.00000" pt_clust_6="13000.00000" pt_clust_7="13000.00000" pt_clust_8="13000.00000" pt_clust_9="20.38016"></scales>
<clustering>
<clus scale="   20.380">  2  9  1 -1</clus>
<clus scale="   90.078">  7  8 -1 -1</clus>
<clus scale="   90.450">  2  7  1 -1</clus>
<clus scale="  109.307">  5  6 -1 -1</clus>
<clus scale="   20.380">  2  5  1 -1</clus>
</clustering>
</event>
<event>
 9    1  0.1464797E-005  0.1126779E+03  0.7546771E-02  0.1255802E+00
         21   -1    0    0  501  502  0.00000000000E+00  0.00000000000E+00  0.18469479518E+03  0.18469479518E+03  0.00000000000E+00 0.  1.
          3   -1    0    0  502    0 -0.00000000000E+00 -0.00000000000E+00 -0.11733016454E+03  0.11733016454E+03  0.00000000000E+00 0. -1.
         23    2    1    2    0    0 -0.30130663542E+02  0.80386028802E+02 -0.15421063502E+02  0.12693385684E+03  0.92220519951E+02 0.  0.
         23    2    1    2    0    0 -0.17018066846E+01 -0.35435964809E+02  0.50006034106E+02  0.11099492105E+03  0.92523863425E+02 0.  0.
        -11    1    3    3    0    0 -0.61174817302E+02  0.34237371932E+02 -0.12728338301E+02  0.71250028103E+02  0.00000000000E+00 0.  1.
         11    1    3    3    0    0  0.31044153760E+02  0.46148656869E+02 -0.26927252004E+01  0.55683828734E+02  0.00000000000E+00 0. -1.
        -13    1    4    4    0    0  0.13498326453E+02  0.29348846222E+02  0.12732658518E+02  0.34722905762E+02  0.00000000000E+00 0.  1.
         13    1    4    4    0    0 -0.15200133138E+02 -0.64784811031E+02  0.37273375588E+02  0.76272015284E+02  0.00000000000E+00 0. -1.
          3    1    1    2  501    0  0.31832470227E+02 -0.44950063993E+02  0.32779660044E+02  0.64096181839E+02  0.00000000000E+00 0. -1.
<scales pt_clust_5="13000.00000" pt_clust_6="13000.00000" pt_clust_7="13000.00000" pt_clust_8="13000.00000" pt_clust_9="55.08007"></scales>
<clustering>
<clus scale="   55.080">  1  9  2 -1</clus>
<clus scale="   92.221">  5  6 -1 -1</clus>
<clus scale="   92.524">  7  8 -1 -1</clus>
<clus scale="  112.429">  2  5  1 -1</clus>
<clus scale="   55.080">  1  5  2 -1</clus>
</clustering>
</event>
<event>
 9    1  0.1464797E-005  0.1083287E+03  0.7546771E-02  0.1264721E+00
         -2   -1    0    0    0  501 -0.00000000000E+00  0.00000000000E+00  0.14970620131E+03  0.14970620131E+03  0.00000000000E+00 0.  1.
         21   -1    0    0  501  502  0.00000000000E+00 -0.00000000000E+00 -0.10246037491E+03  0.10246037491E+03  0.00000000000E+00 0.  1.
         23    2    1    2    0    0 -0.15893016065E+02 -0.58907281315E+02  0.51077074845E+02  0.12288239123E+03  0.93640582811E+02 0.  0.
         23    2    1    2    0    0  0.27412057076E+02  0.37041925166E+02 -0.12919950854E+02  0.10295194966E+03  0.91151816857E+02 0.  0.
        -11    1    3    3    0    0  0.23653519120E+02  0.10262249059E+02 -0.39031834957E+01  0.26077529866E+02  0.00000000000E+00 0.  1.
         11    1    3    3    0    0 -0.39546535185E+02 -0.69169530374E+02  0.54980258341E+02  0.96804861369E+02  0.00000000000E+00 0. -1.
        -11    1    4    4    0    0 -0.20473875512E+02 -0.17836669557E+02  0.57669084616E+01  0.27759387468E+02  0.00000000000E+00 0. -1.
         11    1    4    4    0    0  0.47885932588E+02  0.54878594723E+02 -0.18686859316E+02  0.75192562196E+02  0.00000000000E+00 0.  1.
         -2    1    1    2    0  502 -0.11519041012E+02  0.21865356150E+02  0.90887024068E+01  0.26332235318E+02  0.00000000000E+00 0.  1.
<scales pt_clust_5="13000.00000" pt_clust_6="13000.00000" pt_clust_7="13000.00000" pt_clust_8="13000.00000" pt_clust_9="24.71402"></scales>
<clustering>
<clus scale="   24.714">  2  9  1 -1</clus>
<clus scale="   91.152">  7  8 -1 -1</clus>
<clus scale="   93.641">  5  6 -1 -1</clus>
<clus scale="  106.185">  2  7  1 -1</clus>
<clus scale="   24.714">  2  5  1 -1</clus>
</clustering>
</event>
<event>
 9    1  0.1464797E-005  0.1559435E+03  0.7546771E-02  0.1193535E+00
          1   -1    0    0  502    0 -0.00000000000E+00  0.00000000000E+00  0.11069039302E+04  0.11069039302E+04  0.00000000000E+00 0. -1.
         21   -1    0    0  501  502  0.00000000000E+00 -0.00000000000E+00 -0.61965700750E+02  0.61965700750E+02  0.00000000000E+00 0. -1.
         23    2    1    2    0    0  0.48959868667E+02 -0.10198731519E+03  0.47046360919E+03  0.49244564269E+03  0.91477987655E+02 0.  0.
         23    2    1    2    0    0 -0.11053550271E+03  0.14452371916E+03  0.17163320895E+03  0.26668979755E+03  0.92521818757E+02 0.  0.
        -13    1    3    3    0    0  0.66568935917E-01 -0.92749776293E+02  0.25595559007E+03  0.27224215236E+03  0.00000000000E+00 0. -1.
         13    1    3    3    0    0  0.48893299731E+02 -0.92375389003E+01  0.21450801912E+03  0.22020349032E+03  0.00000000000E+00 0.  1.
        -13    1    4    4    0    0 -0.15044258820E+02  0.62636171659E+02  0.10791346630E+03  0.12567790551E+03  0.00000000000E+00 0.  1.
         13    1    4    4    0    0 -0.95491243893E+02  0.81887547500E+02  0.63719742648E+02  0.14101189205E+03  0.00000000000E+00 0. -1.
          1    1    1    2  501    0  0.61575634047E+02 -0.42536403965E+02  0.40284141128E+03  0.40973419068E+03  0.00000000000E+00 0. -1.
<scales pt_clust_5="13000.00000" pt_clust_6="13000.00000" pt_clust_7="13000.00000" pt_clust_8="13000.00000" pt_clust_9="74.83923"></scales>
<clustering>
<clus scale="   74.839">  2  9  1 -1</clus>
<clus scale="   91.478">  5  6 -1 -1</clus>
<clus scale="   92.522">  7  8 -1 -1</clus>
<clus scale="  155.326">  1  5  2 -1</clus>
<clus scale="   74.839">  2  5  1 -1</clus>
</clustering>
</event>
<event>
 9    1  0.1464797E-005  0.1015835E+03  0.7546771E-02  0.1278207E+00
         21   -1    0    0  501  502  0.00000000000E+00  0.00000000000E+00  0.19255932020E+02  0.19255932020E+02  0.00000000000E+00 0.  1.
          1   -1    0    0  502    0 -0.00000000000E+00 -0.00000000000E+00 -0.90762293683E+03  0.90762293683E+03  0.00000000000E+00 0. -1.
         23    2    1    2    0    0  0.33505634986E+02 -0.23468463410E+02 -0.52859842086E+03  0.53830569011E+03  0.93184382382E+02 0.  0.
         23    2    1    2    0    0 -0.49384944177E+02 -0.13497575680E+02 -0.28880850150E+03  0.30700128525E+03  0.90655288564E+02 0.  0.
        -11    1    3    3    0    0 -0.21610341813E+02 -0.38056192579E+02 -0.19308527833E+03  0.19798284111E+03  0.00000000000E+00 0.  1.
         11    1    3    3    0    0  0.55115976799E+02  0.14587729169E+02 -0.33551314253E+03  0.34032284900E+03  0.00000000000E+00 0. -1.
        -13    1    4    4    0    0 -0.30546323533E+02  0.38083042127E+02 -0.14905476744E+03  0.15684616564E+03  0.00000000000E+00 0. -1.
         13    1    4    4    0    0 -0.18838620643E+02 -0.51580617807E+02 -0.13975373406E+03  0.15015511961E+03  0.00000000000E+00 0.  1.
          1    1    1    2  501    0  0.15879309191E+02  0.36966039090E+02 -0.70960082446E+02  0.81571893488E+02  0.00000000000E+00 0. -1.
<scales pt_clust_5="13000.00000" pt_clust_6="13000.00000" pt_clust_7="13000.00000" pt_clust_8="13000.00000" pt_clust_9="40.23233"></scales>
<clustering>
<clus scale="   40.232">  1  9  2 -1</clus>
<clus scale="   90.655">  7  8 -1 -1</clus>
<clus scale="   93.184">  5  6 -1 -1</clus>
<clus scale="   99.269">  1  7  2 -1</clus>
<clus scale="   40.232">  1  5  2 -1</clus>
</clustering>
</event>
<event>
 9    1  0.1464797E-005  0.1100764E+03  0.7546771E-02  0.1261594E+00
          1   -1    0    0  502    0 -0.00000000000E+00  0.00000000000E+00  0.65369494819E+03  0.65369494819E+03  0.00000000000E+00 0. -1.
         21   -1    0    0  501  502  0.00000000000E+00 -0.00000000000E+00 -0.24843949733E+02  0.24843949733E+02  0.00000000000E+00 0.  1.
         23    2    1    2    0    0  0.38909838607E+02  0.25350883762E+02  0.23044468363E+03  0.25190588280E+03  0.90527226432E+02 0.  0.
         23    2    1    2    0    0 -0.51105970901E+02 -0.51457027283E+02  0.26593097965E+03  0.29106019040E+03  0.93472469659E+02 0.  0.
        -11    1    4    4    0    0 -0.48371220065E+02  0.10013010692E+02  0.17050803373E+03  0.17751908314E+03  0.00000000000E+00 0. -1.
         11    1    4    4    0    0 -0.27347508365E+01 -0.61470037976E+02  0.95422945921E+02  0.11354110727E+03  0.00000000000E+00 0.  1.
        -13    1    3    3    0    0  0.42161100449E+02  0.48814478043E+02  0.21282238164E+03  0.22238205365E+03  0.00000000000E+00 0. -1.
         13    1    3    3    0    0 -0.32512618418E+01 -0.23463594280E+02  0.17622301991E+02  0.29523829148E+02  0.00000000000E+00 0.  1.
          1    1    1    2  501    0  0.12196132294E+02  0.26106143521E+02  0.13247533517E+03  0.13557282472E+03  0.00000000000E+00 0. -1.
<scales pt_clust_5="13000.00000" pt_clust_6="13000.00000" pt_clust_7="13000.00000" pt_clust_8="13000.00000" pt_clust_9="28.81453"></scales>
<clustering>
<clus scale="   28.815">  2  9  1 -1</clus>
<clus scale="   90.527">  7  8 -1 -1</clus>
<clus scale="   93.472">  5  6 -1 -1</clus>
<clus scale="  107.587">  1  7  2 -1</clus>
<clus scale="   28.815">  2  5  1 -1</clus>
</clustering>
</event>
<event>
 9    1  0.1464797E-005  0.1289530E+03  0.7546771E-02  0.1244663E+00
         -1   -1    0    0    0  501 -0.00000000000E+00  0.00000000000E+00  0.15432743578E+03  0.15432743578E+03  0.00000000000E+00 0.  1.
         21   -1    0    0  501  502  0.00000000000E+00 -0.00000000000E+00 -0.26014781740E+03  0.26014781740E+03  0.00000000000E+00 0.  1.
         23    2    1    2    0    0  0.31801049660E+01 -0.10140843812E+02  0.52492160415E+02  0.10739512976E+03  0.93087793027E+02 0.  0.
         23    2    1    2    0    0 -0.39820816870E+02 -0.81600069195E+02 -0.45138588073E+01  0.12428796863E+03  0.84751728458E+02 0.  0.
        -11    1    3    3    0    0 -0.20605684183E+02  0.26399256868E+02  0.54256582937E+02  0.63759640650E+02  0.00000000000E+00 0.  1.
         11    1    3    3    0    0  0.23785789149E+02 -0.36540100680E+02 -0.17644225224E+01  0.43635489111E+02  0.00000000000E+00 0. -1.
        -13    1    4    4    0    0 -0.62266091277E+02 -0.79065915278E+02 -0.97175530299E+01  0.10110843644E+03  0.00000000000E+00 0.  1.
         13    1    4    4    0    0  0.22445274407E+02 -0.25341539171E+01  0.52036942226E+01  0.23179532196E+02  0.00000000000E+00 0. -1.
         -1    1    1    2    0  502  0.36640711904E+02  0.91740913006E+02 -0.15379868322E+03  0.18279215478E+03  0.00000000000E+00 0.  1.
<scales pt_clust_5="13000.00000" pt_clust_6="13000.00000" pt_clust_7="13000.00000" pt_clust_8="13000.00000" pt_clust_9="97.19063"></scales>
<clustering>
<clus scale="   84.752">  7  8 -1 -1</clus>
<clus scale="   93.088">  5  6 -1 -1</clus>
<clus scale="   93.693">  1  5  2 -1</clus>
<clus scale="   97.191">  2  9  1 -1</clus>
<clus scale="   97.191">  2  5  1 -1</clus>
</clustering>
</event>
<event>
 9    1  0.1464797E-005  0.1134898E+03  0.7546771E-02  0.1254604E+00
         -3   -1    0    0    0  501 -0.00000000000E+00  0.00000000000E+00  0.48927155455E+03  0.48927155455E+03  0.00000000000E+00 0.  1.
         21   -1    0    0  501  502  0.00000000000E+00 -0.00000000000E+00 -0.67325558320E+02  0.67325558320E+02  0.00000000000E+00 0.  1.
         23    2    1    2    0    0  0.35822826079E+01  0.69012900928E+02  0.30979231236E+03  0.32958965550E+03  0.88783168304E+02 0.  0.
         23    2    1    2    0    0  0.64054907839E+02 -0.67242618294E+02  0.65759457351E+02  0.14496876109E+03  0.89816671771E+02 0.  0.
        -11    1    3    3    0    0 -0.33371726343E+02  0.49181340444E+02  0.24720892283E+03  0.25425327509E+03  0.00000000000E+00 0. -1.
         11    1    3    3    0    0  0.36954008951E+02  0.19831560483E+02  0.62583389529E+02  0.75336380413E+02  0.00000000000E+00 0.  1.
        -13    1    4    4    0    0  0.12989054695E+02 -0.15391480743E+02 -0.22748639920E+02  0.30382788542E+02  0.00000000000E+00 0. -1.
         13    1    4    4    0    0  0.51065853145E+02 -0.51851137551E+02  0.88508097271E+02  0.11458597255E+03  0.00000000000E+00 0.  1.
         -3    1    1    2    0  502 -0.67637190447E+02 -0.17702826333E+01  0.46394226520E+02  0.82038696275E+02  0.00000000000E+00 0.  1.
<scales pt_clust_5="13000.00000" pt_clust_6="13000.00000" pt_clust_7="13000.00000" pt_clust_8="13000.00000" pt_clust_9="67.66035"></scales>
<clustering>
<clus scale="   67.660">  2  9  1 -1</clus>
<clus scale="   88.783">  5  6 -1 -1</clus>
<clus scale="   89.817">  7  8 -1 -1</clus>
<clus scale="  112.674">  1  5  2 -1</clus>
<clus scale="   67.660">  2  5  1 -1</clus>
</clustering>
</event>
<event>
 9    1  0.1464797E-005  0.1009801E+03  0.7546771E-02  0.1280832E+00
         21   -1    0    0  501  502  0.00000000000E+00  0.00000000000E+00  0.94708316678E+02  0.94708316678E+02  0.00000000000E+00 0.  1.
         -1   -1    0    0    0  501 -0.00000000000E+00 -0.00000000000E+00 -0.59364163696E+03  0.59364163696E+03  0.00000000000E+00 0.  1.
         23    2    1    2    0    0 -0.65558571873E+01  0.19796441102E+02 -0.39241639081E+03  0.40323533774E+03  0.90405948282E+02 0.  0.
         23    2    1    2    0    0 -0.89615295757E+01 -0.10768250886E+03 -0.12852813538E+03  0.19319484988E+03  0.95545469339E+02 0.  0.
        -11    1    4    4    0    0 -0.38092217358E+02 -0.82726795385E+02 -0.12501984560E+03  0.15467611804E+03  0.00000000000E+00 0.  1.
         11    1    4    4    0    0  0.29130687783E+02 -0.24955713476E+02 -0.35082897784E+01  0.38518731845E+02  0.00000000000E+00 0. -1.
        -13    1    3    3    0    0  0.18155551817E+02  0.49390603507E+02 -0.18855366234E+03  0.19575888067E+03  0.00000000000E+00 0. -1.
         13    1    3    3    0    0 -0.24711409004E+02 -0.29594162405E+02 -0.20386272847E+03  0.20747645708E+03  0.00000000000E+00 0.  1.
         -1    1    1    2    0  502  0.15517386763E+02  0.87886067759E+02  0.22011205905E+02  0.91919766011E+02  0.00000000000E+00 0.  1.
<scales pt_clust_5="13000.00000" pt_clust_6="13000.00000" pt_clust_7="13000.00000" pt_clust_8="13000.00000" pt_clust_9="89.24545"></scales>
<clustering>
<clus scale="   89.245">  1  9  2 -1</clus>
<clus scale="   90.406">  7  8 -1 -1</clus>
<clus scale="   95.545">  5  6 -1 -1</clus>
<clus scale="   96.132">  2  7  1 -1</clus>
<clus scale="   89.245">  1  5  2 -1</clus>
</clustering>
</event>
<event>
 9    1  0.1464797E-005  0.1150046E+03  0.7546771E-02  0.1252249E+00
         -1   -1    0    0    0  501 -0.00000000000E+00  0.00000000000E+00  0.20663997660E+03  0.20663997660E+03  0.00000000000E+00 0.  1.
         21   -1    0    0  501  502  0.00000000000E+00 -0.00000000000E+00 -0.32645893179E+03  0.32645893179E+03  0.00000000000E+00 0. -1.
         23    2    1    2    0    0  0.39598311771E+02  0.51391329818E+02  0.15948404769E+03  0.19486655843E+03  0.91261815950E+02 0.  0.
         23    2    1    2    0    0 -0.88547128443E+02 -0.58461698416E+02 -0.21167421889E+03  0.25444912258E+03  0.93166608301E+02 0.  0.
        -11    1    4    4    0    0 -0.28337341438E+02  0.14573436921E+02 -0.11426947043E+03  0.11862926222E+03  0.00000000000E+00 0. -1.
         11    1    4    4    0    0 -0.60209787005E+02 -0.73035135337E+02 -0.97404748461E+02  0.13581986036E+03  0.00000000000E+00 0.  1.
        -13    1    3    3    0    0  0.26972309633E+02  0.24344596432E+02  0.16093216240E+03  0.16498280443E+03  0.00000000000E+00 0.  1.
         13    1    3    3    0    0  0.12626002138E+02  0.27046733385E+02 -0.14481147111E+01  0.29883753998E+02  0.00000000000E+00 0. -1.
         -1    1    1    2    0  502  0.48948816671E+02  0.70703685986E+01 -0.67628783998E+02  0.83783227383E+02  0.00000000000E+00 0.  1.
<scales pt_clust_5="13000.00000" pt_clust_6="13000.00000" pt_clust_7="13000.00000" pt_clust_8="13000.00000" pt_clust_9="49.45682"></scales>
<clustering>
<clus scale="   49.457">  2  9  1 -1</clus>
<clus scale="   91.262">  7  8 -1 -1</clus>
<clus scale="   93.167">  5  6 -1 -1</clus>
<clus scale="  113.467">  1  7  2 -1</clus>
<clus scale="   49.457">  2  5  1 -1</clus>
</clustering>
</event>
<event>
 9    1  0.1464797E-005  0.1341755E+03  0.7546771E-02  0.1221929E+00
          1   -1    0    0  502    0 -0.00000000000E+00  0.00000000000E+00  0.26547845857E+03  0.26547845857E+03  0.00000000000E+00 0. -1.
         21   -1    0    0  501  502  0.00000000000E+00 -0.00000000000E+00 -0.13268276934E+03  0.13268276934E+03  0.00000000000E+00 0.  1.
         23    2    1    2    0    0  0.99096884054E+02 -0.88387456092E+01  0.18697114246E+03  0.23152983794E+03  0.93538985954E+02 0.  0.
         23    2    1    2    0    0 -0.82541087579E+02  0.26106463604E+02 -0.24007689772E+02  0.12812992982E+03  0.91358257242E+02 0.  0.
        -13    1    3    3    0    0  0.41738005965E+02  0.39108371603E+02  0.52319813035E+02  0.77517022049E+02  0.00000000000E+00 0. -1.
         13    1    3    3    0    0  0.57358878089E+02 -0.47947117212E+02  0.13465132942E+03  0.15401281589E+03  0.00000000000E+00 0.  1.
        -13    1    4    4    0    0 -0.46229639645E+01 -0.25762387132E+02 -0.22498063533E+02  0.34514276022E+02  0.00000000000E+00 0.  1.
         13    1    4    4    0    0 -0.77918123614E+02  0.51868850736E+02 -0.15096262389E+01  0.93615653796E+02  0.00000000000E+00 0. -1.
          1    1    1    2  501    0 -0.16555796475E+02 -0.17267717995E+02 -0.30167763457E+02  0.38501460150E+02  0.00000000000E+00 0. -1.
<scales pt_clust_5="13000.00000" pt_clust_6="13000.00000" pt_clust_7="13000.00000" pt_clust_8="13000.00000" pt_clust_9="23.92213"></scales>
<clustering>
<clus scale="   23.922">  2  9  1 -1</clus>
<clus scale="   91.358">  7  8 -1 -1</clus>
<clus scale="   93.539">  5  6 -1 -1</clus>
<clus scale="  132.664">  2  7  1 -1</clus>
<clus scale="   23.922">  2  5  1 -1</clus>
</clustering>
</event>
<event>
 9    1  0.1464797E-005  0.1275338E+03  0.7546771E-02  0.1234020E+00
         21   -1    0    0  501  502  0.00000000000E+00  0.00000000000E+00  0.77247440144E+02  0.77247440144E+02  0.00000000000E+00 0. -1.
         -4   -1    0    0    0  501 -0.00000000000E+00 -0.00000000000E+00 -0.42907634115E+03  0.42907634115E+03  0.00000000000E+00 0.  1.
         23    2    1    2    0    0  0.80866378072E+02 -0.17407004095E+02 -0.31037079997E+03  0.33504860850E+03  0.95316114546E+02 0.  0.
         23    2    1    2    0    0 -0.82163593853E+02  0.48644223920E+02 -0.52099922622E+02  0.13824950039E+03  0.85331153425E+02 0.  0.
        -11    1    3    3    0    0  0.10119091034E+03 -0.13519568525E+02 -0.28216852581E+03  0.30006908542E+03  0.00000000000E+00 0.  1.
         11    1    3    3    0    0 -0.20324532267E+02 -0.38874355705E+01 -0.28202274155E+02  0.34979523077E+02  0.00000000000E+00 0. -1.
        -11    1    4    4    0    0 -0.21870780914E+02  0.42839832355E+01 -0.59009454879E+02  0.63077724557E+02  0.00000000000E+00 0.  1.
         11    1    4    4    0    0 -0.60292812939E+02  0.44360240684E+02  0.69095322568E+01  0.75171775832E+02  0.00000000000E+00 0. -1.
         -4    1    1    2    0  502  0.12972157819E+01 -0.31237219825E+02  0.10641821583E+02  0.33025672404E+02  0.00000000000E+00 0.  1.
<scales pt_clust_5="13000.00000" pt_clust_6="13000.00000" pt_clust_7="13000.00000" pt_clust_8="13000.00000" pt_clust_9="31.26414"></scales>
<clustering>
<clus scale="   31.264">  1  9  2 -1</clus>
<clus scale="   85.331">  7  8 -1 -1</clus>
<clus scale="   95.316">  5  6 -1 -1</clus>
<clus scale="  120.254">  1  7  2 -1</clus>
<clus scale="   31.264">  1  5  2 -1</clus>
</clustering>
</event>
<event>
 9    1  0.1464797E-005  0.1022159E+03  0.7546771E-02  0.1277013E+00
          1   -1    0    0  502    0 -0.00000000000E+00  0.00000000000E+00  0.66179438912E+03  0.66179438912E+03  0.00000000000E+00 0. -1.
         21   -1    0    0  501  502  0.00000000000E+00 -0.00000000000E+00 -0.23689290909E+02  0.23689290909E+02  0.00000000000E+00 0.  1.
         23    2    1    2    0    0 -0.36892441285E+02  0.42567044846E+02  0.37021917686E+03  0.38498632613E+03  0.89326518249E+02 0.  0.
         23    2    1    2    0    0  0.73729187240E+01 -0.30069363823E+02  0.23622380997E+03  0.25544090552E+03  0.92140334522E+02 0.  0.
        -11    1    3    3    0    0 -0.17226384368E+02  0.61441996853E+02  0.33179524954E+03  0.33787565007E+03  0.00000000000E+00 0.  1.
         11    1    3    3    0    0 -0.19666056916E+02 -0.18874952008E+02  0.38423927322E+02  0.47110676060E+02  0.00000000000E+00 0. -1.
        -13    1    4    4    0    0 -0.31908948659E+02 -0.17201466725E+02  0.19001410565E+03  0.19344102928E+03  0.00000000000E+00 0. -1.
         13    1    4    4    0    0  0.39281867383E+02 -0.12867897098E+02  0.46209704317E+02  0.61999876241E+02  0.00000000000E+00 0.  1.
          1    1    1    2  501    0  0.29519522561E+02 -0.12497681022E+02  0.31662111382E+02  0.45056448377E+02  0.00000000000E+00 0. -1.
<scales pt_clust_5="13000.00000" pt_clust_6="13000.00000" pt_clust_7="13000.00000" pt_clust_8="13000.00000" pt_clust_9="32.05611"></scales>
<clustering>
<clus scale="   32.056">  2  9  1 -1</clus>
<clus scale="   89.327">  5  6 -1 -1</clus>
<clus scale="   92.140">  7  8 -1 -1</clus>
<clus scale="   99.687">  1  5  2 -1</clus>
<clus scale="   32.056">  2  5  1 -1</clus>
</clustering>
</event>
<event>
 9    1  0.1464797E-005  0.3656265E+03  0.7546771E-02  0.1076782E+00
          1   -1    0    0  502    0 -0.00000000000E+00  0.00000000000E+00  0.98654226877E+03  0.98654226877E+03  0.00000000000E+00 0. -1.
         21   -1    0    0  501  502  0.00000000000E+00 -0.00000000000E+00 -0.74002653340E+03  0.74002653340E+03  0.00000000000E+00 0. -1.
         23    2    1    2    0    0  0.19265422287E+02 -0.18559724292E+03 -0.54344018556E+02  0.21501859733E+03  0.91990389536E+02 0.  0.
         23    2    1    2    0    0 -0.20787991779E+03  0.47256549081E+03  0.76907737174E+03  0.93090061961E+03  0.92540567070E+02 0.  0.
        -11    1    3    3    0    0 -0.11770004000E+02 -0.10883085867E+03  0.10330190422E+02  0.10995181503E+03  0.00000000000E+00 0. -1.
         11    1    3    3    0    0  0.31035426287E+02 -0.76766384247E+02 -0.64674208979E+02  0.10506678230E+03  0.00000000000E+00 0.  1.
        -13    1    4    4    0    0 -0.28859038372E+02  0.68928404432E+02  0.61159980177E+02  0.96563513858E+02  0.00000000000E+00 0.  1.
         13    1    4    4    0    0 -0.17902087942E+03  0.40363708638E+03  0.70791739156E+03  0.83433710576E+03  0.00000000000E+00 0. -1.
          1    1    1    2  501    0  0.18861449551E+03 -0.28696824789E+03 -0.46821761781E+03  0.58064958524E+03  0.00000000000E+00 0. -1.
<scales pt_clust_5="13000.00000" pt_clust_6="13000.00000" pt_clust_7="13000.00000" pt_clust_8="13000.00000" pt_clust_9="353.72165"></scales>
<clustering>
<clus scale="   91.990">  5  6 -1 -1</clus>
<clus scale="   92.541">  7  8 -1 -1</clus>
<clus scale="  208.038">  1  5  2 -1</clus>
<clus scale="  353.722">  2  9  1 -1</clus>
<clus scale="  353.722">  2  5  1 -1</clus>
</clustering>
</event>
<event>
 9    1  0.1464797E-005  0.1408024E+03  0.7546771E-02  0.1226843E+00
         21   -1    0    0  501  502  0.00000000000E+00  0.00000000000E+00  0.15108016385E+03  0.15108016385E+03  0.00000000000E+00 0.  1.
         -1   -1    0    0    0  501 -0.00000000000E+00 -0.00000000000E+00 -0.36648658654E+03  0.36648658654E+03  0.00000000000E+00 0.  1.
         23    2    1    2    0    0  0.24290194112E+02 -0.41267197765E+02  0.46214860233E+02  0.11346414054E+03  0.91898328278E+02 0.  0.
         23    2    1    2    0    0  0.57450224307E+02  0.10854574964E+03 -0.25589443833E+03  0.29808045983E+03  0.91034547971E+02 0.  0.
        -11    1    3    3    0    0  0.48081035180E+02 -0.24964734036E+02  0.60557481790E+02  0.81254122911E+02  0.00000000000E+00 0.  1.
         11    1    3    3    0    0 -0.23790841068E+02 -0.16302463729E+02 -0.14342621557E+02  0.32210017626E+02  0.00000000000E+00 0. -1.
        -13    1    4    4    0    0  0.79281301184E+02  0.87327919672E+02 -0.16966422429E+03  0.20663407095E+03  0.00000000000E+00 0.  1.
         13    1    4    4    0    0 -0.21831076876E+02  0.21217829970E+02 -0.86230214037E+02  0.91446388879E+02  0.00000000000E+00 0. -1.
         -1    1    1    2    0  502 -0.81740418419E+02 -0.67278551878E+02 -0.57268445876E+01  0.10602215002E+03  0.00000000000E+00 0.  1.
<scales pt_clust_5="13000.00000" pt_clust_6="13000.00000" pt_clust_7="13000.00000" pt_clust_8="13000.00000" pt_clust_9="107.41524"></scales>
<clustering>
<clus scale="   91.035">  7  8 -1 -1</clus>
<clus scale="   91.898">  5  6 -1 -1</clus>
<clus scale="  103.626">  2  5  1 -1</clus>
<clus scale="  107.415">  1  9  2 -1</clus>
<clus scale="  107.415">  1  5  2 -1</clus>
</clustering>
</event>
<event>
 9    1  0.1464797E-005  0.9788359E+02  0.7546771E-02  0.1286292E+00
          2   -1    0    0  502    0 -0.00000000000E+00  0.00000000000E+00  0.65617937884E+03  0.65617937884E+03  0.00000000000E+00 0. -1.
         21   -1    0    0  501  502  0.00000000000E+00 -0.00000000000E+00 -0.27520753806E+02  0.27520753806E+02  0.00000000000E+00 0. -1.
         23    2    1    2    0    0 -0.56043490508E+02  0.42582018107E+01  0.41243477665E+03  0.42577817360E+03  0.89585729950E+02 0.  0.
         23    2    1    2    0    0  0.12898695779E+02  0.12630255716E+02  0.17412033035E+03  0.19531685111E+03  0.86630728801E+02 0.  0.
        -11    1    4    4    0    0 -0.36199914224E+02  0.15241660456E+02  0.80461944006E+02  0.89536955703E+02  0.00000000000E+00 0.  1.
         11    1    4    4    0    0  0.49098610003E+02 -0.26114047394E+01  0.93658386342E+02  0.10577989540E+03  0.00000000000E+00 0. -1.
        -13    1    3    3    0    0 -0.35116213835E+02  0.42891017216E+02  0.15484470796E+03  0.16446784311E+03  0.00000000000E+00 0.  1.
         13    1    3    3    0    0 -0.20927276673E+02 -0.38632815406E+02  0.25759006869E+03  0.26131033049E+03  0.00000000000E+00 0. -1.
          2    1    1    2  501    0  0.43144794729E+02 -0.16888457527E+02  0.42103518037E+02  0.62605107946E+02  0.00000000000E+00 0. -1.
<scales pt_clust_5="13000.00000" pt_clust_6="13000.00000" pt_clust_7="13000.00000" pt_clust_8="13000.00000" pt_clust_9="46.33242"></scales>
<clustering>
<clus scale="   46.332">  2  9  1 -1</clus>
<clus scale="   86.631">  5  6 -1 -1</clus>
<clus scale="   89.586">  7  8 -1 -1</clus>
<clus scale="   95.187">  2  5  1 -1</clus>
<clus scale="   46.332">  2  5  1 -1</clus>
</clustering>
</event>
<event>
 9    1  0.1464797E-005  0.2091383E+03  0.7546771E-02  0.1165212E+00
         -3   -1    0    0    0  501 -0.00000000000E+00  0.00000000000E+00  0.16577972066E+03  0.16577972066E+03  0.00000000000E+00 0.  1.
         21   -1    0    0  501  502  0.00000000000E+00 -0.00000000000E+00 -0.47302126754E+03  0.47302126754E+03  0.00000000000E+00 0.  1.
         23    2    1    2    0    0  0.73776920480E+02  0.34330700270E+02 -0.93035509772E+02  0.15327586791E+03  0.90643558112E+02 0.  0.
         23    2    1    2    0    0 -0.23977426457E+03 -0.30527073883E+02 -0.77080888080E+02  0.27018145934E+03  0.92913709836E+02 0.  0.
        -11    1    3    3    0    0  0.37447297057E+02  0.46654357849E+02 -0.97771239554E+02  0.11462174509E+03  0.00000000000E+00 0. -1.
         11    1    3    3    0    0  0.36329623423E+02 -0.12323657580E+02  0.47357297821E+01  0.38654122817E+02  0.00000000000E+00 0.  1.
        -11    1    4    4    0    0 -0.32782684491E+02  0.16256115609E+01  0.20913319782E+02  0.38919326301E+02  0.00000000000E+00 0. -1.
         11    1    4    4    0    0 -0.20699158008E+03 -0.32152685444E+02 -0.97994207862E+02  0.23126213304E+03  0.00000000000E+00 0.  1.
         -3    1    1    2    0  502  0.16599734409E+03 -0.38036263868E+01 -0.13712514903E+03  0.21534366096E+03  0.00000000000E+00 0.  1.
<scales pt_clust_5="13000.00000" pt_clust_6="13000.00000" pt_clust_7="13000.00000" pt_clust_8="13000.00000" pt_clust_9="187.36559"></scales>
<clustering>
<clus scale="   90.644">  5  6 -1 -1</clus>
<clus scale="   92.914">  7  8 -1 -1</clus>
<clus scale="  121.811">  1  5  2 -1</clus>
<clus scale="  187.366">  2  9  1 -1</clus>
<clus scale="  187.366">  2  5  1 -1</clus>
</clustering>
</event>
<event>
 9    1  0.1464797E-005  0.1427220E+03  0.7546771E-02  0.1210469E+00
         21   -1    0    0  501  502  0.00000000000E+00  0.00000000000E+00  0.88776315942E+03  0.88776315942E+03  0.00000000000E+00 0. -1.
          1   -1    0    0  502    0 -0.00000000000E+00 -0.00000000000E+00 -0.66519556759E+02  0.66519556759E+02  0.00000000000E+00 0. -1.
         23    2    1    2    0    0 -0.10551156832E+03 -0.28474889497E+02  0.44216368416E+02  0.14702678228E+03  0.87853725540E+02 0.  0.
         23    2    1    2    0    0  0.11731617082E+03 -0.91652211886E+01  0.73360094763E+03  0.74858763801E+03  0.91465929216E+02 0.  0.
        -11    1    4    4    0    0  0.50396532283E-01  0.25668864734E+02  0.96949907067E+02  0.10029046633E+03  0.00000000000E+00 0.  1.
         11    1    4    4    0    0  0.11726577429E+03 -0.34834085923E+02  0.63665104056E+03  0.64829717168E+03  0.00000000000E+00 0. -1.
        -13    1    3    3    0    0 -0.17986248136E+02 -0.44701509866E+02  0.30324754818E+02  0.56932599282E+02  0.00000000000E+00 0.  1.
         13    1    3    3    0    0 -0.87525320187E+02  0.16226620369E+02  0.13891613598E+02  0.90094183002E+02  0.00000000000E+00 0. -1.
          1    1    1    2  501    0 -0.11804602498E+02  0.37640110685E+02  0.43426286615E+02  0.58668295882E+02  0.00000000000E+00 0. -1.
<scales pt_clust_5="13000.00000" pt_clust_6="13000.00000" pt_clust_7="13000.00000" pt_clust_8="13000.00000" pt_clust_9="39.44779"></scales>
<clustering>
<clus scale="   39.448">  1  9  2 -1</clus>
<clus scale="   87.854">  7  8 -1 -1</clus>
<clus scale="   91.466">  5  6 -1 -1</clus>
<clus scale="  140.434">  2  7  1 -1</clus>
<clus scale="   39.448">  1  5  2 -1</clus>
</clustering>
</event>
<event>
 9    1  0.1464797E-005  0.2239367E+03  0.7546771E-02  0.1166941E+00
         21   -1    0    0  501  502  0.00000000000E+00  0.00000000000E+00  0.14584552334E+03  0.14584552334E+03  0.00000000000E+00 0. -1.
          2   -1    0    0  502    0 -0.00000000000E+00 -0.00000000000E+00 -0.94771258121E+03  0.94771258121E+03  0.00000000000E+00 0. -1.
         23    2    1    2    0    0 -0.12848013307E+01  0.28520275820E+02 -0.17444817937E+03  0.19880508582E+03  0.90973831476E+02 0.  0.
         23    2    1    2    0    0  0.17208551111E+03 -0.13710052691E+03 -0.64885126097E+03  0.69122930904E+03  0.91542455684E+02 0.  0.
        -11    1    4    4    0    0  0.13402240684E+03 -0.50023613981E+02 -0.37518968231E+03  0.40153662997E+03  0.00000000000E+00 0. -1.
         11    1    4    4    0    0  0.38063104268E+02 -0.87076912929E+02 -0.27366157866E+03  0.28969267907E+03  0.00000000000E+00 0.  1.
        -11    1    3    3    0    0 -0.23661062353E+02 -0.11553323130E+02 -0.10155271660E+02  0.28221528830E+02  0.00000000000E+00 0.  1.
         11    1    3    3    0    0  0.22376261022E+02  0.40073598950E+02 -0.16429290771E+03  0.17058355699E+03  0.00000000000E+00 0. -1.
          2    1    1    2  501    0 -0.17080070978E+03  0.10858025109E+03  0.21432382481E+02  0.20352370969E+03  0.00000000000E+00 0. -1.
<scales pt_clust_5="13000.00000" pt_clust_6="13000.00000" pt_clust_7="13000.00000" pt_clust_8="13000.00000" pt_clust_9="204.37128"></scales>
<clustering>
<clus scale="   90.974">  7  8 -1 -1</clus>
<clus scale="   91.542">  5  6 -1 -1</clus>
<clus scale="   95.348">  2  7  1 -1</clus>
<clus scale="  204.371">  1  9  2 -1</clus>
<clus scale="  204.371">  1  5  2 -1</clus>
</clustering>
</event>
<event>
 9    1  0.1464797E-005  0.1088903E+03  0.7546771E-02  0.1262780E+00
         21   -1    0    0  501  502  0.00000000000E+00  0.00000000000E+00  0.16399690931E+03  0.16399690931E+03  0.00000000000E+00 0.  1.
          1   -1    0    0  502    0 -0.00000000000E+00 -0.00000000000E+00 -0.13906391293E+03  0.13906391293E+03  0.00000000000E+00 0. -1.
         23    2    1    2    0    0  0.47549280763E+01  0.38739404913E+02 -0.26236252604E+02  0.10403755245E+03  0.92801511489E+02 0.  0.
         23    2    1    2    0    0  0.12050311434E+02 -0.87140599455E+02  0.14390534121E+01  0.12762170077E+03  0.92447463747E+02 0.  0.
        -11    1    3    3    0    0 -0.38095269143E+02 -0.60753975279E+01 -0.12257777038E+02  0.40477315674E+02  0.00000000000E+00 0. -1.
         11    1    3    3    0    0  0.42850197220E+02  0.44814802441E+02 -0.13978475566E+02  0.63560236774E+02  0.00000000000E+00 0.  1.
        -13    1    4    4    0    0  0.39504715932E+02 -0.39748904021E+02  0.32373522113E+02  0.64719725631E+02  0.00000000000E+00 0.  1.
         13    1    4    4    0    0 -0.27454404498E+02 -0.47391695434E+02 -0.30934468701E+02  0.62901975138E+02  0.00000000000E+00 0. -1.
          1    1    1    2  501    0 -0.16805239510E+02  0.48401194541E+02  0.49730195565E+02  0.71401569023E+02  0.00000000000E+00 0. -1.
<scales pt_clust_5="13000.00000" pt_clust_6="13000.00000" pt_clust_7="13000.00000" pt_clust_8="13000.00000" pt_clust_9="51.23565"></scales>
<clustering>
<clus scale="   51.236">  1  9  2 -1</clus>
<clus scale="   92.447">  7  8 -1 -1</clus>
<clus scale="   92.802">  5  6 -1 -1</clus>
<clus scale="  108.589">  1  7  2 -1</clus>
<clus scale="   51.236">  1  5  2 -1</clus>
</clustering>
</event>
<event>
 9    1  0.1464797E-005  0.1090062E+03  0.7546771E-02  0.1264101E+00
         21   -1    0    0  501  502  0.00000000000E+00  0.00000000000E+00  0.94412623462E+02  0.94412623462E+02  0.00000000000E+00 0.  1.
          3   -1    0    0  502    0 -0.00000000000E+00 -0.00000000000E+00 -0.32637312246E+03  0.32637312246E+03  0.00000000000E+00 0. -1.
         23    2    1    2    0    0 -0.17643195196E+02 -0.54788926217E+02 -0.17719698915E+03  0.20708613542E+03  0.90403460926E+02 0.  0.
         23    2    1    2    0    0 -0.14968877833E+02  0.53128633191E+02 -0.10638362546E+03  0.15261818766E+03  0.94488710817E+02 0.  0.
        -11    1    3    3    0    0  0.53802359804E+01 -0.75799003243E+02 -0.12714700141E+03  0.14812425797E+03  0.00000000000E+00 0.  1.
         11    1    3    3    0    0 -0.23023431177E+02  0.21010077026E+02 -0.50049987737E+02  0.58961877449E+02  0.00000000000E+00 0. -1.
        -11    1    4    4    0    0 -0.25848291364E+02  0.61139456871E+01 -0.10056263014E+03  0.10401133150E+03  0.00000000000E+00 0.  1.
         11    1    4    4    0    0  0.10879413531E+02  0.47014687504E+02 -0.58209953121E+01  0.48606856165E+02  0.00000000000E+00 0. -1.
          3    1    1    2  501    0  0.32612073029E+02  0.16602930260E+01  0.51620115609E+02  0.61081422836E+02  0.00000000000E+00 0. -1.
<scales pt_clust_5="13000.00000" pt_clust_6="13000.00000" pt_clust_7="13000.00000" pt_clust_8="13000.00000" pt_clust_9="32.65431"></scales>
<clustering>
<clus scale="   32.654">  1  9  2 -1</clus>
<clus scale="   90.403">  5  6 -1 -1</clus>
<clus scale="   94.489">  7  8 -1 -1</clus>
<clus scale="  105.485">  2  5  1 -1</clus>
<clus scale="   32.654">  1  5  2 -1</clus>
</clustering>
</event>
<event>
 9    1  0.1464797E-005  0.1048247E+03  0.7546771E-02  0.1270972E+00
         21   -1    0    0  501  502  0.00000000000E+00  0.00000000000E+00  0.68760617973E+03  0.68760617973E+03  0.00000000000E+00 0. -1.
          2   -1    0    0  502    0 -0.00000000000E+00 -0.00000000000E+00 -0.17372205079E+03  0.17372205079E+03  0.00000000000E+00 0. -1.
         23    2    1    2    0    0  0.12203785223E+02 -0.43972694724E+02 -0.99604629539E+02  0.14318633356E+03  0.92188468035E+02 0.  0.
         23    2    1    2    0    0  0.81411129110E+02  0.79448885627E+02  0.63176726149E+02  0.15879795515E+03  0.91025240806E+02 0.  0.
        -11    1    3    3    0    0 -0.35162001387E+02 -0.35107463664E+01 -0.59170905897E+02  0.68919429671E+02  0.00000000000E+00 0.  1.
         11    1    3    3    0    0  0.47365786610E+02 -0.40461948357E+02 -0.40433723642E+02  0.74266903892E+02  0.00000000000E+00 0. -1.
        -13    1    4    4    0    0  0.37078529904E+02  0.51735592451E+02  0.81489281192E+02  0.10340160470E+03  0.00000000000E+00 0.  1.
         13    1    4    4    0    0  0.44332599206E+02  0.27713293176E+02 -0.18312555042E+02  0.55396350451E+02  0.00000000000E+00 0. -1.
          2    1    1    2  501    0 -0.93614914333E+02 -0.35476190903E+02  0.55031203232E+03  0.55934394180E+03  0.00000000000E+00 0. -1.
<scales pt_clust_5="13000.00000" pt_clust_6="13000.00000" pt_clust_7="13000.00000" pt_clust_8="13000.00000" pt_clust_9="100.11150"></scales>
<clustering>
<clus scale="   91.025">  7  8 -1 -1</clus>
<clus scale="   92.188">  5  6 -1 -1</clus>
<clus scale="  100.111">  1  9  2 -1</clus>
<clus scale="  103.803">  1  7  2 -1</clus>
<clus scale="  100.111">  1  5  2 -1</clus>
</clustering>
</event>
<event>
 9    1  0.1464797E-005  0.9417782E+02  0.7546771E-02  0.1294421E+00
          3   -1    0    0  502    0 -0.00000000000E+00  0.00000000000E+00  0.32004144475E+03  0.32004144475E+03  0.00000000000E+00 0. -1.
         21   -1    0    0  501  502  0.00000000000E+00 -0.00000000000E+00 -0.65561300461E+02  0.65561300461E+02  0.00000000000E+00 0. -1.
         23    2    1    2    0    0 -0.14687758316E+02  0.12081641932E+02  0.18701735901E+03  0.20911418299E+03  0.91605418198E+02 0.  0.
         23    2    1    2    0    0 -0.15691592089E+02  0.31878968219E+02  0.70828658207E+02  0.12294634264E+03  0.94003242864E+02 0.  0.
        -11    1    3    3    0    0  0.36764262258E+02  0.96061737573E+01  0.11069365744E+03  0.11703407774E+03  0.00000000000E+00 0.  1.
         11    1    3    3    0    0 -0.51452020574E+02  0.24754681747E+01  0.76323701565E+02  0.92080105259E+02  0.00000000000E+00 0. -1.
        -13    1    4    4    0    0  0.98974794085E+01 -0.28674133133E+02  0.66083604303E+01  0.31045715278E+02  0.00000000000E+00 0.  1.
         13    1    4    4    0    0 -0.25589071498E+02  0.60553101352E+02  0.64220297777E+02  0.91900627365E+02  0.00000000000E+00 0. -1.
          3    1    1    2  501    0  0.30379350405E+02 -0.43960610151E+02 -0.33658729282E+01  0.53542219570E+02  0.00000000000E+00 0. -1.
<scales pt_clust_5="13000.00000" pt_clust_6="13000.00000" pt_clust_7="13000.00000" pt_clust_8="13000.00000" pt_clust_9="53.43632"></scales>
<clustering>
<clus scale="   53.436">  2  9  1 -1</clus>
<clus scale="   91.605">  5  6 -1 -1</clus>
<clus scale="   91.785">  1  5  2 -1</clus>
<clus scale="   94.003">  7  8 -1 -1</clus>
<clus scale="   53.436">  2  5  1 -1</clus>
</clustering>
</event>
<event>
 9    1  0.1464797E-005  0.1015665E+03  0.7546771E-02  0.1277535E+00
         21   -1    0    0  501  502  0.00000000000E+00  0.00000000000E+00  0.33985770080E+02  0.33985770080E+02  0.00000000000E+00 0. -1.
          1   -1    0    0  502    0 -0.00000000000E+00 -0.00000000000E+00 -0.69687277084E+03  0.69687277084E+03  0.00000000000E+00 0. -1.
         23    2    1    2    0    0  0.12923647636E+02  0.47296073149E+02 -0.54403133369E+03  0.55376443994E+03  0.91000130201E+02 0.  0.
         23    2    1    2    0    0 -0.29863977790E+02 -0.18139978043E+02 -0.77587855615E+02  0.12380165377E+03  0.89922512004E+02 0.  0.
        -11    1    4    4    0    0  0.15951453410E+02  0.14808384574E+02  0.63358158356E+01  0.22668914440E+02  0.00000000000E+00 0. -1.
         11    1    4    4    0    0 -0.45815431200E+02 -0.32948362618E+02 -0.83923671451E+02  0.10113273933E+03  0.00000000000E+00 0.  1.
        -13    1    3    3    0    0  0.22151033958E+02  0.71503283811E+02 -0.45199479183E+03  0.45815137208E+03  0.00000000000E+00 0. -1.
         13    1    3    3    0    0 -0.92273863221E+01 -0.24207210662E+02 -0.92036541863E+02  0.95613067854E+02  0.00000000000E+00 0.  1.
          1    1    1    2  501    0  0.16940330154E+02 -0.29156095106E+02 -0.41267811454E+02  0.53292447211E+02  0.00000000000E+00 0. -1.
<scales pt_clust_5="13000.00000" pt_clust_6="13000.00000" pt_clust_7="13000.00000" pt_clust_8="13000.00000" pt_clust_9="33.72021"></scales>
<clustering>
<clus scale="   33.720">  1  9  2 -1</clus>
<clus scale="   89.923">  5  6 -1 -1</clus>
<clus scale="   91.000">  7  8 -1 -1</clus>
<clus scale="  100.602">  1  5  2 -1</clus>
<clus scale="   33.720">  1  5  2 -1</clus>
</clustering>
</event>
<event>
 9    1  0.1464797E-005  0.1200951E+03  0.7546771E-02  0.1242999E+00
         21   -1    0    0  501  502  0.00000000000E+00  0.00000000000E+00  0.11074705005E+03  0.11074705005E+03  0.00000000000E+00 0.  1.
          2   -1    0    0  502    0 -0.00000000000E+00 -0.00000000000E+00 -0.29643614714E+03  0.29643614714E+03  0.00000000000E+00 0. -1.
         23    2    1    2    0    0  0.52718150817E+02  0.70877181048E+02 -0.18700846186E+03  0.22622474190E+03  0.91666192358E+02 0.  0.
         23    2    1    2    0    0  0.10601757164E+02 -0.53395659346E+02  0.27479590431E+02  0.11025221968E+03  0.91852764585E+02 0.  0.
        -11    1    3    3    0    0 -0.22274497444E+02  0.30059618897E+02 -0.87148743684E+02  0.94840062476E+02  0.00000000000E+00 0. -1.
         11    1    3    3    0    0  0.74992648261E+02  0.40817562151E+02 -0.99859718176E+02  0.13138467942E+03  0.00000000000E+00 0.  1.
        -11    1    4    4    0    0  0.32030168334E+02 -0.71627311277E+02  0.22989223451E+02  0.81761285454E+02  0.00000000000E+00 0.  1.
         11    1    4    4    0    0 -0.21428411170E+02  0.18231651931E+02  0.44903669804E+01  0.28490934225E+02  0.00000000000E+00 0. -1.
          2    1    1    2  501    0 -0.63319907981E+02 -0.17481521702E+02 -0.26160225661E+02  0.70706235612E+02  0.00000000000E+00 0. -1.
<scales pt_clust_5="13000.00000" pt_clust_6="13000.00000" pt_clust_7="13000.00000" pt_clust_8="13000.00000" pt_clust_9="65.68877"></scales>
<clustering>
<clus scale="   65.689">  1  9  2 -1</clus>
<clus scale="   91.666">  5  6 -1 -1</clus>
<clus scale="   91.853">  7  8 -1 -1</clus>
<clus scale="  119.952">  2  5  1 -1</clus>
<clus scale="   65.689">  1  5  2 -1</clus>
</clustering>
</event>
<event>
 9    1  0.1464797E-005  0.1036712E+03  0.7546771E-02  0.1277678E+00
         21   -1    0    0  501  502  0.00000000000E+00  0.00000000000E+00  0.15876305067E+03  0.15876305067E+03  0.00000000000E+00 0.  1.
         -3   -1    0    0    0  501 -0.00000000000E+00 -0.00000000000E+00 -0.33810167657E+03  0.33810167657E+03  0.00000000000E+00 0.  1.
         23    2    1    2    0    0 -0.15320479436E+02  0.18851594287E+02 -0.18845602707E+03  0.21031423241E+03  0.90146006663E+02 0.  0.
         23    2    1    2    0    0 -0.30235100274E+02 -0.98958300093E+02  0.85108310638E+02  0.16710589061E+03  0.99870154152E+02 0.  0.
        -13    1    4    4    0    0  0.30885279735E+02 -0.56600780471E+01  0.11351360277E+02  0.33388476574E+02  0.00000000000E+00 0. -1.
         13    1    4    4    0    0 -0.61120380009E+02 -0.93298222046E+02  0.73756950361E+02  0.13371741403E+03  0.00000000000E+00 0.  1.
        -13    1    3    3    0    0 -0.41468767173E+02 -0.19914481122E+02 -0.10535595124E+03  0.11496139209E+03  0.00000000000E+00 0. -1.
         13    1    3    3    0    0  0.26148287737E+02  0.38766075409E+02 -0.83100075832E+02  0.95352840322E+02  0.00000000000E+00 0.  1.
         -3    1    1    2    0  502  0.45555579710E+02  0.80106705806E+02 -0.75990909463E+02  0.11944460423E+03  0.00000000000E+00 0.  1.
<scales pt_clust_5="13000.00000" pt_clust_6="13000.00000" pt_clust_7="13000.00000" pt_clust_8="13000.00000" pt_clust_9="92.15424"></scales>
<clustering>
<clus scale="   90.146">  7  8 -1 -1</clus>
<clus scale="   92.154">  1  9  2 -1</clus>
<clus scale="   94.340">  2  7  1 -1</clus>
<clus scale="   99.870">  5  6 -1 -1</clus>
<clus scale="   92.154">  1  5  2 -1</clus>
</clustering>
</event>
<event>
 9    1  0.1464797E-005  0.2202521E+03  0.7546771E-02  0.1164151E+00
         21   -1    0    0  501  502  0.00000000000E+00  0.00000000000E+00  0.40143940406E+02  0.40143940406E+02  0.00000000000E+00 0. -1.
          2   -1    0    0  502    0 -0.00000000000E+00 -0.00000000000E+00 -0.18287066540E+04  0.18287066540E+04  0.00000000000E+00 0. -1.
         23    2    1    2    0    0 -0.16085678415E+02 -0.54835029637E+02 -0.51999206208E+03  0.53086086369E+03  0.90309924378E+02 0.  0.
         23    2    1    2    0    0 -0.94549199549E+02  0.20209138494E+03 -0.70241476532E+03  0.74262681797E+03  0.91255735349E+02 0.  0.
        -11    1    3    3    0    0 -0.22530525586E+02 -0.78833011701E+02 -0.39333126066E+03  0.40178570025E+03  0.00000000000E+00 0.  1.
         11    1    3    3    0    0  0.64448471709E+01  0.23997982064E+02 -0.12666080142E+03  0.12907516343E+03  0.00000000000E+00 0. -1.
        -13    1    4    4    0    0 -0.95949363580E+02  0.15576795295E+03 -0.63492468530E+03  0.66075660537E+03  0.00000000000E+00 0. -1.
         13    1    4    4    0    0  0.14001640308E+01  0.46323431992E+02 -0.67490080018E+02  0.81870212603E+02  0.00000000000E+00 0.  1.
          2    1    1    2  501    0  0.11063487796E+03 -0.14725635530E+03 -0.56615588617E+03  0.59536291272E+03  0.00000000000E+00 0. -1.
<scales pt_clust_5="13000.00000" pt_clust_6="13000.00000" pt_clust_7="13000.00000" pt_clust_8="13000.00000" pt_clust_9="200.45797"></scales>
<clustering>
<clus scale="   90.310">  5  6 -1 -1</clus>
<clus scale="   91.256">  7  8 -1 -1</clus>
<clus scale="  106.871">  2  5  1 -1</clus>
<clus scale="  200.458">  1  9  2 -1</clus>
<clus scale="  200.458">  1  5  2 -1</clus>
</clustering>
</event>
<event>
 9    1  0.1464797E-005  0.9420866E+02  0.7546771E-02  0.1293814E+00
          2   -1    0    0  502    0 -0.00000000000E+00  0.00000000000E+00  0.56709296018E+02  0.56709296018E+02  0.00000000000E+00 0. -1.
         21   -1    0    0  501  502  0.00000000000E+00 -0.00000000000E+00 -0.41429827049E+03  0.41429827049E+03  0.00000000000E+00 0. -1.
         23    2    1    2    0    0 -0.63930595664E+01  0.99640674208E+01 -0.19673876233E+02  0.96030409567E+02  0.93244969330E+02 0.  0.
         23    2    1    2    0    0 -0.24365718737E+02 -0.20651818937E+02 -0.11886746134E+03  0.15352242634E+03  0.91757703483E+02 0.  0.
        -11    1    4    4    0    0  0.19127823820E+01  0.31869639917E+02 -0.17597577940E+02  0.36455554231E+02  0.00000000000E+00 0. -1.
         11    1    4    4    0    0 -0.26278501119E+02 -0.52521458855E+02 -0.10126988340E+03  0.11706687211E+03  0.00000000000E+00 0.  1.
        -11    1    3    3    0    0 -0.20155896652E+02  0.32333427301E+02  0.24026943208E+02  0.45044474586E+02  0.00000000000E+00 0. -1.
         11    1    3    3    0    0  0.13762837085E+02 -0.22369359880E+02 -0.43700819441E+02  0.50985934981E+02  0.00000000000E+00 0.  1.
          2    1    1    2  501    0  0.30758778304E+02  0.10687751517E+02 -0.21904763690E+03  0.22145473060E+03  0.00000000000E+00 0. -1.
<scales pt_clust_5="13000.00000" pt_clust_6="13000.00000" pt_clust_7="13000.00000" pt_clust_8="13000.00000" pt_clust_9="32.56272"></scales>
<clustering>
<clus scale="   32.563">  2  9  1 -1</clus>
<clus scale="   91.758">  5  6 -1 -1</clus>
<clus scale="   92.737">  2  5  1 -1</clus>
<clus scale="   93.245">  7  8 -1 -1</clus>
<clus scale="   32.563">  2  5  1 -1</clus>
</clustering>
</event>
<event>
 9    1  0.1464797E-005  0.1042747E+03  0.7546771E-02  0.1271640E+00
          2   -1    0    0  502    0 -0.00000000000E+00  0.00000000000E+00  0.44173699096E+03  0.44173699096E+03  0.00000000000E+00 0. -1.
         21   -1    0    0  501  502  0.00000000000E+00 -0.00000000000E+00 -0.43286004210E+02  0.43286004210E+02  0.00000000000E+00 0. -1.
         23    2    1    2    0    0  0.42655430716E+02 -0.19378093656E+02  0.11706442282E+03  0.15582479127E+03  0.91554848046E+02 0.  0.
         23    2    1    2    0    0 -0.18865319967E+02  0.59756598910E+02  0.13041118937E+03  0.17111608354E+03  0.91361284583E+02 0.  0.
        -11    1    3    3    0    0  0.66794653009E+02 -0.40730864766E+01  0.10562356065E+03  0.12503780336E+03  0.00000000000E+00 0.  1.
         11    1    3    3    0    0 -0.24139222293E+02 -0.15305007179E+02  0.11440862175E+02  0.30786987916E+02  0.00000000000E+00 0. -1.
        -13    1    4    4    0    0 -0.52413246432E+02  0.14387208209E+02  0.62902838174E+02  0.83131866405E+02  0.00000000000E+00 0.  1.
         13    1    4    4    0    0  0.33547926465E+02  0.45369390702E+02  0.67508351199E+02  0.87984217132E+02  0.00000000000E+00 0. -1.
          2    1    1    2  501    0 -0.23790110750E+02 -0.40378505255E+02  0.15097537456E+03  0.15808212036E+03  0.00000000000E+00 0. -1.
<scales pt_clust_5="13000.00000" pt_clust_6="13000.00000" pt_clust_7="13000.00000" pt_clust_8="13000.00000" pt_clust_9="46.86572"></scales>
<clustering>
<clus scale="   46.866">  2  9  1 -1</clus>
<clus scale="   91.361">  7  8 -1 -1</clus>
<clus scale="   91.555">  5  6 -1 -1</clus>
<clus scale="  104.105">  2  7  1 -1</clus>
<clus scale="   46.866">  2  5  1 -1</clus>
</clustering>
</event>
<event>
 9    1  0.1464797E-005  0.1124849E+03  0.7546771E-02  0.1260254E+00
         21   -1    0    0  501  502  0.00000000000E+00  0.00000000000E+00  0.62021114525E+02  0.62021114525E+02  0.00000000000E+00 0.  1.
          2   -1    0    0  502    0 -0.00000000000E+00 -0.00000000000E+00 -0.40487587323E+03  0.40487587323E+03  0.00000000000E+00 0. -1.
         23    2    1    2    0    0 -0.76214434927E+02  0.88737262120E+01 -0.11861110023E+03  0.16827924274E+03  0.91443574578E+02 0.  0.
         23    2    1    2    0    0  0.39221429100E+02 -0.47356085152E+02 -0.43196090439E+02  0.10986500644E+03  0.80146728618E+02 0.  0.
        -11    1    3    3    0    0 -0.80694741457E+02 -0.17178924762E+02 -0.54357732614E+02  0.98800404097E+02  0.00000000000E+00 0.  1.
         11    1    3    3    0    0  0.44803065302E+01  0.26052650974E+02 -0.64253367615E+02  0.69478838643E+02  0.00000000000E+00 0. -1.
        -13    1    4    4    0    0  0.14709653578E+02  0.19547714144E+02 -0.27681956102E+02  0.36942898239E+02  0.00000000000E+00 0. -1.
         13    1    4    4    0    0  0.24511775522E+02 -0.66903799296E+02 -0.15514134337E+02  0.72922108196E+02  0.00000000000E+00 0.  1.
          2    1    1    2  501    0  0.36993005827E+02  0.38482358940E+02 -0.18104756803E+03  0.18875273858E+03  0.00000000000E+00 0. -1.
<scales pt_clust_5="13000.00000" pt_clust_6="13000.00000" pt_clust_7="13000.00000" pt_clust_8="13000.00000" pt_clust_9="53.37956"></scales>
<clustering>
<clus scale="   53.380">  1  9  2 -1</clus>
<clus scale="   80.147">  7  8 -1 -1</clus>
<clus scale="   91.444">  5  6 -1 -1</clus>
<clus scale="  103.511">  1  7  2 -1</clus>
<clus scale="   53.380">  1  5  2 -1</clus>
</clustering>
</event>
<event>
 9    1  0.1464797E-005  0.9627691E+02  0.7546771E-02  0.1290035E+00
          1   -1    0    0  502    0 -0.00000000000E+00  0.00000000000E+00  0.13536800895E+03  0.13536800895E+03  0.00000000000E+00 0. -1.
         21   -1    0    0  501  502  0.00000000000E+00 -0.00000000000E+00 -0.28598012044E+03  0.28598012044E+03  0.00000000000E+00 0. -1.
         23    2    1    2    0    0  0.31632381204E+01 -0.63377299741E+02  0.48641397423E+02  0.11924202280E+03  0.88464604559E+02 0.  0.
         23    2    1    2    0    0  0.32158678590E+01 -0.20407878665E+02 -0.93267174224E+01  0.94421645841E+02  0.91660439819E+02 0.  0.
        -11    1    4    4    0    0  0.44614721712E+02 -0.26648445356E+02 -0.27351087008E+01  0.52039349083E+02  0.00000000000E+00 0. -1.
         11    1    4    4    0    0 -0.41398853853E+02  0.62405666901E+01 -0.65916087217E+01  0.42382296759E+02  0.00000000000E+00 0.  1.
        -13    1    3    3    0    0 -0.25070553337E+02  0.12299472929E+02  0.15470285623E+02  0.31923963040E+02  0.00000000000E+00 0.  1.
         13    1    3    3    0    0  0.28233791457E+02 -0.75676772669E+02  0.33171111800E+02  0.87318059757E+02  0.00000000000E+00 0. -1.
          1    1    1    2  501    0 -0.63791059793E+01  0.83785178406E+02 -0.18992679149E+03  0.20768446076E+03  0.00000000000E+00 0. -1.
<scales pt_clust_5="13000.00000" pt_clust_6="13000.00000" pt_clust_7="13000.00000" pt_clust_8="13000.00000" pt_clust_9="84.02767"></scales>
<clustering>
<clus scale="   84.028">  2  9  1 -1</clus>
<clus scale="   88.465">  7  8 -1 -1</clus>
<clus scale="   91.660">  5  6 -1 -1</clus>
<clus scale="   93.239">  1  7  2 -1</clus>
<clus scale="   84.028">  2  5  1 -1</clus>
</clustering>
</event>
<event>
 9    1  0.1464797E-005  0.1092186E+03  0.7546771E-02  0.1262087E+00
         21   -1    0    0  501  502  0.00000000000E+00  0.00000000000E+00  0.34511671111E+02  0.34511671111E+02  0.00000000000E+00 0.  1.
          2   -1    0    0  502    0 -0.00000000000E+00 -0.00000000000E+00 -0.87471968370E+03  0.87471968370E+03  0.00000000000E+00 0. -1.
         23    2    1    2    0    0  0.41308014206E+02  0.47885820365E+02 -0.46508212978E+03  0.47833078276E+03  0.92192984909E+02 0.  0.
         23    2    1    2    0    0 -0.55629436425E+02 -0.16156345232E+02 -0.38038028151E+03  0.39569444429E+03  0.92354063184E+02 0.  0.
        -11    1    3    3    0    0  0.42347890450E+02 -0.17771701467E+02 -0.17723356941E+03  0.18308717958E+03  0.00000000000E+00 0. -1.
         11    1    3    3    0    0 -0.10398762439E+01  0.65657521832E+02 -0.28784856037E+03  0.29524360318E+03  0.00000000000E+00 0.  1.
        -11    1    4    4    0    0 -0.11491312179E+02 -0.48629969152E+02 -0.23675764362E+03  0.24197335797E+03  0.00000000000E+00 0. -1.
         11    1    4    4    0    0 -0.44138124246E+02  0.32473623920E+02 -0.14362263790E+03  0.15372108632E+03  0.00000000000E+00 0.  1.
          2    1    1    2  501    0  0.14321422219E+02 -0.31729475133E+02  0.52543987013E+01  0.35206127766E+02  0.00000000000E+00 0. -1.
<scales pt_clust_5="13000.00000" pt_clust_6="13000.00000" pt_clust_7="13000.00000" pt_clust_8="13000.00000" pt_clust_9="34.81182"></scales>
<clustering>
<clus scale="   34.812">  1  9  2 -1</clus>
<clus scale="   92.193">  5  6 -1 -1</clus>
<clus scale="   92.354">  7  8 -1 -1</clus>
<clus scale="  109.082">  2  5  1 -1</clus>
<clus scale="   34.812">  1  5  2 -1</clus>
</clustering>
</event>
<event>
 9    1  0.1464797E-005  0.1123904E+03  0.7546771E-02  0.1258238E+00
          1   -1    0    0  502    0 -0.00000000000E+00  0.00000000000E+00  0.72577403034E+03  0.72577403034E+03  0.00000000000E+00 0. -1.
         21   -1    0    0  501  502  0.00000000000E+00 -0.00000000000E+00 -0.86674867947E+02  0.86674867947E+02  0.00000000000E+00 0. -1.
         23    2    1    2    0    0  0.26039734354E+02 -0.47365012803E+02  0.49769447947E+03  0.50899149207E+03  0.91929494204E+02 0.  0.
         23    2    1    2    0    0  0.24943686139E+02  0.80400847473E+02  0.18742507629E+03  0.22724354827E+03  0.97082373554E+02 0.  0.
        -11    1    3    3    0    0  0.46039908508E+02  0.62071124378E+01  0.16486504258E+03  0.17128538667E+03  0.00000000000E+00 0.  1.
         11    1    3    3    0    0 -0.20000174154E+02 -0.53572125240E+02  0.33282943689E+03  0.33770610540E+03  0.00000000000E+00 0. -1.
        -13    1    4    4    0    0 -0.15551021191E+02  0.35823741187E+02  0.10632735236E+02  0.40475050974E+02  0.00000000000E+00 0.  1.
         13    1    4    4    0    0  0.40494707330E+02  0.44577106286E+02  0.17679234105E+03  0.18676849730E+03  0.00000000000E+00 0. -1.
          1    1    1    2  501    0 -0.50983420493E+02 -0.33035834670E+02 -0.46020393366E+02  0.76213857947E+02  0.00000000000E+00 0. -1.
<scales pt_clust_5="13000.00000" pt_clust_6="13000.00000" pt_clust_7="13000.00000" pt_clust_8="13000.00000" pt_clust_9="60.75093"></scales>
<clustering>
<clus scale="   60.751">  2  9  1 -1</clus>
<clus scale="   91.929">  5  6 -1 -1</clus>
<clus scale="   97.082">  7  8 -1 -1</clus>
<clus scale="  107.971">  1  5  2 -1</clus>
<clus scale="   60.751">  2  5  1 -1</clus>
</clustering>
</event>
<event>
 9    1  0.1464797E-005  0.1563303E+03  0.7546771E-02  0.1193155E+00
         21   -1    0    0  501  502  0.00000000000E+00  0.00000000000E+00  0.14450290631E+03  0.14450290631E+03  0.00000000000E+00 0. -1.
          3   -1    0    0  502    0 -0.00000000000E+00 -0.00000000000E+00 -0.34349583606E+03  0.34349583606E+03  0.00000000000E+00 0. -1.
         23    2    1    2    0    0  0.13728332039E+03 -0.25719806020E+01 -0.25600125635E+03  0.30392135773E+03  0.89320900645E+02 0.  0.
         23    2    1    2    0    0 -0.90538968706E+02  0.16681238460E+01  0.40343566729E+02  0.13444306594E+03  0.90814355207E+02 0.  0.
        -11    1    4    4    0    0 -0.72099849198E+02 -0.26402582951E+02 -0.62172378959E+01  0.77033360876E+02  0.00000000000E+00 0. -1.
         11    1    4    4    0    0 -0.18439119507E+02  0.28070706797E+02  0.46560804625E+02  0.57409705064E+02  0.00000000000E+00 0.  1.
        -13    1    3    3    0    0  0.99107919478E+02 -0.28134753093E+02 -0.22779814488E+03  0.25001187741E+03  0.00000000000E+00 0. -1.
         13    1    3    3    0    0  0.38175400907E+02  0.25562772491E+02 -0.28203111466E+02  0.53909480318E+02  0.00000000000E+00 0.  1.
          3    1    1    2  501    0 -0.46744351679E+02  0.90385675601E+00  0.16664759872E+02  0.49634318697E+02  0.00000000000E+00 0. -1.
<scales pt_clust_5="13000.00000" pt_clust_6="13000.00000" pt_clust_7="13000.00000" pt_clust_8="13000.00000" pt_clust_9="46.75309"></scales>
<clustering>
<clus scale="   46.753">  1  9  2 -1</clus>
<clus scale="   89.321">  7  8 -1 -1</clus>
<clus scale="   90.814">  5  6 -1 -1</clus>
<clus scale="  155.468">  2  7  1 -1</clus>
<clus scale="   46.753">  1  5  2 -1</clus>
</clustering>
</event>
<event>
 9    1  0.1464797E-005  0.2917683E+03  0.7546771E-02  0.1089436E+00
         21   -1    0    0  501  502  0.00000000000E+00  0.00000000000E+00  0.11601678012E+04  0.11601678012E+04  0.00000000000E+00 0.  1.
         -1   -1    0    0    0  501 -0.00000000000E+00 -0.00000000000E+00 -0.72486640842E+03  0.72486640842E+03  0.00000000000E+00 0.  1.
         23    2    1    2    0    0  0.26063674567E+03 -0.67076206170E+02 -0.58635102144E+03  0.65148358924E+03  0.90513071273E+02 0.  0.
         23    2    1    2    0    0 -0.46585706671E+03  0.95420288083E+02  0.71134084456E+03  0.86043932679E+03  0.90676347265E+02 0.  0.
        -13    1    4    4    0    0 -0.23849207610E+02  0.25406156760E+02  0.34550765113E+02  0.49071507771E+02  0.00000000000E+00 0. -1.
         13    1    4    4    0    0 -0.44200785910E+03  0.70014131323E+02  0.67679007945E+03  0.81136781902E+03  0.00000000000E+00 0.  1.
        -13    1    3    3    0    0  0.21864820733E+03 -0.87975032072E+02 -0.51092511045E+03  0.56266429896E+03  0.00000000000E+00 0.  1.
         13    1    3    3    0    0  0.41988538348E+02  0.20898825902E+02 -0.75425910986E+02  0.88819290274E+02  0.00000000000E+00 0. -1.
         -1    1    1    2    0  502  0.20522032104E+03 -0.28344081912E+02  0.31031156966E+03  0.37311129360E+03  0.00000000000E+00 0.  1.
<scales pt_clust_5="13000.00000" pt_clust_6="13000.00000" pt_clust_7="13000.00000" pt_clust_8="13000.00000" pt_clust_9="207.16845"></scales>
<clustering>
<clus scale="   90.513">  7  8 -1 -1</clus>
<clus scale="   90.676">  5  6 -1 -1</clus>
<clus scale="  207.168">  1  9  2 -1</clus>
<clus scale="  291.718">  2  7  1 -1</clus>
<clus scale="  207.168">  1  5  2 -1</clus>
</clustering>
</event>
<event>
 9    1  0.1464797E-005  0.1953774E+03  0.7546771E-02  0.1153707E+00
          4   -1    0    0  502    0 -0.00000000000E+00  0.00000000000E+00  0.20993753135E+03  0.20993753135E+03  0.00000000000E+00 0. -1.
         21   -1    0    0  501  502  0.00000000000E+00 -0.00000000000E+00 -0.39770516446E+03  0.39770516446E+03  0.00000000000E+00 0.  1.
         23    2    1    2    0    0  0.49334001706E+01 -0.15640965510E+03  0.96889107058E+01  0.18136605365E+03  0.91167163940E+02 0.  0.
         23    2    1    2    0    0  0.35139326250E+02  0.19147758547E+03  0.68860489288E+01  0.21510969790E+03  0.91248706694E+02 0.  0.
        -13    1    4    4    0    0  0.23089701036E+02  0.15223390261E+03 -0.33440143205E+02  0.15756439501E+03  0.00000000000E+00 0.  1.
         13    1    4    4    0    0  0.12049625214E+02  0.39243682857E+02  0.40326192134E+02  0.57545302884E+02  0.00000000000E+00 0. -1.
        -13    1    3    3    0    0  0.43947319583E+02 -0.55562721181E+02  0.17443486298E+02  0.72957920049E+02  0.00000000000E+00 0.  1.
         13    1    3    3    0    0 -0.39013919413E+02 -0.10084693392E+03 -0.77545755923E+01  0.10840813360E+03  0.00000000000E+00 0. -1.
          4    1    1    2  501    0 -0.40072726421E+02 -0.35067930368E+02 -0.20434259274E+03  0.21116694426E+03  0.00000000000E+00 0. -1.
<scales pt_clust_5="13000.00000" pt_clust_6="13000.00000" pt_clust_7="13000.00000" pt_clust_8="13000.00000" pt_clust_9="53.25019"></scales>
<clustering>
<clus scale="   53.250">  2  9  1 -1</clus>
<clus scale="   91.167">  7  8 -1 -1</clus>
<clus scale="   91.249">  5  6 -1 -1</clus>
<clus scale="  195.339">  1  7  2 -1</clus>
<clus scale="   53.250">  2  5  1 -1</clus>
</clustering>
</event>
<event>
 9    1  0.1464797E-005  0.1106610E+03  0.7546771E-02  0.1259737E+00
          1   -1    0    0  502    0 -0.00000000000E+00  0.00000000000E+00  0.83774489324E+03  0.83774489324E+03  0.00000000000E+00 0. -1.
         21   -1    0    0  501  502  0.00000000000E+00 -0.00000000000E+00 -0.24842433273E+02  0.24842433273E+02  0.00000000000E+00 0.  1.
         23    2    1    2    0    0 -0.55903312055E+02  0.31777968891E+02  0.44380910370E+03  0.45740724214E+03  0.90110182703E+02 0.  0.
         23    2    1    2    0    0  0.26649028675E+02 -0.63744231869E+02  0.31935928130E+03  0.33921696379E+03  0.91127932840E+02 0.  0.
        -11    1    4    4    0    0 -0.17679997623E+02 -0.65392965271E+02  0.15885533592E+03  0.17269580184E+03  0.00000000000E+00 0.  1.
         11    1    4    4    0    0  0.44329026298E+02  0.16487334019E+01  0.16050394538E+03  0.16652116194E+03  0.00000000000E+00 0. -1.
        -11    1    3    3    0    0 -0.71931095601E+02 -0.31572173553E+01  0.27395440386E+03  0.28325794945E+03  0.00000000000E+00 0.  1.
         11    1    3    3    0    0  0.16027783546E+02  0.34935186246E+02  0.16985469984E+03  0.17414929268E+03  0.00000000000E+00 0. -1.
          1    1    1    2  501    0  0.29254283380E+02  0.31966262978E+02  0.49734074971E+02  0.65963120591E+02  0.00000000000E+00 0. -1.
<scales pt_clust_5="13000.00000" pt_clust_6="13000.00000" pt_clust_7="13000.00000" pt_clust_8="13000.00000" pt_clust_9="43.33192"></scales>
<clustering>
<clus scale="   43.332">  2  9  1 -1</clus>
<clus scale="   90.110">  7  8 -1 -1</clus>
<clus scale="   91.128">  5  6 -1 -1</clus>
<clus scale="  109.824">  1  7  2 -1</clus>
<clus scale="   43.332">  2  5  1 -1</clus>
</clustering>
</event>
<event>
 9    1  0.1464797E-005  0.2621431E+03  0.7546771E-02  0.1105895E+00
         21   -1    0    0  501  502  0.00000000000E+00  0.00000000000E+00  0.10987146179E+03  0.10987146179E+03  0.00000000000E+00 0. -1.
          1   -1    0    0  502    0 -0.00000000000E+00 -0.00000000000E+00 -0.76275270676E+03  0.76275270676E+03  0.00000000000E+00 0. -1.
         23    2    1    2    0    0 -0.21942109904E+03  0.67175521307E+02 -0.27783280313E+03  0.37167552461E+03  0.91068434333E+02 0.  0.
         23    2    1    2    0    0  0.26145862109E+03 -0.49477165092E+02 -0.28809225663E+03  0.40275616349E+03  0.91688486119E+02 0.  0.
        -11    1    4    4    0    0  0.24994644850E+03 -0.32339521572E+02 -0.23036623193E+03  0.34144937046E+03  0.00000000000E+00 0. -1.
         11    1    4    4    0    0  0.11512172590E+02 -0.17137643520E+02 -0.57726024707E+02  0.61306793030E+02  0.00000000000E+00 0.  1.
        -13    1    3    3    0    0 -0.11889743312E+03  0.16518602144E+02 -0.20513265725E+03  0.23767387507E+03  0.00000000000E+00 0. -1.
         13    1    3    3    0    0 -0.10052366592E+03  0.50656919163E+02 -0.72700145880E+02  0.13400164954E+03  0.00000000000E+00 0.  1.
          1    1    1    2  501    0 -0.42037522045E+02 -0.17698356215E+02 -0.86956185209E+02  0.98192480458E+02  0.00000000000E+00 0. -1.
<scales pt_clust_5="13000.00000" pt_clust_6="13000.00000" pt_clust_7="13000.00000" pt_clust_8="13000.00000" pt_clust_9="45.61126"></scales>
<clustering>
<clus scale="   45.611">  1  9  2 -1</clus>
<clus scale="   91.068">  7  8 -1 -1</clus>
<clus scale="   91.688">  5  6 -1 -1</clus>
<clus scale="  261.927">  2  7  1 -1</clus>
<clus scale="   45.611">  1  5  2 -1</clus>
</clustering>
</event>
<event>
 9    1  0.1464797E-005  0.9187023E+02  0.7546771E-02  0.1298480E+00
          4   -1    0    0  502    0 -0.00000000000E+00  0.00000000000E+00  0.14736494408E+03  0.14736494408E+03  0.00000000000E+00 0. -1.
         21   -1    0    0  501  502  0.00000000000E+00 -0.00000000000E+00 -0.21258134399E+03  0.21258134399E+03  0.00000000000E+00 0.  1.
         23    2    1    2    0    0  0.10563692478E+02 -0.23779333540E+02  0.81601132902E+02  0.12454131863E+03  0.90414306678E+02 0.  0.
         23    2    1    2    0    0  0.16241507321E+02 -0.19038429859E+01 -0.84094605808E+01  0.92104799337E+02  0.90250561525E+02 0.  0.
        -11    1    4    4    0    0  0.29869927223E+02 -0.37853421188E+02 -0.19619269455E+02  0.52057754291E+02  0.00000000000E+00 0.  1.
         11    1    4    4    0    0 -0.13628419901E+02  0.35949578202E+02  0.11209808874E+02  0.40047045046E+02  0.00000000000E+00 0. -1.
        -11    1    3    3    0    0 -0.37556984554E+02 -0.26036019969E+02  0.43900324900E+02  0.63369077245E+02  0.00000000000E+00 0. -1.
         11    1    3    3    0    0  0.48120677032E+02  0.22566864298E+01  0.37700808002E+02  0.61172241382E+02  0.00000000000E+00 0.  1.
          4    1    1    2  501    0 -0.26805199799E+02  0.25683176526E+02 -0.13840807224E+03  0.14330017011E+03  0.00000000000E+00 0. -1.
<scales pt_clust_5="13000.00000" pt_clust_6="13000.00000" pt_clust_7="13000.00000" pt_clust_8="13000.00000" pt_clust_9="37.12337"></scales>
<clustering>
<clus scale="   37.123">  2  9  1 -1</clus>
<clus scale="   90.251">  5  6 -1 -1</clus>
<clus scale="   90.414">  7  8 -1 -1</clus>
<clus scale="   91.709">  2  5  1 -1</clus>
<clus scale="   37.123">  2  5  1 -1</clus>
</clustering>
</event>
<event>
 9    1  0.1464797E-005  0.1062142E+03  0.7546771E-02  0.1271723E+00
          1   -1    0    0  502    0 -0.00000000000E+00  0.00000000000E+00  0.35896888091E+03  0.35896888091E+03  0.00000000000E+00 0. -1.
         21   -1    0    0  501  502  0.00000000000E+00 -0.00000000000E+00 -0.86377788933E+02  0.86377788933E+02  0.00000000000E+00 0. -1.
         23    2    1    2    0    0 -0.15141258596E+02  0.69572817572E+02  0.18516053126E+03  0.21818382564E+03  0.90830197502E+02 0.  0.
         23    2    1    2    0    0 -0.12773142016E+01 -0.25613411171E+00  0.11395395447E+03  0.15115059154E+03  0.99294010125E+02 0.  0.
        -11    1    3    3    0    0 -0.52616084653E+01  0.87781409776E+02  0.17324291713E+03  0.19428424733E+03  0.00000000000E+00 0. -1.
         11    1    3    3    0    0 -0.98796501302E+01 -0.18208592205E+02  0.11917614130E+02  0.23899578308E+02  0.00000000000E+00 0.  1.
        -11    1    4    4    0    0 -0.42112035579E+02  0.49742427826E+00  0.16050505163E+02  0.45069831234E+02  0.00000000000E+00 0. -1.
         11    1    4    4    0    0  0.40834721377E+02 -0.75355838997E+00  0.97903449310E+02  0.10608076031E+03  0.00000000000E+00 0.  1.
          1    1    1    2  501    0  0.16418572797E+02 -0.69316683460E+02 -0.26523393755E+02  0.76012252663E+02  0.00000000000E+00 0. -1.
<scales pt_clust_5="13000.00000" pt_clust_6="13000.00000" pt_clust_7="13000.00000" pt_clust_8="13000.00000" pt_clust_9="71.23463"></scales>
<clustering>
<clus scale="   71.235">  2  9  1 -1</clus>
<clus scale="   90.830">  5  6 -1 -1</clus>
<clus scale="   98.348">  1  5  2 -1</clus>
<clus scale="   99.294">  7  8 -1 -1</clus>
<clus scale="   71.235">  2  5  1 -1</clus>
</clustering>
</event>
<event>
 9    1  0.1464797E-005  0.1642199E+03  0.7546771E-02  0.1184163E+00
          1   -1    0    0  502    0 -0.00000000000E+00  0.00000000000E+00  0.28768835401E+03  0.28768835401E+03  0.00000000000E+00 0. -1.
         21   -1    0    0  501  502  0.00000000000E+00 -0.00000000000E+00 -0.12702811989E+03  0.12702811989E+03  0.00000000000E+00 0.  1.
         23    2    1    2    0    0  0.56799545894E+02 -0.12140268768E+03  0.11051074161E+03  0.19514392821E+03  0.88902911739E+02 0.  0.
         23    2    1    2    0    0 -0.42500856700E+02  0.13595918849E+03  0.77523530394E+02  0.18543045761E+03  0.89907358379E+02 0.  0.
        -11    1    3    3    0    0  0.60925168333E+02 -0.28176722198E+02  0.39540915038E+02  0.77905633765E+02  0.00000000000E+00 0.  1.
         11    1    3    3    0    0 -0.41256224393E+01 -0.93225965479E+02  0.70969826570E+02  0.11723829444E+03  0.00000000000E+00 0. -1.
        -13    1    4    4    0    0  0.33000147216E+01  0.71820889678E+02 -0.40407446183E+01  0.72010123652E+02  0.00000000000E+00 0. -1.
         13    1    4    4    0    0 -0.45800871421E+02  0.64138298811E+02  0.81564275012E+02  0.11342033396E+03  0.00000000000E+00 0.  1.
          1    1    1    2  501    0 -0.14298689194E+02 -0.14556500812E+02 -0.27374037879E+02  0.34142088078E+02  0.00000000000E+00 0. -1.
<scales pt_clust_5="13000.00000" pt_clust_6="13000.00000" pt_clust_7="13000.00000" pt_clust_8="13000.00000" pt_clust_9="20.40451"></scales>
<clustering>
<clus scale="   20.405">  2  9  1 -1</clus>
<clus scale="   88.903">  5  6 -1 -1</clus>
<clus scale="   89.907">  7  8 -1 -1</clus>
<clus scale="  163.672">  1  5  2 -1</clus>
<clus scale="   20.405">  2  5  1 -1</clus>
</clustering>
</event>
<event>
 9    1  0.2385638E-005  0.9902803E+02  0.7546771E-02  0.1282926E+00
         21   -1    0    0  501  502  0.00000000000E+00  0.00000000000E+00  0.29648792732E+03  0.29648792732E+03  0.00000000000E+00 0. -1.
          3   -1    0    0  502    0 -0.00000000000E+00 -0.00000000000E+00 -0.24299669322E+03  0.24299669322E+03  0.00000000000E+00 0. -1.
         23    2    1    2    0    0  0.15772439739E+02 -0.32964507236E+02 -0.15365821423E+03  0.18250450479E+03  0.91441887964E+02 0.  0.
         23    2    1    2    0    0 -0.42222900277E+02  0.95378229739E+01 -0.38191954127E+02  0.10910748686E+03  0.92585500773E+02 0.  0.
        -11    1    4    4    0    0 -0.11993231090E+01  0.30486520325E+02  0.18793017539E+02  0.35833556977E+02  0.00000000000E+00 0.  1.
         11    1    4    4    0    0 -0.41023577168E+02 -0.20948697351E+02 -0.56984971666E+02  0.73273929880E+02  0.00000000000E+00 0. -1.
        -13    1    3    3    0    0 -0.11564248344E+02 -0.48510708000E+02 -0.13925423887E+03  0.14791471757E+03  0.00000000000E+00 0. -1.
         13    1    3    3    0    0  0.27336688083E+02  0.15546200763E+02 -0.14403975359E+02  0.34589787216E+02  0.00000000000E+00 0.  1.
          3    1    1    2  501    0  0.26450460538E+02  0.23426684262E+02  0.24534140246E+03  0.24787262890E+03  0.00000000000E+00 0. -1.
<scales pt_clust_5="13000.00000" pt_clust_6="13000.00000" pt_clust_7="13000.00000" pt_clust_8="13000.00000" pt_clust_9="35.33322"></scales>
<clustering>
<clus scale="   35.333">  1  9  2 -1</clus>
<clus scale="   91.442">  7  8 -1 -1</clus>
<clus scale="   92.586">  5  6 -1 -1</clus>
<clus scale="   97.960">  2  7  1 -1</clus>
<clus scale="   35.333">  1  5  2 -1</clus>
</clustering>
</event>
<event>
 9    1  0.1464797E-005  0.1048815E+03  0.7546771E-02  0.1272026E+00
         21   -1    0    0  501  502  0.00000000000E+00  0.00000000000E+00  0.26184515741E+02  0.26184515741E+02  0.00000000000E+00 0.  1.
          1   -1    0    0  502    0 -0.00000000000E+00 -0.00000000000E+00 -0.65630824144E+03  0.65630824144E+03  0.00000000000E+00 0. -1.
         23    2    1    2    0    0 -0.35518926233E+02  0.33188703462E+02 -0.40730553323E+03  0.41939591251E+03  0.87361604107E+02 0.  0.
         23    2    1    2    0    0  0.24098607963E+02 -0.59166128803E+02 -0.18250309916E+03  0.21379616470E+03  0.91214281423E+02 0.  0.
        -11    1    3    3    0    0  0.18779186614E+02 -0.12058535983E+02 -0.44647382892E+02  0.49914476247E+02  0.00000000000E+00 0.  1.
         11    1    3    3    0    0 -0.54298112847E+02  0.45247239445E+02 -0.36265815034E+03  0.36948143627E+03  0.00000000000E+00 0. -1.
        -13    1    4    4    0    0  0.50758257219E+02 -0.66103155338E+02 -0.12827423375E+03  0.15297158843E+03  0.00000000000E+00 0.  1.
         13    1    4    4    0    0 -0.26659649256E+02  0.69370265348E+01 -0.54228865407E+02  0.60824576274E+02  0.00000000000E+00 0. -1.
          1    1    1    2  501    0  0.11420318270E+02  0.25977425341E+02 -0.40315093304E+02  0.49300679964E+02  0.00000000000E+00 0. -1.
<scales pt_clust_5="13000.00000" pt_clust_6="13000.00000" pt_clust_7="13000.00000" pt_clust_8="13000.00000" pt_clust_9="28.37693"></scales>
<clustering>
<clus scale="   28.377">  1  9  2 -1</clus>
<clus scale="   87.362">  5  6 -1 -1</clus>
<clus scale="   91.214">  7  8 -1 -1</clus>
<clus scale="  101.549">  2  5  1 -1</clus>
<clus scale="   28.377">  1  5  2 -1</clus>
</clustering>
</event>
<event>
 9    1  0.1464797E-005  0.1241603E+03  0.7546771E-02  0.1239867E+00
         21   -1    0    0  501  502  0.00000000000E+00  0.00000000000E+00  0.90985598402E+02  0.90985598402E+02  0.00000000000E+00 0.  1.
         -1   -1    0    0    0  501 -0.00000000000E+00 -0.00000000000E+00 -0.68740430214E+03  0.68740430214E+03  0.00000000000E+00 0.  1.
         23    2    1    2    0    0 -0.61615957144E+02  0.31096719355E+02 -0.53210897001E+03  0.54431752042E+03  0.91531824758E+02 0.  0.
         23    2    1    2    0    0  0.93011773598E+02  0.11792064948E+02 -0.99253739148E+02  0.17046240744E+03  0.10205824216E+03 0.  0.
        -11    1    4    4    0    0  0.25974773101E+02  0.50898179429E+02 -0.62190729928E+02  0.84457092040E+02  0.00000000000E+00 0.  1.
         11    1    4    4    0    0  0.67037000497E+02 -0.39106114480E+02 -0.37063009219E+02  0.86005315404E+02  0.00000000000E+00 0. -1.
        -13    1    3    3    0    0  0.19258217656E+02  0.27617813406E+02 -0.15188076627E+03  0.15556795855E+03  0.00000000000E+00 0.  1.
         13    1    3    3    0    0 -0.80874174800E+02  0.34789059490E+01 -0.38022820374E+03  0.38874956187E+03  0.00000000000E+00 0. -1.
         -1    1    1    2    0  502 -0.31395816454E+02 -0.42888784303E+02  0.34944005415E+02  0.63609972680E+02  0.00000000000E+00 0.  1.
<scales pt_clust_5="13000.00000" pt_clust_6="13000.00000" pt_clust_7="13000.00000" pt_clust_8="13000.00000" pt_clust_9="53.15209"></scales>
<clustering>
<clus scale="   53.152">  1  9  2 -1</clus>
<clus scale="   91.532">  7  8 -1 -1</clus>
<clus scale="  102.058">  5  6 -1 -1</clus>
<clus scale="  115.663">  2  7  1 -1</clus>
<clus scale="   53.152">  1  5  2 -1</clus>
</clustering>
</event>
<event>
 9    1  0.1464797E-005  0.2283448E+03  0.7546771E-02  0.1127824E+00
          1   -1    0    0  502    0 -0.00000000000E+00  0.00000000000E+00  0.39697924223E+03  0.39697924223E+03  0.00000000000E+00 0. -1.
         21   -1    0    0  501  502  0.00000000000E+00 -0.00000000000E+00 -0.39834957010E+03  0.39834957010E+03  0.00000000000E+00 0. -1.
         23    2    1    2    0    0 -0.52564946085E+02 -0.19479923813E+03  0.20722217338E+03  0.30337359944E+03  0.91567980000E+02 0.  0.
         23    2    1    2    0    0  0.23095553452E+02  0.26306051770E+03 -0.27515252339E+03  0.39216401118E+03  0.91375379441E+02 0.  0.
        -13    1    4    4    0    0 -0.16808429067E+02  0.12362884462E+03 -0.77022041528E+02  0.14662540500E+03  0.00000000000E+00 0.  1.
         13    1    4    4    0    0  0.39903982519E+02  0.13943167309E+03 -0.19813048187E+03  0.24553860618E+03  0.00000000000E+00 0. -1.
        -13    1    3    3    0    0 -0.15878608429E+01 -0.83424043697E+02  0.14175438771E+03  0.16448829382E+03  0.00000000000E+00 0.  1.
         13    1    3    3    0    0 -0.50977085242E+02 -0.11137519444E+03  0.65467785664E+02  0.13888530561E+03  0.00000000000E+00 0. -1.
          1    1    1    2  501    0  0.29469392633E+02 -0.68261279569E+02  0.66560022152E+02  0.99791201713E+02  0.00000000000E+00 0. -1.
<scales pt_clust_5="13000.00000" pt_clust_6="13000.00000" pt_clust_7="13000.00000" pt_clust_8="13000.00000" pt_clust_9="74.35088"></scales>
<clustering>
<clus scale="   74.351">  2  9  1 -1</clus>
<clus scale="   91.375">  5  6 -1 -1</clus>
<clus scale="   91.568">  7  8 -1 -1</clus>
<clus scale="  228.268">  2  5  1 -1</clus>
<clus scale="   74.351">  2  5  1 -1</clus>
</clustering>
</event>
<event>
 9    1  0.1464797E-005  0.1074218E+03  0.7546771E-02  0.1265578E+00
         -1   -1    0    0    0  501 -0.00000000000E+00  0.00000000000E+00  0.17830986200E+03  0.17830986200E+03  0.00000000000E+00 0.  1.
         21   -1    0    0  501  502  0.00000000000E+00 -0.00000000000E+00 -0.15525175033E+03  0.15525175033E+03  0.00000000000E+00 0. -1.
         23    2    1    2    0    0  0.14503384821E+02 -0.50797455725E+02  0.63300587940E+02  0.12331002420E+03  0.91693336487E+02 0.  0.
         23    2    1    2    0    0 -0.40277297989E+02  0.47952188203E+02  0.46224928472E+02  0.11997976401E+03  0.91305677111E+02 0.  0.
        -11    1    4    4    0    0  0.18505099267E+02  0.36551873627E+02  0.43913827870E+02  0.60057492811E+02  0.00000000000E+00 0.  1.
         11    1    4    4    0    0 -0.58782397256E+02  0.11400314576E+02  0.23111006018E+01  0.59922271198E+02  0.00000000000E+00 0. -1.
        -13    1    3    3    0    0  0.38503279384E+02 -0.55300732225E+02  0.14772742702E+02  0.68984834818E+02  0.00000000000E+00 0.  1.
         13    1    3    3    0    0 -0.23999894562E+02  0.45032765004E+01  0.48527845239E+02  0.54325189385E+02  0.00000000000E+00 0. -1.
         -1    1    1    2    0  502  0.25773913167E+02  0.28452675215E+01 -0.86467404745E+02  0.90271824123E+02  0.00000000000E+00 0.  1.
<scales pt_clust_5="13000.00000" pt_clust_6="13000.00000" pt_clust_7="13000.00000" pt_clust_8="13000.00000" pt_clust_9="25.93049"></scales>
<clustering>
<clus scale="   25.930">  2  9  1 -1</clus>
<clus scale="   91.306">  5  6 -1 -1</clus>
<clus scale="   91.693">  7  8 -1 -1</clus>
<clus scale="  107.091">  2  5  1 -1</clus>
<clus scale="   25.930">  2  5  1 -1</clus>
</clustering>
</event>
<event>
 9    1  0.1464797E-005  0.3096530E+03  0.7546771E-02  0.1080539E+00
         21   -1    0    0  501  502  0.00000000000E+00  0.00000000000E+00  0.24210186950E+03  0.24210186950E+03  0.00000000000E+00 0.  1.
          1   -1    0    0  502    0 -0.00000000000E+00 -0.00000000000E+00 -0.11017020203E+04  0.11017020203E+04  0.00000000000E+00 0. -1.
         23    2    1    2    0    0 -0.12952453098E+03  0.26464046275E+03 -0.90537216625E+03  0.95649875874E+03  0.91541997985E+02 0.  0.
         23    2    1    2    0    0  0.16965721262E+03 -0.25378735005E+03 -0.89171204743E+01  0.31860779646E+03  0.90773476780E+02 0.  0.
        -11    1    3    3    0    0 -0.10498844374E+03  0.19962696076E+03 -0.55099806948E+03  0.59537582195E+03  0.00000000000E+00 0. -1.
         11    1    3    3    0    0 -0.24536087236E+02  0.65013501988E+02 -0.35437409677E+03  0.36112293680E+03  0.00000000000E+00 0.  1.
        -11    1    4    4    0    0  0.14288822708E+03 -0.20440677397E+03 -0.42751127655E+02  0.25303524181E+03  0.00000000000E+00 0. -1.
         11    1    4    4    0    0  0.26768985532E+02 -0.49380576087E+02  0.33834007181E+02  0.65572554648E+02  0.00000000000E+00 0.  1.
          1    1    1    2  501    0 -0.40132681636E+02 -0.10853112698E+02  0.54689135942E+02  0.68697334596E+02  0.00000000000E+00 0. -1.
<scales pt_clust_5="13000.00000" pt_clust_6="13000.00000" pt_clust_7="13000.00000" pt_clust_8="13000.00000" pt_clust_9="41.57430"></scales>
<clustering>
<clus scale="   41.574">  1  9  2 -1</clus>
<clus scale="   90.773">  7  8 -1 -1</clus>
<clus scale="   91.542">  5  6 -1 -1</clus>
<clus scale="  309.427">  1  7  2 -1</clus>
<clus scale="   41.574">  1  5  2 -1</clus>
</clustering>
</event>
<event>
 9    1  0.1464797E-005  0.2128194E+03  0.7546771E-02  0.1139553E+00
         21   -1    0    0  501  502  0.00000000000E+00  0.00000000000E+00  0.45490501062E+02  0.45490501062E+02  0.00000000000E+00 0.  1.
         -1   -1    0    0    0  501 -0.00000000000E+00 -0.00000000000E+00 -0.13332275884E+04  0.13332275884E+04  0.00000000000E+00 0.  1.
         23    2    1    2    0    0  0.88721571365E+02  0.13732483785E+03 -0.46528089433E+03  0.50139127519E+03  0.90428269302E+02 0.  0.
         23    2    1    2    0    0 -0.12287016294E+03 -0.18877746111E+03 -0.66111370266E+03  0.70457005482E+03  0.92809630636E+02 0.  0.
        -11    1    4    4    0    0 -0.95112420032E+02 -0.14246399508E+03 -0.59522821374E+03  0.61938597721E+03  0.00000000000E+00 0.  1.
         11    1    4    4    0    0 -0.27757742905E+02 -0.46313466032E+02 -0.65885488921E+02  0.85184077605E+02  0.00000000000E+00 0. -1.
        -11    1    3    3    0    0  0.54676366057E+02  0.13479424014E+03 -0.42136900955E+03  0.44576993437E+03  0.00000000000E+00 0.  1.
         11    1    3    3    0    0  0.34045205308E+02  0.25305977100E+01 -0.43911884783E+02  0.55621340819E+02  0.00000000000E+00 0. -1.
         -1    1    1    2    0  502  0.34148591571E+02  0.51452623259E+02 -0.16134249038E+03  0.17275675949E+03  0.00000000000E+00 0.  1.
<scales pt_clust_5="13000.00000" pt_clust_6="13000.00000" pt_clust_7="13000.00000" pt_clust_8="13000.00000" pt_clust_9="61.75353"></scales>
<clustering>
<clus scale="   61.754">  1  9  2 -1</clus>
<clus scale="   90.428">  7  8 -1 -1</clus>
<clus scale="   92.810">  5  6 -1 -1</clus>
<clus scale="  211.792">  2  7  1 -1</clus>
<clus scale="   61.754">  1  5  2 -1</clus>
</clustering>
</event>
<event>
 9    1  0.1464797E-005  0.9673449E+02  0.7546771E-02  0.1288441E+00
         21   -1    0    0  501  502  0.00000000000E+00  0.00000000000E+00  0.12215912397E+03  0.12215912397E+03  0.00000000000E+00 0.  1.
         -2   -1    0    0    0  501 -0.00000000000E+00 -0.00000000000E+00 -0.33220619423E+03  0.33220619423E+03  0.00000000000E+00 0.  1.
         23    2    1    2    0    0 -0.61372760032E+02 -0.52519529629E+01 -0.18427715100E+03  0.21348235760E+03  0.88444615110E+02 0.  0.
         23    2    1    2    0    0  0.23258042232E+01  0.49114542028E+00 -0.10707447462E+03  0.14028654416E+03  0.90607509444E+02 0.  0.
        -11    1    3    3    0    0 -0.16600880100E+02 -0.40085526690E+02 -0.42311385209E+02  0.60602739116E+02  0.00000000000E+00 0. -1.
         11    1    3    3    0    0 -0.44771879932E+02  0.34833573727E+02 -0.14196576579E+03  0.15287961848E+03  0.00000000000E+00 0.  1.
        -13    1    4    4    0    0 -0.39976362528E+02 -0.77509801733E+01 -0.78923927249E+02  0.88809760426E+02  0.00000000000E+00 0.  1.
         13    1    4    4    0    0  0.42302166751E+02  0.82421255936E+01 -0.28150547372E+02  0.51476783733E+02  0.00000000000E+00 0. -1.
         -2    1    1    2    0  502  0.59046955809E+02  0.47608075426E+01  0.81304555355E+02  0.10059641644E+03  0.00000000000E+00 0.  1.
<scales pt_clust_5="13000.00000" pt_clust_6="13000.00000" pt_clust_7="13000.00000" pt_clust_8="13000.00000" pt_clust_9="59.23857"></scales>
<clustering>
<clus scale="   59.239">  1  9  2 -1</clus>
<clus scale="   88.445">  5  6 -1 -1</clus>
<clus scale="   90.608">  7  8 -1 -1</clus>
<clus scale="   94.712">  2  5  1 -1</clus>
<clus scale="   59.239">  1  5  2 -1</clus>
</clustering>
</event>
<event>
 9    1  0.1464797E-005  0.1018775E+03  0.7546771E-02  0.1278413E+00
         21   -1    0    0  501  502  0.00000000000E+00  0.00000000000E+00  0.28688335189E+03  0.28688335189E+03  0.00000000000E+00 0. -1.
          1   -1    0    0  502    0 -0.00000000000E+00 -0.00000000000E+00 -0.28336149002E+03  0.28336149002E+03  0.00000000000E+00 0. -1.
         23    2    1    2    0    0  0.13899302361E+02 -0.36343777866E+02 -0.23802330292E+03  0.25852142893E+03  0.93081553954E+02 0.  0.
         23    2    1    2    0    0 -0.20033446105E+02  0.59050316138E+02  0.51353652359E+02  0.12008305710E+03  0.88850797370E+02 0.  0.
        -13    1    3    3    0    0 -0.11809330235E+02 -0.62291231890E+02 -0.13326780688E+03  0.14758037200E+03  0.00000000000E+00 0.  1.
         13    1    3    3    0    0  0.25708632596E+02  0.25947454024E+02 -0.10475549604E+03  0.11094105692E+03  0.00000000000E+00 0. -1.
        -13    1    4    4    0    0  0.10189982422E+02 -0.20617796971E+02  0.14907526242E+02  0.27407364564E+02  0.00000000000E+00 0. -1.
         13    1    4    4    0    0 -0.30223428527E+02  0.79668113109E+02  0.36446126118E+02  0.92675692537E+02  0.00000000000E+00 0.  1.
          1    1    1    2  501    0  0.61341437441E+01 -0.22706538272E+02  0.19019151243E+03  0.19164035588E+03  0.00000000000E+00 0. -1.
<scales pt_clust_5="13000.00000" pt_clust_6="13000.00000" pt_clust_7="13000.00000" pt_clust_8="13000.00000" pt_clust_9="23.52051"></scales>
<clustering>
<clus scale="   23.521">  1  9  2 -1</clus>
<clus scale="   88.851">  7  8 -1 -1</clus>
<clus scale="   93.082">  5  6 -1 -1</clus>
<clus scale="   98.027">  1  7  2 -1</clus>
<clus scale="   23.521">  1  5  2 -1</clus>
</clustering>
</event>
<event>
 9    1  0.1464797E-005  0.1011737E+03  0.7546771E-02  0.1278040E+00
          2   -1    0    0  502    0 -0.00000000000E+00  0.00000000000E+00  0.64357265070E+03  0.64357265070E+03  0.00000000000E+00 0. -1.
         21   -1    0    0  501  502  0.00000000000E+00 -0.00000000000E+00 -0.34264088391E+02  0.34264088391E+02  0.00000000000E+00 0. -1.
         23    2    1    2    0    0  0.26468807471E+02  0.15870852205E+02  0.38991243499E+03  0.40181529136E+03  0.92039881014E+02 0.  0.
         23    2    1    2    0    0 -0.67440740964E+02 -0.28570307178E+02  0.19239169058E+03  0.22533402232E+03  0.91631561240E+02 0.  0.
        -11    1    3    3    0    0  0.58435572178E+02 -0.43692283550E+01  0.21384368721E+03  0.22172714947E+03  0.00000000000E+00 0.  1.
         11    1    3    3    0    0 -0.31966764707E+02  0.20240080560E+02  0.17606874778E+03  0.18008814189E+03  0.00000000000E+00 0. -1.
        -11    1    4    4    0    0  0.11851712939E+02  0.19461518970E+02  0.23895197886E+02  0.33018090530E+02  0.00000000000E+00 0.  1.
         11    1    4    4    0    0 -0.79292453903E+02 -0.48031826149E+02  0.16849649270E+03  0.19231593179E+03  0.00000000000E+00 0. -1.
          2    1    1    2  501    0  0.40971933493E+02  0.12699454973E+02  0.27004436732E+02  0.50687425403E+02  0.00000000000E+00 0. -1.
<scales pt_clust_5="13000.00000" pt_clust_6="13000.00000" pt_clust_7="13000.00000" pt_clust_8="13000.00000" pt_clust_9="42.89494"></scales>
<clustering>
<clus scale="   42.895">  2  9  1 -1</clus>
<clus scale="   91.632">  7  8 -1 -1</clus>
<clus scale="   92.040">  5  6 -1 -1</clus>
<clus scale="  100.802">  2  7  1 -1</clus>
<clus scale="   42.895">  2  5  1 -1</clus>
</clustering>
</event>
<event>
 9    1  0.1464797E-005  0.1336168E+03  0.7546771E-02  0.1222793E+00
         21   -1    0    0  501  502  0.00000000000E+00  0.00000000000E+00  0.23944780769E+03  0.23944780769E+03  0.00000000000E+00 0.  1.
          2   -1    0    0  502    0 -0.00000000000E+00 -0.00000000000E+00 -0.18386795515E+03  0.18386795515E+03  0.00000000000E+00 0. -1.
         23    2    1    2    0    0 -0.62675867345E+02 -0.71348199181E+02 -0.12117300859E+03  0.18004866455E+03  0.93358415388E+02 0.  0.
         23    2    1    2    0    0  0.87237132339E+02  0.54677795266E+02  0.14847967174E+03  0.20227281401E+03  0.90929092239E+02 0.  0.
        -11    1    3    3    0    0 -0.46055406925E+02  0.12467655756E+02 -0.44499974122E+02  0.65244085126E+02  0.00000000000E+00 0.  1.
         11    1    3    3    0    0 -0.16620460420E+02 -0.83815854938E+02 -0.76673034464E+02  0.11480457943E+03  0.00000000000E+00 0. -1.
        -13    1    4    4    0    0  0.68998733973E+02  0.46007353941E+02  0.40262817642E+02  0.92187832120E+02  0.00000000000E+00 0. -1.
         13    1    4    4    0    0  0.18238398365E+02  0.86704413254E+01  0.10821685410E+03  0.11008498189E+03  0.00000000000E+00 0.  1.
          2    1    1    2  501    0 -0.24561264994E+02  0.16670403915E+02  0.28273189387E+02  0.40994284271E+02  0.00000000000E+00 0. -1.
<scales pt_clust_5="13000.00000" pt_clust_6="13000.00000" pt_clust_7="13000.00000" pt_clust_8="13000.00000" pt_clust_9="29.68431"></scales>
<clustering>
<clus scale="   29.684">  1  9  2 -1</clus>
<clus scale="   90.929">  7  8 -1 -1</clus>
<clus scale="   93.358">  5  6 -1 -1</clus>
<clus scale="  131.931">  1  7  2 -1</clus>
<clus scale="   29.684">  1  5  2 -1</clus>
</clustering>
</event>
<event>
 9    1  0.1464797E-005  0.1140638E+03  0.7546771E-02  0.1258513E+00
         -1   -1    0    0    0  501 -0.00000000000E+00  0.00000000000E+00  0.30802129031E+03  0.30802129031E+03  0.00000000000E+00 0.  1.
         21   -1    0    0  501  502  0.00000000000E+00 -0.00000000000E+00 -0.51444623794E+02  0.51444623794E+02  0.00000000000E+00 0.  1.
         23    2    1    2    0    0 -0.84292939777E+01  0.47297689301E+02  0.12827627818E+03  0.16505774818E+03  0.92093063143E+02 0.  0.
         23    2    1    2    0    0  0.26096527981E+02 -0.36689569063E+02  0.13106207612E+03  0.17361657408E+03  0.10458629809E+03 0.  0.
        -11    1    4    4    0    0  0.21216231072E+02  0.31559911668E+02  0.19483670565E+02  0.42729028822E+02  0.00000000000E+00 0. -1.
         11    1    4    4    0    0  0.48802969088E+01 -0.68249480732E+02  0.11157840555E+03  0.13088754526E+03  0.00000000000E+00 0.  1.
        -13    1    3    3    0    0  0.62369991025E+01 -0.22638679574E+02  0.73660733282E+01  0.24610343495E+02  0.00000000000E+00 0. -1.
         13    1    3    3    0    0 -0.14666293080E+02  0.69936368876E+02  0.12091020486E+03  0.14044740468E+03  0.00000000000E+00 0.  1.
         -1    1    1    2    0  502 -0.17667234003E+02 -0.10608120238E+02 -0.27616877794E+01  0.20791591851E+02  0.00000000000E+00 0.  1.
<scales pt_clust_5="13000.00000" pt_clust_6="13000.00000" pt_clust_7="13000.00000" pt_clust_8="13000.00000" pt_clust_9="20.60736"></scales>
<clustering>
<clus scale="   20.607">  2  9  1 -1</clus>
<clus scale="   92.093">  7  8 -1 -1</clus>
<clus scale="  102.730">  1  7  2 -1</clus>
<clus scale="  104.586">  5  6 -1 -1</clus>
<clus scale="   20.607">  2  5  1 -1</clus>
</clustering>
</event>
<event>
 9    1  0.1464797E-005  0.9571116E+02  0.7546771E-02  0.1289849E+00
         21   -1    0    0  501  502  0.00000000000E+00  0.00000000000E+00  0.27127379450E+03  0.27127379450E+03  0.00000000000E+00 0.  1.
          2   -1    0    0  502    0 -0.00000000000E+00 -0.00000000000E+00 -0.70446952005E+02  0.70446952005E+02  0.00000000000E+00 0. -1.
         23    2    1    2    0    0 -0.71036191836E+01  0.21821406958E+02 -0.35457768464E+01  0.94313275832E+02  0.91409989922E+02 0.  0.
         23    2    1    2    0    0 -0.62321075871E+01 -0.39127969367E+02  0.10265231016E+03  0.14336718996E+03  0.91906567907E+02 0.  0.
        -11    1    3    3    0    0  0.14832963206E+02  0.30394766318E+02  0.35298791761E+02  0.48886228294E+02  0.00000000000E+00 0.  1.
         11    1    3    3    0    0 -0.21936582390E+02 -0.85733593603E+01 -0.38844568608E+02  0.45427047538E+02  0.00000000000E+00 0. -1.
        -13    1    4    4    0    0  0.26555222162E+02 -0.49889602690E+02  0.90662006181E+02  0.10683516109E+03  0.00000000000E+00 0. -1.
         13    1    4    4    0    0 -0.32787329750E+02  0.10761633323E+02  0.11990303981E+02  0.36532028871E+02  0.00000000000E+00 0.  1.
          2    1    1    2  501    0  0.13335726771E+02  0.17306562409E+02  0.10172030918E+03  0.10404028071E+03  0.00000000000E+00 0. -1.
<scales pt_clust_5="13000.00000" pt_clust_6="13000.00000" pt_clust_7="13000.00000" pt_clust_8="13000.00000" pt_clust_9="21.84854"></scales>
<clustering>
<clus scale="   21.849">  1  9  2 -1</clus>
<clus scale="   91.410">  5  6 -1 -1</clus>
<clus scale="   91.907">  7  8 -1 -1</clus>
<clus scale="   95.234">  2  5  1 -1</clus>
<clus scale="   21.849">  1  5  2 -1</clus>
</clustering>
</event>
<event>
 9    1  0.1464797E-005  0.1443433E+03  0.7546771E-02  0.1209047E+00
         -2   -1    0    0    0  501 -0.00000000000E+00  0.00000000000E+00  0.48818783665E+03  0.48818783665E+03  0.00000000000E+00 0.  1.
         21   -1    0    0  501  502  0.00000000000E+00 -0.00000000000E+00 -0.40024826670E+03  0.40024826670E+03  0.00000000000E+00 0.  1.
         23    2    1    2    0    0  0.68165966165E+02 -0.88849846691E+02  0.42158860133E+03  0.44411686414E+03  0.83438276880E+02 0.  0.
         23    2    1    2    0    0 -0.95903243602E+02  0.83433123698E+02 -0.36805455867E+03  0.39979466446E+03  0.90626140343E+02 0.  0.
        -11    1    3    3    0    0  0.80355527573E+02 -0.58793296229E+02  0.37014040363E+03  0.38329829232E+03  0.00000000000E+00 0.  1.
         11    1    3    3    0    0 -0.12189561408E+02 -0.30056550462E+02  0.51448197697E+02  0.60818571829E+02  0.00000000000E+00 0. -1.
        -13    1    4    4    0    0 -0.10121589413E+03  0.40314455631E+02 -0.22002763375E+03  0.24552407656E+03  0.00000000000E+00 0. -1.
         13    1    4    4    0    0  0.53126505255E+01  0.43118668066E+02 -0.14802692491E+03  0.15427058790E+03  0.00000000000E+00 0.  1.
         -2    1    1    2    0  502  0.27737277438E+02  0.54167229936E+01  0.34405527291E+02  0.44524574741E+02  0.00000000000E+00 0.  1.
<scales pt_clust_5="13000.00000" pt_clust_6="13000.00000" pt_clust_7="13000.00000" pt_clust_8="13000.00000" pt_clust_9="28.26125"></scales>
<clustering>
<clus scale="   28.261">  2  9  1 -1</clus>
<clus scale="   83.438">  5  6 -1 -1</clus>
<clus scale="   90.626">  7  8 -1 -1</clus>
<clus scale="  139.942">  1  5  2 -1</clus>
<clus scale="   28.261">  2  5  1 -1</clus>
</clustering>
</event>
<event>
 9    1  0.1464797E-005  0.1694002E+03  0.7546771E-02  0.1193604E+00
         -3   -1    0    0    0  501 -0.00000000000E+00  0.00000000000E+00  0.10711397947E+04  0.10711397947E+04  0.00000000000E+00 0.  1.
         21   -1    0    0  501  502  0.00000000000E+00 -0.00000000000E+00 -0.59348097176E+02  0.59348097176E+02  0.00000000000E+00 0.  1.
         23    2    1    2    0    0 -0.29665937451E+02  0.73844833043E+02  0.21740801482E+03  0.24880545532E+03  0.91130579276E+02 0.  0.
         23    2    1    2    0    0  0.52327341127E+02 -0.19855203556E+03  0.65798314092E+03  0.69548218581E+03  0.92696254427E+02 0.  0.
        -11    1    4    4    0    0  0.77223105520E+02 -0.17059336104E+03  0.56601159938E+03  0.59618338914E+03  0.00000000000E+00 0.  1.
         11    1    4    4    0    0 -0.24895764393E+02 -0.27958674524E+02  0.91971541543E+02  0.99298796668E+02  0.00000000000E+00 0. -1.
        -13    1    3    3    0    0  0.10648908473E+02  0.79201829172E+02  0.13424447864E+03  0.15623030769E+03  0.00000000000E+00 0.  1.
         13    1    3    3    0    0 -0.40314845924E+02 -0.53569961290E+01  0.83163536178E+02  0.92575147632E+02  0.00000000000E+00 0. -1.
         -3    1    1    2    0  502 -0.22661403676E+02  0.12470720252E+03  0.13640054177E+03  0.18620025073E+03  0.00000000000E+00 0.  1.
<scales pt_clust_5="13000.00000" pt_clust_6="13000.00000" pt_clust_7="13000.00000" pt_clust_8="13000.00000" pt_clust_9="141.78799"></scales>
<clustering>
<clus scale="   91.131">  7  8 -1 -1</clus>
<clus scale="   92.696">  5  6 -1 -1</clus>
<clus scale="  120.987">  1  7  2 -1</clus>
<clus scale="  141.788">  2  9  1 -1</clus>
<clus scale="  141.788">  2  5  1 -1</clus>
</clustering>
</event>
<event>
 9    1  0.1464797E-005  0.9945243E+02  0.7546771E-02  0.1281770E+00
          1   -1    0    0  502    0 -0.00000000000E+00  0.00000000000E+00  0.49198399280E+03  0.49198399280E+03  0.00000000000E+00 0. -1.
         21   -1    0    0  501  502  0.00000000000E+00 -0.00000000000E+00 -0.14067279458E+03  0.14067279458E+03  0.00000000000E+00 0. -1.
         23    2    1    2    0    0 -0.96605238670E+01  0.11307067911E+02  0.24389821782E+03  0.26172702185E+03  0.93773758634E+02 0.  0.
         23    2    1    2    0    0  0.52595657765E+02 -0.21443696577E+02  0.22216851599E+03  0.24798664895E+03  0.94405472427E+02 0.  0.
        -11    1    4    4    0    0  0.24610852801E+02  0.34004630166E+01  0.22939773797E+01  0.24950341812E+02  0.00000000000E+00 0.  1.
         11    1    4    4    0    0  0.27984804963E+02 -0.24844159594E+02  0.21987453861E+03  0.22303630714E+03  0.00000000000E+00 0. -1.
        -13    1    3    3    0    0 -0.18068637136E+02  0.46442677348E+02  0.19287217994E+03  0.19920611367E+03  0.00000000000E+00 0.  1.
         13    1    3    3    0    0  0.84081132695E+01 -0.35135609436E+02  0.51026037873E+02  0.62520908184E+02  0.00000000000E+00 0. -1.
          1    1    1    2  501    0 -0.42935133898E+02  0.10136628666E+02 -0.11475553559E+03  0.12294311657E+03  0.00000000000E+00 0. -1.
<scales pt_clust_5="13000.00000" pt_clust_6="13000.00000" pt_clust_7="13000.00000" pt_clust_8="13000.00000" pt_clust_9="44.11550"></scales>
<clustering>
<clus scale="   44.115">  2  9  1 -1</clus>
<clus scale="   93.774">  7  8 -1 -1</clus>
<clus scale="   94.405">  5  6 -1 -1</clus>
<clus scale="   98.853">  1  7  2 -1</clus>
<clus scale="   44.115">  2  5  1 -1</clus>
</clustering>
</event>
<event>
 9    1  0.1464797E-005  0.2143322E+03  0.7546771E-02  0.1164058E+00
         -3   -1    0    0    0  501 -0.00000000000E+00  0.00000000000E+00  0.19714311916E+03  0.19714311916E+03  0.00000000000E+00 0.  1.
         21   -1    0    0  501  502  0.00000000000E+00 -0.00000000000E+00 -0.54164142888E+03  0.54164142888E+03  0.00000000000E+00 0.  1.
         23    2    1    2    0    0 -0.29342380326E+02 -0.61384572246E+02  0.56226008261E+01  0.11636116189E+03  0.94229853888E+02 0.  0.
         23    2    1    2    0    0 -0.16992588095E+03  0.36805366009E+02  0.24352125013E+02  0.19752100714E+03  0.90510122545E+02 0.  0.
        -11    1    3    3    0    0  0.12939527439E+01 -0.68006647338E+02  0.32209793098E+02  0.75259877540E+02  0.00000000000E+00 0.  1.
         11    1    3    3    0    0 -0.30636333070E+02  0.66220750920E+01 -0.26587192272E+02  0.41101284352E+02  0.00000000000E+00 0. -1.
        -13    1    4    4    0    0 -0.12438689711E+03  0.57539057685E+02 -0.90671797497E+01  0.13735012588E+03  0.00000000000E+00 0.  1.
         13    1    4    4    0    0 -0.45538983847E+02 -0.20733691676E+02  0.33419304763E+02  0.60170881256E+02  0.00000000000E+00 0. -1.
         -3    1    1    2    0  502  0.19926826128E+03  0.24579206238E+02 -0.37447303556E+03  0.42490237901E+03  0.00000000000E+00 0.  1.
<scales pt_clust_5="13000.00000" pt_clust_6="13000.00000" pt_clust_7="13000.00000" pt_clust_8="13000.00000" pt_clust_9="194.28385"></scales>
<clustering>
<clus scale="   90.510">  7  8 -1 -1</clus>
<clus scale="   94.230">  5  6 -1 -1</clus>
<clus scale="  116.225">  1  5  2 -1</clus>
<clus scale="  194.284">  2  9  1 -1</clus>
<clus scale="  194.284">  2  5  1 -1</clus>
</clustering>
</event>
<event>
 9    1  0.1464797E-005  0.1324705E+03  0.7546771E-02  0.1229864E+00
         21   -1    0    0  501  502  0.00000000000E+00  0.00000000000E+00  0.40655325524E+02  0.40655325524E+02  0.00000000000E+00 0.  1.
         -1   -1    0    0    0  501 -0.00000000000E+00 -0.00000000000E+00 -0.96170923967E+03  0.96170923967E+03  0.00000000000E+00 0.  1.
         23    2    1    2    0    0 -0.65555837428E+02  0.49766537010E+02 -0.65092260391E+03  0.66512264568E+03  0.10914953730E+03 0.  0.
         23    2    1    2    0    0  0.67205847321E+02 -0.13080214907E+02 -0.27772202290E+03  0.29974221710E+03  0.89599981987E+02 0.  0.
        -13    1    3    3    0    0  0.84880405179E+00  0.65575959598E+02 -0.38689198169E+03  0.39241092294E+03  0.00000000000E+00 0.  1.
         13    1    3    3    0    0 -0.66404641479E+02 -0.15809422589E+02 -0.26403062222E+03  0.27271172274E+03  0.00000000000E+00 0. -1.
        -13    1    4    4    0    0  0.16451526784E+02 -0.48230118810E+02 -0.12039957733E+03  0.13073964707E+03  0.00000000000E+00 0. -1.
         13    1    4    4    0    0  0.50754320536E+02  0.35149903903E+02 -0.15732244557E+03  0.16900257003E+03  0.00000000000E+00 0.  1.
         -1    1    1    2    0  502 -0.16500098934E+01 -0.36686322103E+02  0.75907126646E+01  0.37499702410E+02  0.00000000000E+00 0.  1.
<scales pt_clust_5="13000.00000" pt_clust_6="13000.00000" pt_clust_7="13000.00000" pt_clust_8="13000.00000" pt_clust_9="36.72341"></scales>
<clustering>
<clus scale="   36.723">  1  9  2 -1</clus>
<clus scale="   89.600">  7  8 -1 -1</clus>
<clus scale="  109.150">  5  6 -1 -1</clus>
<clus scale="  116.889">  1  7  2 -1</clus>
<clus scale="   36.723">  1  5  2 -1</clus>
</clustering>
</event>
<event>
 9    1  0.1464797E-005  0.1081188E+03  0.7546771E-02  0.1267367E+00
         -1   -1    0    0    0  501 -0.00000000000E+00  0.00000000000E+00  0.42931378265E+03  0.42931378265E+03  0.00000000000E+00 0.  1.
         21   -1    0    0  501  502  0.00000000000E+00 -0.00000000000E+00 -0.35453321478E+02  0.35453321478E+02  0.00000000000E+00 0. -1.
         23    2    1    2    0    0  0.28609418355E+02  0.30439264607E+02  0.20750635885E+03  0.23617872590E+03  0.10476857333E+03 0.  0.
         23    2    1    2    0    0 -0.11532036035E+02 -0.56369100509E+01  0.16269177821E+03  0.19029086707E+03  0.97863357717E+02 0.  0.
        -11    1    3    3    0    0  0.38417903775E+02 -0.65414576272E+01  0.18139634165E+02  0.42985722350E+02  0.00000000000E+00 0. -1.
         11    1    3    3    0    0 -0.98084854199E+01  0.36980722234E+02  0.18936672468E+03  0.19319300355E+03  0.00000000000E+00 0.  1.
        -13    1    4    4    0    0  0.10702978218E+02 -0.43667594998E+02  0.12312574840E+03  0.13107769648E+03  0.00000000000E+00 0.  1.
         13    1    4    4    0    0 -0.22235014253E+02  0.38030684947E+02  0.39566029807E+02  0.59213170588E+02  0.00000000000E+00 0. -1.
         -1    1    1    2    0  502 -0.17077382319E+02 -0.24802354556E+02  0.23662324117E+02  0.38297511159E+02  0.00000000000E+00 0.  1.
<scales pt_clust_5="13000.00000" pt_clust_6="13000.00000" pt_clust_7="13000.00000" pt_clust_8="13000.00000" pt_clust_9="30.11302"></scales>
<clustering>
<clus scale="   30.113">  2  9  1 -1</clus>
<clus scale="   97.863">  7  8 -1 -1</clus>
<clus scale="  101.442">  2  7  1 -1</clus>
<clus scale="  104.769">  5  6 -1 -1</clus>
<clus scale="   30.113">  2  5  1 -1</clus>
</clustering>
</event>
<event>
 9    1  0.1464797E-005  0.1191463E+03  0.7546771E-02  0.1244659E+00
         21   -1    0    0  501  502  0.00000000000E+00  0.00000000000E+00  0.30504654775E+03  0.30504654775E+03  0.00000000000E+00 0.  1.
         -1   -1    0    0    0  501 -0.00000000000E+00 -0.00000000000E+00 -0.26505498698E+03  0.26505498698E+03  0.00000000000E+00 0.  1.
         23    2    1    2    0    0  0.76900532147E+02  0.20228865738E+02 -0.21673092296E+03  0.24828704524E+03  0.91385255999E+02 0.  0.
         23    2    1    2    0    0 -0.51508532053E+02 -0.20602580730E+02  0.58963685483E+02  0.12243185330E+03  0.91843602334E+02 0.  0.
        -11    1    3    3    0    0  0.49409157756E+02 -0.34229748528E+02 -0.10504221080E+03  0.12102399186E+03  0.00000000000E+00 0.  1.
         11    1    3    3    0    0  0.27491374391E+02  0.54458614266E+02 -0.11168871215E+03  0.12726305338E+03  0.00000000000E+00 0. -1.
        -13    1    4    4    0    0  0.26732425340E+02 -0.19582065410E+01  0.16559740190E+02  0.31506858501E+02  0.00000000000E+00 0.  1.
         13    1    4    4    0    0 -0.78240957393E+02 -0.18644374189E+02  0.42403945293E+02  0.90924994798E+02  0.00000000000E+00 0. -1.
         -1    1    1    2    0  502 -0.25392000095E+02  0.37371499253E+00  0.19775879824E+03  0.19938263619E+03  0.00000000000E+00 0.  1.
<scales pt_clust_5="13000.00000" pt_clust_6="13000.00000" pt_clust_7="13000.00000" pt_clust_8="13000.00000" pt_clust_9="25.39475"></scales>
<clustering>
<clus scale="   25.395">  1  9  2 -1</clus>
<clus scale="   91.385">  5  6 -1 -1</clus>
<clus scale="   91.844">  7  8 -1 -1</clus>
<clus scale="  118.793">  2  5  1 -1</clus>
<clus scale="   25.395">  1  5  2 -1</clus>
</clustering>
</event>
<event>
 9    1  0.1464797E-005  0.9444317E+02  0.7546771E-02  0.1293117E+00
          1   -1    0    0  502    0 -0.00000000000E+00  0.00000000000E+00  0.21428681452E+03  0.21428681452E+03  0.00000000000E+00 0. -1.
         21   -1    0    0  501  502  0.00000000000E+00 -0.00000000000E+00 -0.83063278487E+02  0.83063278487E+02  0.00000000000E+00 0.  1.
         23    2    1    2    0    0  0.13868060520E+02 -0.53345008448E+01  0.88811545387E+02  0.12814529842E+03  0.91175363504E+02 0.  0.
         23    2    1    2    0    0 -0.49136746195E+02 -0.32826680693E+02  0.10268215383E+02  0.10810341773E+03  0.89938322681E+02 0.  0.
        -13    1    4    4    0    0 -0.17674025859E+02  0.11326917217E+02 -0.32745372799E+02  0.38896396793E+02  0.00000000000E+00 0.  1.
         13    1    4    4    0    0 -0.31462720336E+02 -0.44153597910E+02  0.43013588182E+02  0.69207020942E+02  0.00000000000E+00 0. -1.
        -13    1    3    3    0    0 -0.34728165917E+02  0.15864372052E+02  0.47436735937E+02  0.60893084376E+02  0.00000000000E+00 0.  1.
         13    1    3    3    0    0  0.48596226437E+02 -0.21198872897E+02  0.41374809450E+02  0.67252214039E+02  0.00000000000E+00 0. -1.
          1    1    1    2  501    0  0.35268685674E+02  0.38161181538E+02  0.32143775259E+02  0.61101376854E+02  0.00000000000E+00 0. -1.
<scales pt_clust_5="13000.00000" pt_clust_6="13000.00000" pt_clust_7="13000.00000" pt_clust_8="13000.00000" pt_clust_9="51.96305"></scales>
<clustering>
<clus scale="   51.963">  2  9  1 -1</clus>
<clus scale="   89.938">  5  6 -1 -1</clus>
<clus scale="   91.175">  7  8 -1 -1</clus>
<clus scale="   93.249">  2  5  1 -1</clus>
<clus scale="   51.963">  2  5  1 -1</clus>
</clustering>
</event>
<event>
 9    1  0.1464797E-005  0.9461665E+02  0.7546771E-02  0.1292814E+00
         21   -1    0    0  501  502  0.00000000000E+00  0.00000000000E+00  0.31429899668E+03  0.31429899668E+03  0.00000000000E+00 0. -1.
          2   -1    0    0  502    0 -0.00000000000E+00 -0.00000000000E+00 -0.26122038413E+03  0.26122038413E+03  0.00000000000E+00 0. -1.
         23    2    1    2    0    0  0.24517590294E+02  0.21382579713E+02 -0.13588743304E+03  0.16703865466E+03  0.91532457329E+02 0.  0.
         23    2    1    2    0    0 -0.76004501113E+01  0.36934626259E+02 -0.82784186602E+02  0.13002915973E+03  0.92910857109E+02 0.  0.
        -11    1    3    3    0    0 -0.61124548574E+01  0.35105384238E+02 -0.12757915632E+03  0.13246203696E+03  0.00000000000E+00 0. -1.
         11    1    3    3    0    0  0.30630045151E+02 -0.13722804525E+02 -0.83082767177E+01  0.34576617706E+02  0.00000000000E+00 0.  1.
        -13    1    4    4    0    0  0.26222789354E+02  0.51868974823E+02 -0.69827670145E+02  0.90851135098E+02  0.00000000000E+00 0. -1.
         13    1    4    4    0    0 -0.33823239465E+02 -0.14934348564E+02 -0.12956516457E+02  0.39178024627E+02  0.00000000000E+00 0.  1.
          2    1    1    2  501    0 -0.16917140183E+02 -0.58317205972E+02  0.27175023220E+03  0.27845156642E+03  0.00000000000E+00 0. -1.
<scales pt_clust_5="13000.00000" pt_clust_6="13000.00000" pt_clust_7="13000.00000" pt_clust_8="13000.00000" pt_clust_9="60.72138"></scales>
<clustering>
<clus scale="   60.721">  1  9  2 -1</clus>
<clus scale="   91.532">  5  6 -1 -1</clus>
<clus scale="   92.911">  7  8 -1 -1</clus>
<clus scale="   93.263">  2  5  1 -1</clus>
<clus scale="   60.721">  1  5  2 -1</clus>
</clustering>
</event>
<event>
 9    1  0.1464797E-005  0.1115664E+03  0.7546771E-02  0.1269094E+00
         21   -1    0    0  501  502  0.00000000000E+00  0.00000000000E+00  0.45851719330E+03  0.45851719330E+03  0.00000000000E+00 0.  1.
          3   -1    0    0  502    0 -0.00000000000E+00 -0.00000000000E+00 -0.32253047064E+02  0.32253047064E+02  0.00000000000E+00 0. -1.
         23    2    1    2    0    0 -0.15986101944E+02 -0.62040451731E+01  0.16581323618E+03  0.19975233579E+03  0.11005871490E+03 0.  0.
         23    2    1    2    0    0  0.16548571676E+02 -0.20130193433E+02  0.13556673362E+03  0.16338614513E+03  0.87393439371E+02 0.  0.
        -13    1    3    3    0    0 -0.32722229021E+02 -0.51127130935E+02  0.11406407748E+03  0.12921045454E+03  0.00000000000E+00 0.  1.
         13    1    3    3    0    0  0.16736127077E+02  0.44923085762E+02  0.51749158700E+02  0.70541881248E+02  0.00000000000E+00 0. -1.
        -13    1    4    4    0    0  0.32211247389E+02  0.58563793481E+01  0.12799241798E+03  0.13211328737E+03  0.00000000000E+00 0. -1.
         13    1    4    4    0    0 -0.15662675713E+02 -0.25986572781E+02  0.75743156315E+01  0.31272857763E+02  0.00000000000E+00 0.  1.
          3    1    1    2  501    0 -0.56246973250E+00  0.26334238606E+02  0.12488417644E+03  0.12763175945E+03  0.00000000000E+00 0. -1.
<scales pt_clust_5="13000.00000" pt_clust_6="13000.00000" pt_clust_7="13000.00000" pt_clust_8="13000.00000" pt_clust_9="26.34024"></scales>
<clustering>
<clus scale="   26.340">  1  9  2 -1</clus>
<clus scale="   87.393">  7  8 -1 -1</clus>
<clus scale="   89.285">  1  7  2 -1</clus>
<clus scale="  110.059">  5  6 -1 -1</clus>
<clus scale="   26.340">  1  5  2 -1</clus>
</clustering>
</event>
<event>
 9    1  0.1464797E-005  0.9310339E+02  0.7546771E-02  0.1295751E+00
          2   -1    0    0  502    0 -0.00000000000E+00  0.00000000000E+00  0.23044981053E+03  0.23044981053E+03  0.00000000000E+00 0. -1.
         21   -1    0    0  501  502  0.00000000000E+00 -0.00000000000E+00 -0.10678514328E+03  0.10678514328E+03  0.00000000000E+00 0.  1.
         23    2    1    2    0    0  0.17748368018E+02  0.40133847777E+01  0.10111833773E+03  0.13805466912E+03  0.92212047020E+02 0.  0.
         23    2    1    2    0    0  0.15863084253E+01  0.24849310662E+02  0.85105565560E+02  0.12762231578E+03  0.91785040070E+02 0.  0.
        -11    1    3    3    0    0 -0.20594212880E+02 -0.31038117023E+02  0.64545462271E+02  0.74522500041E+02  0.00000000000E+00 0. -1.
         11    1    3    3    0    0  0.38342580898E+02  0.35051501801E+02  0.36572875455E+02  0.63532169076E+02  0.00000000000E+00 0.  1.
        -13    1    4    4    0    0 -0.31004280293E+01  0.59643360432E+02  0.48890900318E+02  0.77183309280E+02  0.00000000000E+00 0.  1.
         13    1    4    4    0    0  0.46867364546E+01 -0.34794049770E+02  0.36214665241E+02  0.50439006498E+02  0.00000000000E+00 0. -1.
          2    1    1    2  501    0 -0.19334676444E+02 -0.28862695440E+02 -0.62559236036E+02  0.71557968910E+02  0.00000000000E+00 0. -1.
<scales pt_clust_5="13000.00000" pt_clust_6="13000.00000" pt_clust_7="13000.00000" pt_clust_8="13000.00000" pt_clust_9="34.74025"></scales>
<clustering>
<clus scale="   34.740">  2  9  1 -1</clus>
<clus scale="   91.785">  7  8 -1 -1</clus>
<clus scale="   92.212">  5  6 -1 -1</clus>
<clus scale="   92.680">  2  7  1 -1</clus>
<clus scale="   34.740">  2  5  1 -1</clus>
</clustering>
</event>
<event>
 9    1  0.1464797E-005  0.1037069E+03  0.7546771E-02  0.1273330E+00
          1   -1    0    0  502    0 -0.00000000000E+00  0.00000000000E+00  0.23842917339E+03  0.23842917339E+03  0.00000000000E+00 0. -1.
         21   -1    0    0  501  502  0.00000000000E+00 -0.00000000000E+00 -0.10067331569E+03  0.10067331569E+03  0.00000000000E+00 0. -1.
         23    2    1    2    0    0 -0.74915740985E+02 -0.67612353059E+01  0.11029523630E+03  0.16269045225E+03  0.92978823135E+02 0.  0.
         23    2    1    2    0    0  0.31276422928E+01 -0.25328233136E+02  0.22178471557E+02  0.97601084510E+02  0.91557553248E+02 0.  0.
        -13    1    3    3    0    0 -0.19445138008E+02 -0.83777346945E+01  0.10480843913E+03  0.10692571601E+03  0.00000000000E+00 0.  1.
         13    1    3    3    0    0 -0.55470602976E+02  0.16164993886E+01  0.54867971718E+01  0.55764736241E+02  0.00000000000E+00 0. -1.
        -13    1    4    4    0    0  0.27160015260E+02  0.24112368199E+02  0.22319165814E+02  0.42628838733E+02  0.00000000000E+00 0.  1.
         13    1    4    4    0    0 -0.24032372967E+02 -0.49440601335E+02 -0.14069425790E+00  0.54972245776E+02  0.00000000000E+00 0. -1.
          1    1    1    2  501    0  0.71788098692E+02  0.32089468442E+02  0.52821498466E+01  0.78810952321E+02  0.00000000000E+00 0. -1.
<scales pt_clust_5="13000.00000" pt_clust_6="13000.00000" pt_clust_7="13000.00000" pt_clust_8="13000.00000" pt_clust_9="78.63374"></scales>
<clustering>
<clus scale="   78.634">  2  9  1 -1</clus>
<clus scale="   91.558">  7  8 -1 -1</clus>
<clus scale="   92.979">  5  6 -1 -1</clus>
<clus scale="  102.435">  2  7  1 -1</clus>
<clus scale="   78.634">  2  5  1 -1</clus>
</clustering>
</event>
<event>
 9    1  0.1464797E-005  0.9094147E+02  0.7546771E-02  0.1300898E+00
         21   -1    0    0  501  502  0.00000000000E+00  0.00000000000E+00  0.79733039563E+02  0.79733039563E+02  0.00000000000E+00 0. -1.
          1   -1    0    0  502    0 -0.00000000000E+00 -0.00000000000E+00 -0.22124290301E+03  0.22124290301E+03  0.00000000000E+00 0. -1.
         23    2    1    2    0    0  0.11711178404E+02  0.42324848622E+01 -0.13696178690E+03  0.16485630458E+03  0.90906569955E+02 0.  0.
         23    2    1    2    0    0  0.27036715180E+02  0.69413579807E+01 -0.11152078798E+02  0.95255633455E+02  0.90388607828E+02 0.  0.
        -11    1    3    3    0    0  0.11199636759E+02  0.39938350415E+02 -0.27625803382E+02  0.49836620170E+02  0.00000000000E+00 0.  1.
         11    1    3    3    0    0  0.51154164467E+00 -0.35705865553E+02 -0.10933598352E+03  0.11501968441E+03  0.00000000000E+00 0. -1.
        -13    1    4    4    0    0  0.53819529629E+02 -0.16679275338E+02 -0.17468602091E+02  0.58990609883E+02  0.00000000000E+00 0. -1.
         13    1    4    4    0    0 -0.26782814449E+02  0.23620633319E+02  0.63165232930E+01  0.36265023572E+02  0.00000000000E+00 0.  1.
          1    1    1    2  501    0 -0.38747893584E+02 -0.11173842843E+02  0.66040022523E+01  0.40864004538E+02  0.00000000000E+00 0. -1.
<scales pt_clust_5="13000.00000" pt_clust_6="13000.00000" pt_clust_7="13000.00000" pt_clust_8="13000.00000" pt_clust_9="40.32684"></scales>
<clustering>
<clus scale="   40.327">  1  9  2 -1</clus>
<clus scale="   90.389">  7  8 -1 -1</clus>
<clus scale="   90.424">  1  7  2 -1</clus>
<clus scale="   90.907">  5  6 -1 -1</clus>
<clus scale="   40.327">  1  5  2 -1</clus>
</clustering>
</event>
<event>
 9    1  0.1464797E-005  0.1657597E+03  0.7546771E-02  0.1184511E+00
         21   -1    0    0  501  502  0.00000000000E+00  0.00000000000E+00  0.79511690340E+03  0.79511690340E+03  0.00000000000E+00 0. -1.
          3   -1    0    0  502    0 -0.00000000000E+00 -0.00000000000E+00 -0.58025709469E+02  0.58025709469E+02  0.00000000000E+00 0. -1.
         23    2    1    2    0    0  0.11239816091E+03  0.35696729055E+02  0.13263780402E+03  0.19985589038E+03  0.91880285282E+02 0.  0.
         23    2    1    2    0    0 -0.13988117529E+03 -0.60187587882E+02  0.34652120537E+03  0.39274089146E+03  0.10478154950E+03 0.  0.
        -11    1    3    3    0    0  0.85084131396E+01  0.43733619715E+02  0.49121213714E+02  0.66316786896E+02  0.00000000000E+00 0.  1.
         11    1    3    3    0    0  0.10388974777E+03 -0.80368906597E+01  0.83516590301E+02  0.13353910348E+03  0.00000000000E+00 0. -1.
        -13    1    4    4    0    0 -0.14114248829E+02 -0.56231802743E+02  0.12938609282E+03  0.14178148213E+03  0.00000000000E+00 0.  1.
         13    1    4    4    0    0 -0.12576692646E+03 -0.39557851390E+01  0.21713511255E+03  0.25095940933E+03  0.00000000000E+00 0. -1.
          3    1    1    2  501    0  0.27483014385E+02  0.24490858827E+02  0.25793218455E+03  0.26054583104E+03  0.00000000000E+00 0. -1.
<scales pt_clust_5="13000.00000" pt_clust_6="13000.00000" pt_clust_7="13000.00000" pt_clust_8="13000.00000" pt_clust_9="36.81193"></scales>
<clustering>
<clus scale="   36.812">  1  9  2 -1</clus>
<clus scale="   91.880">  5  6 -1 -1</clus>
<clus scale="  104.782">  7  8 -1 -1</clus>
<clus scale="  157.921">  2  5  1 -1</clus>
<clus scale="   36.812">  1  5  2 -1</clus>
</clustering>
</event>
<event>
 9    1  0.1464797E-005  0.1198541E+03  0.7546771E-02  0.1246195E+00
         -2   -1    0    0    0  501 -0.00000000000E+00  0.00000000000E+00  0.19192076743E+03  0.19192076743E+03  0.00000000000E+00 0.  1.
         21   -1    0    0  501  502  0.00000000000E+00 -0.00000000000E+00 -0.15541755681E+03  0.15541755681E+03  0.00000000000E+00 0. -1.
         23    2    1    2    0    0  0.71733308616E+02 -0.38894360665E+02  0.80843240801E+02  0.14740570596E+03  0.92381674101E+02 0.  0.
         23    2    1    2    0    0 -0.16958373319E+02  0.85665494400E+02 -0.13478153781E+02  0.12157262911E+03  0.83498983004E+02 0.  0.
        -11    1    4    4    0    0  0.16286753268E+02  0.83684109835E+02 -0.20158556033E+02  0.87605113733E+02  0.00000000000E+00 0. -1.
         11    1    4    4    0    0 -0.33245126586E+02  0.19813845647E+01  0.66804022519E+01  0.33967515376E+02  0.00000000000E+00 0.  1.
        -13    1    3    3    0    0  0.26732662602E+02 -0.57883386002E+02  0.74649345018E+02  0.98171514894E+02  0.00000000000E+00 0.  1.
         13    1    3    3    0    0  0.45000646014E+02  0.18989025338E+02  0.61938957830E+01  0.49234191066E+02  0.00000000000E+00 0. -1.
         -2    1    1    2    0  502 -0.54774935298E+02 -0.46771133735E+02 -0.30861876394E+02  0.78359989167E+02  0.00000000000E+00 0.  1.
<scales pt_clust_5="13000.00000" pt_clust_6="13000.00000" pt_clust_7="13000.00000" pt_clust_8="13000.00000" pt_clust_9="72.02661"></scales>
<clustering>
<clus scale="   72.027">  2  9  1 -1</clus>
<clus scale="   83.499">  5  6 -1 -1</clus>
<clus scale="   92.382">  7  8 -1 -1</clus>
<clus scale="  113.149">  2  5  1 -1</clus>
<clus scale="   72.027">  2  5  1 -1</clus>
</clustering>
</event>
<event>
 9    1  0.1464797E-005  0.1413981E+03  0.7546771E-02  0.1211695E+00
         21   -1    0    0  501  502  0.00000000000E+00  0.00000000000E+00  0.18516263501E+03  0.18516263501E+03  0.00000000000E+00 0.  1.
         -1   -1    0    0    0  501 -0.00000000000E+00 -0.00000000000E+00 -0.24647644436E+03  0.24647644436E+03  0.00000000000E+00 0.  1.
         23    2    1    2    0    0  0.11417254627E+03  0.10009888961E+02 -0.15527513206E+03  0.21413022427E+03  0.92767548799E+02 0.  0.
         23    2    1    2    0    0 -0.83529414650E+02 -0.34630531553E+02  0.15441066128E+02  0.12969878592E+03  0.91689212660E+02 0.  0.
        -11    1    3    3    0    0  0.12589309168E+03 -0.77895231176E+01 -0.13227270326E+03  0.18277257790E+03  0.00000000000E+00 0.  1.
         11    1    3    3    0    0 -0.11720545414E+02  0.17799412079E+02 -0.23002428799E+02  0.31357646369E+02  0.00000000000E+00 0. -1.
        -13    1    4    4    0    0 -0.65317271637E+02  0.81116730433E+01  0.40127806210E+02  0.77086873363E+02  0.00000000000E+00 0.  1.
         13    1    4    4    0    0 -0.18212143013E+02 -0.42742204596E+02 -0.24686740082E+02  0.52611912555E+02  0.00000000000E+00 0. -1.
         -1    1    1    2    0  502 -0.30643131615E+02  0.24620642591E+02  0.78520256584E+02  0.87810069188E+02  0.00000000000E+00 0.  1.
<scales pt_clust_5="13000.00000" pt_clust_6="13000.00000" pt_clust_7="13000.00000" pt_clust_8="13000.00000" pt_clust_9="39.30875"></scales>
<clustering>
<clus scale="   39.309">  1  9  2 -1</clus>
<clus scale="   91.689">  7  8 -1 -1</clus>
<clus scale="   92.768">  5  6 -1 -1</clus>
<clus scale="  140.693">  1  7  2 -1</clus>
<clus scale="   39.309">  1  5  2 -1</clus>
</clustering>
</event>
<event>
 9    1  0.1464797E-005  0.1245910E+03  0.7546771E-02  0.1246620E+00
         -3   -1    0    0    0  501 -0.00000000000E+00  0.00000000000E+00  0.13135228928E+03  0.13135228928E+03  0.00000000000E+00 0.  1.
         21   -1    0    0  501  502  0.00000000000E+00 -0.00000000000E+00 -0.18889363005E+03  0.18889363005E+03  0.00000000000E+00 0. -1.
         23    2    1    2    0    0  0.45836491199E+02 -0.34620520589E+02  0.42060600604E+02  0.11530844199E+03  0.90704896781E+02 0.  0.
         23    2    1    2    0    0  0.86467258385E+01  0.70537209631E+01 -0.69507770803E+02  0.13686392534E+03  0.11737070763E+03 0.  0.
        -11    1    3    3    0    0  0.36730517732E+02  0.23702733102E+02  0.34717919793E+02  0.55823690707E+02  0.00000000000E+00 0.  1.
         11    1    3    3    0    0  0.91059734669E+01 -0.58323253691E+02  0.73426808118E+01  0.59484751285E+02  0.00000000000E+00 0. -1.
        -13    1    4    4    0    0 -0.17835169827E+02  0.57805839550E+02 -0.32152265548E+02  0.68508222489E+02  0.00000000000E+00 0.  1.
         13    1    4    4    0    0  0.26481895665E+02 -0.50752118586E+02 -0.37355505255E+02  0.68355702848E+02  0.00000000000E+00 0. -1.
         -3    1    1    2    0  502 -0.54483217038E+02  0.27566799626E+02 -0.30094170568E+02  0.68073552005E+02  0.00000000000E+00 0.  1.
<scales pt_clust_5="13000.00000" pt_clust_6="13000.00000" pt_clust_7="13000.00000" pt_clust_8="13000.00000" pt_clust_9="61.06021"></scales>
<clustering>
<clus scale="   61.060">  2  9  1 -1</clus>
<clus scale="   90.705">  5  6 -1 -1</clus>
<clus scale="   99.872">  1  5  2 -1</clus>
<clus scale="  117.371">  7  8 -1 -1</clus>
<clus scale="   61.060">  2  5  1 -1</clus>
</clustering>
</event>
<event>
 9    1  0.1464797E-005  0.9834540E+02  0.7546771E-02  0.1284263E+00
         21   -1    0    0  501  502  0.00000000000E+00  0.00000000000E+00  0.35686139620E+03  0.35686139620E+03  0.00000000000E+00 0. -1.
          2   -1    0    0  502    0 -0.00000000000E+00 -0.00000000000E+00 -0.85085266463E+02  0.85085266463E+02  0.00000000000E+00 0. -1.
         23    2    1    2    0    0 -0.50508340760E+02  0.29763104716E+01  0.67622587796E+01  0.10329342319E+03  0.89798954449E+02 0.  0.
         23    2    1    2    0    0  0.78350380726E+01  0.49221388914E+02  0.53195743672E+02  0.11636394682E+03  0.90700871140E+02 0.  0.
        -11    1    3    3    0    0 -0.36237175924E+02 -0.36303160245E+02 -0.18420247206E+02  0.54500989623E+02  0.00000000000E+00 0. -1.
         11    1    3    3    0    0 -0.14271164835E+02  0.39279470717E+02  0.25182505986E+02  0.48792433566E+02  0.00000000000E+00 0.  1.
        -11    1    4    4    0    0 -0.24490997247E+02  0.45207961360E+02 -0.28988340377E+01  0.51497300466E+02  0.00000000000E+00 0. -1.
         11    1    4    4    0    0  0.32326035320E+02  0.40134275535E+01  0.56094577710E+02  0.64866646350E+02  0.00000000000E+00 0.  1.
          2    1    1    2  501    0  0.42673302687E+02 -0.52197699385E+02  0.21181812728E+03  0.22228929266E+03  0.00000000000E+00 0. -1.
<scales pt_clust_5="13000.00000" pt_clust_6="13000.00000" pt_clust_7="13000.00000" pt_clust_8="13000.00000" pt_clust_9="67.42114"></scales>
<clustering>
<clus scale="   67.421">  1  9  2 -1</clus>
<clus scale="   89.799">  5  6 -1 -1</clus>
<clus scale="   90.701">  7  8 -1 -1</clus>
<clus scale="   97.514">  2  5  1 -1</clus>
<clus scale="   67.421">  1  5  2 -1</clus>
</clustering>
</event>
<event>
 9    1  0.1464797E-005  0.9319406E+02  0.7546771E-02  0.1295410E+00
         21   -1    0    0  501  502  0.00000000000E+00  0.00000000000E+00  0.12503241336E+03  0.12503241336E+03  0.00000000000E+00 0.  1.
          2   -1    0    0  502    0 -0.00000000000E+00 -0.00000000000E+00 -0.14737929114E+03  0.14737929114E+03  0.00000000000E+00 0. -1.
         23    2    1    2    0    0 -0.10575754642E+02 -0.50338788330E+01 -0.91157924645E+02  0.13037126916E+03  0.92464663927E+02 0.  0.
         23    2    1    2    0    0 -0.44587619146E+01  0.23460055824E+02  0.36805119293E+02  0.10216638254E+03  0.92266451855E+02 0.  0.
        -13    1    4    4    0    0 -0.13017465728E+02  0.55735361039E+02  0.38089345956E+02  0.68750877518E+02  0.00000000000E+00 0.  1.
         13    1    4    4    0    0  0.85587038130E+01 -0.32275305215E+02 -0.12842266627E+01  0.33415505021E+02  0.00000000000E+00 0. -1.
        -13    1    3    3    0    0 -0.16151226242E+02  0.39406076206E+02 -0.21888157699E+02  0.47883111830E+02  0.00000000000E+00 0.  1.
         13    1    3    3    0    0  0.55754715997E+01 -0.44439955039E+02 -0.69269766946E+02  0.82488157332E+02  0.00000000000E+00 0. -1.
          2    1    1    2  501    0  0.15034516557E+02 -0.18426176991E+02  0.32005927570E+02  0.39874052794E+02  0.00000000000E+00 0. -1.
<scales pt_clust_5="13000.00000" pt_clust_6="13000.00000" pt_clust_7="13000.00000" pt_clust_8="13000.00000" pt_clust_9="23.78152"></scales>
<clustering>
<clus scale="   23.782">  1  9  2 -1</clus>
<clus scale="   92.266">  5  6 -1 -1</clus>
<clus scale="   92.465">  7  8 -1 -1</clus>
<clus scale="   92.997">  1  5  2 -1</clus>
<clus scale="   23.782">  1  5  2 -1</clus>
</clustering>
</event>
<event>
 9    1  0.1464797E-005  0.1304089E+03  0.7546771E-02  0.1227347E+00
          2   -1    0    0  502    0 -0.00000000000E+00  0.00000000000E+00  0.34906868123E+03  0.34906868123E+03  0.00000000000E+00 0. -1.
         21   -1    0    0  501  502  0.00000000000E+00 -0.00000000000E+00 -0.81087040191E+02  0.81087040191E+02  0.00000000000E+00 0.  1.
         23    2    1    2    0    0  0.21838255023E+02 -0.83099015103E+02  0.16121230617E+03  0.20468146040E+03  0.92318670263E+02 0.  0.
         23    2    1    2    0    0 -0.48918863559E+02  0.98137540449E+02  0.33636492209E+02  0.14605178763E+03  0.90419461425E+02 0.  0.
        -11    1    3    3    0    0 -0.65578454774E+01 -0.93005761905E+02  0.13865382016E+03  0.16708668089E+03  0.00000000000E+00 0. -1.
         11    1    3    3    0    0  0.28396100501E+02  0.99067468021E+01  0.22558486006E+02  0.37594779514E+02  0.00000000000E+00 0.  1.
        -13    1    4    4    0    0 -0.15708893366E+02  0.10133956855E+03  0.59948655405E+01  0.10272495265E+03  0.00000000000E+00 0.  1.
         13    1    4    4    0    0 -0.33209970193E+02 -0.32020281010E+01  0.27641626669E+02  0.43326834977E+02  0.00000000000E+00 0. -1.
          2    1    1    2  501    0  0.27080608536E+02 -0.15038525346E+02  0.73132842663E+02  0.79422473389E+02  0.00000000000E+00 0. -1.
<scales pt_clust_5="13000.00000" pt_clust_6="13000.00000" pt_clust_7="13000.00000" pt_clust_8="13000.00000" pt_clust_9="30.97608"></scales>
<clustering>
<clus scale="   30.976">  2  9  1 -1</clus>
<clus scale="   90.419">  7  8 -1 -1</clus>
<clus scale="   92.319">  5  6 -1 -1</clus>
<clus scale="  129.071">  2  7  1 -1</clus>
<clus scale="   30.976">  2  5  1 -1</clus>
</clustering>
</event>
<event>
 9    1  0.1464797E-005  0.1042647E+03  0.7546771E-02  0.1272984E+00
         -3   -1    0    0    0  501 -0.00000000000E+00  0.00000000000E+00  0.29150289149E+03  0.29150289149E+03  0.00000000000E+00 0.  1.
         21   -1    0    0  501  502  0.00000000000E+00 -0.00000000000E+00 -0.68968761007E+02  0.68968761007E+02  0.00000000000E+00 0. -1.
         23    2    1    2    0    0  0.39153307728E+02 -0.15520566300E+02  0.18934400215E+03  0.21412109390E+03  0.90679778444E+02 0.  0.
         23    2    1    2    0    0 -0.42016022528E+02  0.42754207016E+02  0.39740170773E+02  0.11819439802E+03  0.93794275861E+02 0.  0.
        -11    1    4    4    0    0 -0.11732910703E+02  0.66413985739E+02  0.71761858339E+01  0.67823125395E+02  0.00000000000E+00 0. -1.
         11    1    4    4    0    0 -0.30283111826E+02 -0.23659778723E+02  0.32563984939E+02  0.50371272628E+02  0.00000000000E+00 0.  1.
        -13    1    3    3    0    0  0.56816099724E+02 -0.29029667097E+02  0.17814027080E+03  0.18922142278E+03  0.00000000000E+00 0.  1.
         13    1    3    3    0    0 -0.17662791997E+02  0.13509100797E+02  0.11203731346E+02  0.24899671113E+02  0.00000000000E+00 0. -1.
         -3    1    1    2    0  502  0.28627148008E+01 -0.27233640716E+02 -0.65500424332E+01  0.28156160579E+02  0.00000000000E+00 0.  1.
<scales pt_clust_5="13000.00000" pt_clust_6="13000.00000" pt_clust_7="13000.00000" pt_clust_8="13000.00000" pt_clust_9="27.38369"></scales>
<clustering>
<clus scale="   27.384">  2  9  1 -1</clus>
<clus scale="   90.680">  7  8 -1 -1</clus>
<clus scale="   93.794">  5  6 -1 -1</clus>
<clus scale="  101.472">  1  7  2 -1</clus>
<clus scale="   27.384">  2  5  1 -1</clus>
</clustering>
</event>
<event>
 9    1  0.1464797E-005  0.1047007E+03  0.7546771E-02  0.1271302E+00
         -4   -1    0    0    0  501 -0.00000000000E+00  0.00000000000E+00  0.31339256270E+03  0.31339256270E+03  0.00000000000E+00 0.  1.
         21   -1    0    0  501  502  0.00000000000E+00 -0.00000000000E+00 -0.34930076993E+03  0.34930076993E+03  0.00000000000E+00 0.  1.
         23    2    1    2    0    0 -0.46098663275E+02 -0.49555378250E+01  0.25584543844E+03  0.27646512213E+03  0.93949088743E+02 0.  0.
         23    2    1    2    0    0  0.37500787035E+02  0.48321277415E+02 -0.22353216901E+02  0.11322436096E+03  0.92621999161E+02 0.  0.
        -11    1    3    3    0    0 -0.69335896931E+02  0.57370185512E+00  0.23413671934E+03  0.24418804042E+03  0.00000000000E+00 0.  1.
         11    1    3    3    0    0  0.23237233656E+02 -0.55292396801E+01  0.21708719092E+02  0.32277081716E+02  0.00000000000E+00 0. -1.
        -13    1    4    4    0    0 -0.19278229343E+02  0.74173304682E+01  0.22155303245E+02  0.30290664894E+02  0.00000000000E+00 0.  1.
         13    1    4    4    0    0  0.56779016378E+02  0.40903946947E+02 -0.44508520146E+02  0.82933696061E+02  0.00000000000E+00 0. -1.
         -4    1    1    2    0  502  0.85978762401E+01 -0.43365739590E+02 -0.26940042877E+03  0.27300384955E+03  0.00000000000E+00 0.  1.
<scales pt_clust_5="13000.00000" pt_clust_6="13000.00000" pt_clust_7="13000.00000" pt_clust_8="13000.00000" pt_clust_9="44.20985"></scales>
<clustering>
<clus scale="   44.210">  2  9  1 -1</clus>
<clus scale="   92.622">  7  8 -1 -1</clus>
<clus scale="   93.949">  5  6 -1 -1</clus>
<clus scale="  103.512">  2  7  1 -1</clus>
<clus scale="   44.210">  2  5  1 -1</clus>
</clustering>
</event>
<event>
 9    1  0.1464797E-005  0.1210540E+03  0.7546771E-02  0.1248135E+00
         21   -1    0    0  501  502  0.00000000000E+00  0.00000000000E+00  0.25969878017E+03  0.25969878017E+03  0.00000000000E+00 0.  1.
         -3   -1    0    0    0  501 -0.00000000000E+00 -0.00000000000E+00 -0.12107320727E+03  0.12107320727E+03  0.00000000000E+00 0.  1.
         23    2    1    2    0    0  0.36627494590E+02  0.12637267258E+02 -0.32250264618E+02  0.12046772372E+03  0.10941260899E+03 0.  0.
         23    2    1    2    0    0 -0.97538293268E+02 -0.14886819202E+02  0.12592821807E+03  0.18457134899E+03  0.92050696480E+02 0.  0.
        -11    1    4    4    0    0 -0.16497321916E+02 -0.41447558474E+02  0.20855628141E+02  0.49244481508E+02  0.00000000000E+00 0. -1.
         11    1    4    4    0    0 -0.81040971352E+02  0.26560739272E+02  0.10507258993E+03  0.13532686748E+03  0.00000000000E+00 0.  1.
        -11    1    3    3    0    0  0.62555281298E+02 -0.25487908224E+02 -0.31057180714E+02  0.74346117301E+02  0.00000000000E+00 0.  1.
         11    1    3    3    0    0 -0.25927786708E+02  0.38125175482E+02 -0.11930839042E+01  0.46121606415E+02  0.00000000000E+00 0. -1.
         -3    1    1    2    0  502  0.60910798678E+02  0.22495519435E+01  0.44947619452E+02  0.75732914733E+02  0.00000000000E+00 0.  1.
<scales pt_clust_5="13000.00000" pt_clust_6="13000.00000" pt_clust_7="13000.00000" pt_clust_8="13000.00000" pt_clust_9="60.95232"></scales>
<clustering>
<clus scale="   60.952">  1  9  2 -1</clus>
<clus scale="   92.051">  5  6 -1 -1</clus>
<clus scale="  105.623">  1  5  2 -1</clus>
<clus scale="  109.413">  7  8 -1 -1</clus>
<clus scale="   60.952">  1  5  2 -1</clus>
</clustering>
</event>
<event>
 9    1  0.1464797E-005  0.1518394E+03  0.7546771E-02  0.1200044E+00
         21   -1    0    0  501  502  0.00000000000E+00  0.00000000000E+00  0.45565956184E+02  0.45565956184E+02  0.00000000000E+00 0. -1.
          1   -1    0    0  502    0 -0.00000000000E+00 -0.00000000000E+00 -0.72947872717E+03  0.72947872717E+03  0.00000000000E+00 0. -1.
         23    2    1    2    0    0  0.14529621555E+02  0.10943460713E+03 -0.45345743365E+03  0.47514449719E+03  0.89171777673E+02 0.  0.
         23    2    1    2    0    0 -0.30993056129E+02 -0.12479593598E+03 -0.22409378865E+03  0.27650180153E+03  0.98491750792E+02 0.  0.
        -11    1    4    4    0    0 -0.52305165023E+02 -0.85220315986E+02 -0.20415837035E+03  0.22733009639E+03  0.00000000000E+00 0. -1.
         11    1    4    4    0    0  0.21312108893E+02 -0.39575619990E+02 -0.19935418306E+02  0.49171705137E+02  0.00000000000E+00 0.  1.
        -11    1    3    3    0    0  0.37335625222E+02  0.14207494957E+02 -0.85352567809E+02  0.94238329014E+02  0.00000000000E+00 0.  1.
         11    1    3    3    0    0 -0.22806003666E+02  0.95227112172E+02 -0.36810486584E+03  0.38090616817E+03  0.00000000000E+00 0. -1.
          1    1    1    2  501    0  0.16463434574E+02  0.15361328846E+02 -0.63615486846E+01  0.23398384636E+02  0.00000000000E+00 0. -1.
<scales pt_clust_5="13000.00000" pt_clust_6="13000.00000" pt_clust_7="13000.00000" pt_clust_8="13000.00000" pt_clust_9="22.51700"></scales>
<clustering>
<clus scale="   22.517">  1  9  2 -1</clus>
<clus scale="   89.172">  7  8 -1 -1</clus>
<clus scale="   98.492">  5  6 -1 -1</clus>
<clus scale="  145.966">  2  7  1 -1</clus>
<clus scale="   22.517">  1  5  2 -1</clus>
</clustering>
</event>
<event>
 9    1  0.1464797E-005  0.1094863E+03  0.7546771E-02  0.1261647E+00
         21   -1    0    0  501  502  0.00000000000E+00  0.00000000000E+00  0.59154980791E+03  0.59154980791E+03  0.00000000000E+00 0.  1.
          1   -1    0    0  502    0 -0.00000000000E+00 -0.00000000000E+00 -0.30384054492E+02  0.30384054492E+02  0.00000000000E+00 0. -1.
         23    2    1    2    0    0 -0.27384261903E+02  0.47952147643E+02  0.20542364413E+03  0.23112237020E+03  0.90384568254E+02 0.  0.
         23    2    1    2    0    0 -0.17144314610E+01 -0.73157117685E+02  0.20848818003E+03  0.23860852195E+03  0.90065544972E+02 0.  0.
        -11    1    3    3    0    0 -0.12428163752E+02 -0.21214786983E+02  0.17118923861E+02  0.29959706193E+02  0.00000000000E+00 0.  1.
         11    1    3    3    0    0 -0.14956098150E+02  0.69166934626E+02  0.18830472027E+03  0.20116266401E+03  0.00000000000E+00 0. -1.
        -13    1    4    4    0    0 -0.19323862285E+02 -0.56273746562E+02  0.20560762339E+03  0.21404354931E+03  0.00000000000E+00 0.  1.
         13    1    4    4    0    0  0.17609430824E+02 -0.16883371123E+02  0.28805566474E+01  0.24564972644E+02  0.00000000000E+00 0. -1.
          1    1    1    2  501    0  0.29098693364E+02  0.25204970041E+02  0.14725392925E+03  0.15220297024E+03  0.00000000000E+00 0. -1.
<scales pt_clust_5="13000.00000" pt_clust_6="13000.00000" pt_clust_7="13000.00000" pt_clust_8="13000.00000" pt_clust_9="38.49707"></scales>
<clustering>
<clus scale="   38.497">  1  9  2 -1</clus>
<clus scale="   90.066">  7  8 -1 -1</clus>
<clus scale="   90.385">  5  6 -1 -1</clus>
<clus scale="  109.223">  1  7  2 -1</clus>
<clus scale="   38.497">  1  5  2 -1</clus>
</clustering>
</event>
<event>
 9    1  0.1464797E-005  0.1037620E+03  0.7546771E-02  0.1273537E+00
         21   -1    0    0  501  502  0.00000000000E+00  0.00000000000E+00  0.54757354493E+02  0.54757354493E+02  0.00000000000E+00 0.  1.
          1   -1    0    0  502    0 -0.00000000000E+00 -0.00000000000E+00 -0.44510812539E+03  0.44510812539E+03  0.00000000000E+00 0. -1.
         23    2    1    2    0    0  0.29127161565E+02  0.25640200946E+02 -0.10580816220E+03  0.14490004558E+03  0.91076037340E+02 0.  0.
         23    2    1    2    0    0  0.36790356121E+02 -0.78948225327E+02 -0.13939945710E+03  0.18687795987E+03  0.88909002143E+02 0.  0.
        -13    1    3    3    0    0  0.44544361973E+02  0.85547842436E+01 -0.11219515695E+03  0.12101709697E+03  0.00000000000E+00 0. -1.
         13    1    3    3    0    0 -0.15417200408E+02  0.17085416702E+02  0.63869947540E+01  0.23882948610E+02  0.00000000000E+00 0.  1.
        -13    1    4    4    0    0 -0.20352878974E+02 -0.60375434052E+02 -0.62085253382E+02  0.88960729578E+02  0.00000000000E+00 0. -1.
         13    1    4    4    0    0  0.57143235095E+02 -0.18572791274E+02 -0.77314203714E+02  0.97917230295E+02  0.00000000000E+00 0.  1.
          1    1    1    2  501    0 -0.65917517686E+02  0.53308024381E+02 -0.14514315160E+03  0.16808747443E+03  0.00000000000E+00 0. -1.
<scales pt_clust_5="13000.00000" pt_clust_6="13000.00000" pt_clust_7="13000.00000" pt_clust_8="13000.00000" pt_clust_9="84.77542"></scales>
<clustering>
<clus scale="   84.775">  1  9  2 -1</clus>
<clus scale="   88.909">  7  8 -1 -1</clus>
<clus scale="   91.076">  5  6 -1 -1</clus>
<clus scale="  101.865">  1  7  2 -1</clus>
<clus scale="   84.775">  1  5  2 -1</clus>
</clustering>
</event>
<event>
 9    1  0.1464797E-005  0.1109223E+03  0.7546771E-02  0.1259622E+00
         21   -1    0    0  501  502  0.00000000000E+00  0.00000000000E+00  0.40275821758E+02  0.40275821758E+02  0.00000000000E+00 0.  1.
          2   -1    0    0  502    0 -0.00000000000E+00 -0.00000000000E+00 -0.46742647463E+03  0.46742647463E+03  0.00000000000E+00 0. -1.
         23    2    1    2    0    0  0.65013575234E+02 -0.10317221316E+02 -0.30507919015E+03  0.32563401017E+03  0.92903101672E+02 0.  0.
         23    2    1    2    0    0 -0.51704325895E+02 -0.93178922557E+01 -0.11803967464E+03  0.15800734031E+03  0.90954902936E+02 0.  0.
        -11    1    3    3    0    0  0.13377376122E+02 -0.41258246707E+02 -0.65138406913E+02  0.78257326611E+02  0.00000000000E+00 0.  1.
         11    1    3    3    0    0  0.51636199112E+02  0.30941025391E+02 -0.23994078323E+03  0.24737668356E+03  0.00000000000E+00 0. -1.
        -13    1    4    4    0    0 -0.13282240468E+02 -0.43906729951E+02 -0.26766102659E+02  0.53109726966E+02  0.00000000000E+00 0.  1.
         13    1    4    4    0    0 -0.38422085427E+02  0.34588837695E+02 -0.91273571984E+02  0.10489761334E+03  0.00000000000E+00 0. -1.
          2    1    1    2  501    0 -0.13309249339E+02  0.19635113572E+02 -0.40317880825E+01  0.24060945910E+02  0.00000000000E+00 0. -1.
<scales pt_clust_5="13000.00000" pt_clust_6="13000.00000" pt_clust_7="13000.00000" pt_clust_8="13000.00000" pt_clust_9="23.72075"></scales>
<clustering>
<clus scale="   23.721">  1  9  2 -1</clus>
<clus scale="   90.955">  7  8 -1 -1</clus>
<clus scale="   92.903">  5  6 -1 -1</clus>
<clus scale="  109.296">  1  7  2 -1</clus>
<clus scale="   23.721">  1  5  2 -1</clus>
</clustering>
</event>
<event>
 9    1  0.1464797E-005  0.9548721E+02  0.7546771E-02  0.1290302E+00
         21   -1    0    0  501  502  0.00000000000E+00  0.00000000000E+00  0.30682103078E+03  0.30682103078E+03  0.00000000000E+00 0.  1.
          2   -1    0    0  502    0 -0.00000000000E+00 -0.00000000000E+00 -0.45173364873E+02  0.45173364873E+02  0.00000000000E+00 0. -1.
         23    2    1    2    0    0 -0.21180625399E+01 -0.18194952577E+02  0.74430168541E+02  0.11909400589E+03  0.91148174760E+02 0.  0.
         23    2    1    2    0    0  0.35465437236E+02  0.30484586261E+02  0.14427970379E+03  0.17716228240E+03  0.91557272465E+02 0.  0.
        -13    1    3    3    0    0  0.12367804850E+02  0.16094064417E+02 -0.12976821032E+02  0.24091064534E+02  0.00000000000E+00 0.  1.
         13    1    3    3    0    0 -0.14485867390E+02 -0.34289016994E+02  0.87406989573E+02  0.95002941358E+02  0.00000000000E+00 0. -1.
        -13    1    4    4    0    0  0.52286803604E+02 -0.47265406159E+01  0.12056233006E+03  0.13149724502E+03  0.00000000000E+00 0.  1.
         13    1    4    4    0    0 -0.16821366368E+02  0.35211126877E+02  0.23717373728E+02  0.45665037381E+02  0.00000000000E+00 0. -1.
          2    1    1    2  501    0 -0.33347374696E+02 -0.12289633684E+02  0.42937793578E+02  0.55738107365E+02  0.00000000000E+00 0. -1.
<scales pt_clust_5="13000.00000" pt_clust_6="13000.00000" pt_clust_7="13000.00000" pt_clust_8="13000.00000" pt_clust_9="35.53987"></scales>
<clustering>
<clus scale="   35.540">  1  9  2 -1</clus>
<clus scale="   91.148">  5  6 -1 -1</clus>
<clus scale="   91.557">  7  8 -1 -1</clus>
<clus scale="   95.095">  2  5  1 -1</clus>
<clus scale="   35.540">  1  5  2 -1</clus>
</clustering>
</event>
<event>
 9    1  0.1464797E-005  0.1403700E+03  0.7546771E-02  0.1214481E+00
         -3   -1    0    0    0  501 -0.00000000000E+00  0.00000000000E+00  0.59508851558E+03  0.59508851558E+03  0.00000000000E+00 0.  1.
         21   -1    0    0  501  502  0.00000000000E+00 -0.00000000000E+00 -0.17137341593E+03  0.17137341593E+03  0.00000000000E+00 0. -1.
         23    2    1    2    0    0  0.20397138524E+02  0.88639413673E+02  0.44214545246E+03  0.46076384618E+03  0.92399847960E+02 0.  0.
         23    2    1    2    0    0 -0.62665898263E+02 -0.15478399224E+03  0.51016489224E+02  0.20089056082E+03  0.99344029490E+02 0.  0.
        -11    1    4    4    0    0 -0.18007320003E+02 -0.98631803474E+02 -0.17390865782E+02  0.10175921797E+03  0.00000000000E+00 0. -1.
         11    1    4    4    0    0 -0.44658578260E+02 -0.56152188762E+02  0.68407355006E+02  0.99131342843E+02  0.00000000000E+00 0.  1.
        -13    1    3    3    0    0 -0.77360484095E+01  0.99056017647E+02  0.35226790160E+03  0.36601176972E+03  0.00000000000E+00 0.  1.
         13    1    3    3    0    0  0.28133186933E+02 -0.10416603974E+02  0.89877550862E+02  0.94752076464E+02  0.00000000000E+00 0. -1.
         -3    1    1    2    0  502  0.42268759739E+02  0.66144578564E+02 -0.69446842038E+02  0.10480752450E+03  0.00000000000E+00 0.  1.
<scales pt_clust_5="13000.00000" pt_clust_6="13000.00000" pt_clust_7="13000.00000" pt_clust_8="13000.00000" pt_clust_9="78.49684"></scales>
<clustering>
<clus scale="   78.497">  2  9  1 -1</clus>
<clus scale="   92.400">  7  8 -1 -1</clus>
<clus scale="   99.344">  5  6 -1 -1</clus>
<clus scale="  135.544">  1  7  2 -1</clus>
<clus scale="   78.497">  2  5  1 -1</clus>
</clustering>
</event>
<event>
 9    1  0.1464797E-005  0.9544320E+02  0.7546771E-02  0.1291794E+00
         21   -1    0    0  501  502  0.00000000000E+00  0.00000000000E+00  0.97725296083E+02  0.97725296083E+02  0.00000000000E+00 0. -1.
          2   -1    0    0  502    0 -0.00000000000E+00 -0.00000000000E+00 -0.29890138284E+03  0.29890138284E+03  0.00000000000E+00 0. -1.
         23    2    1    2    0    0  0.86573888635E+01  0.21116913070E+02 -0.99565308578E+02  0.13517940166E+03  0.88540078843E+02 0.  0.
         23    2    1    2    0    0 -0.42112403758E+02  0.57216093893E+02 -0.12764969856E+03  0.17237807172E+03  0.91502011547E+02 0.  0.
        -11    1    3    3    0    0  0.21780802272E+01 -0.30040321314E+02 -0.98291635095E+01  0.31682446140E+02  0.00000000000E+00 0.  1.
         11    1    3    3    0    0  0.64793086362E+01  0.51157234384E+02 -0.89736145069E+02  0.10349695552E+03  0.00000000000E+00 0. -1.
        -13    1    4    4    0    0  0.28530839524E+02  0.96084261214E+01 -0.26237565213E+02  0.39934201942E+02  0.00000000000E+00 0.  1.
         13    1    4    4    0    0 -0.70643243282E+02  0.47607667771E+02 -0.10141213334E+03  0.13244386978E+03  0.00000000000E+00 0. -1.
          2    1    1    2  501    0  0.33455014894E+02 -0.78333006962E+02  0.26038920380E+02  0.89069205542E+02  0.00000000000E+00 0. -1.
<scales pt_clust_5="13000.00000" pt_clust_6="13000.00000" pt_clust_7="13000.00000" pt_clust_8="13000.00000" pt_clust_9="85.17804"></scales>
<clustering>
<clus scale="   85.178">  1  9  2 -1</clus>
<clus scale="   88.540">  5  6 -1 -1</clus>
<clus scale="   91.502">  7  8 -1 -1</clus>
<clus scale="   92.607">  2  5  1 -1</clus>
<clus scale="   85.178">  1  5  2 -1</clus>
</clustering>
</event>
<event>
 9    1  0.1464797E-005  0.1003492E+03  0.7546771E-02  0.1280540E+00
         21   -1    0    0  501  502  0.00000000000E+00  0.00000000000E+00  0.56740742542E+02  0.56740742542E+02  0.00000000000E+00 0.  1.
          3   -1    0    0  502    0 -0.00000000000E+00 -0.00000000000E+00 -0.34004269150E+03  0.34004269150E+03  0.00000000000E+00 0. -1.
         23    2    1    2    0    0 -0.24940333922E+02 -0.22068481861E+02 -0.16632769513E+03  0.19362814446E+03  0.93369791744E+02 0.  0.
         23    2    1    2    0    0  0.46512921125E+02  0.12351641707E+01 -0.13394954057E+03  0.16869423903E+03  0.91379917933E+02 0.  0.
        -13    1    3    3    0    0  0.32906460415E+02  0.79877655753E+01 -0.60587561863E+02  0.69408156498E+02  0.00000000000E+00 0.  1.
         13    1    3    3    0    0 -0.57846794337E+02 -0.30056247436E+02 -0.10574013327E+03  0.12421998796E+03  0.00000000000E+00 0. -1.
        -13    1    4    4    0    0  0.28256284841E+02 -0.33738125178E+02 -0.11835566407E+03  0.12627249083E+03  0.00000000000E+00 0. -1.
         13    1    4    4    0    0  0.18256636284E+02  0.34973289349E+02 -0.15593876507E+02  0.42421748205E+02  0.00000000000E+00 0.  1.
          3    1    1    2  501    0 -0.21572587203E+02  0.20833317690E+02  0.16975286751E+02  0.34461050548E+02  0.00000000000E+00 0. -1.
<scales pt_clust_5="13000.00000" pt_clust_6="13000.00000" pt_clust_7="13000.00000" pt_clust_8="13000.00000" pt_clust_9="29.99006"></scales>
<clustering>
<clus scale="   29.990">  1  9  2 -1</clus>
<clus scale="   91.380">  7  8 -1 -1</clus>
<clus scale="   93.370">  5  6 -1 -1</clus>
<clus scale="   98.500">  1  7  2 -1</clus>
<clus scale="   29.990">  1  5  2 -1</clus>
</clustering>
</event>
<event>
 9    1  0.1464797E-005  0.9082239E+02  0.7546771E-02  0.1301889E+00
         21   -1    0    0  501  502  0.00000000000E+00  0.00000000000E+00  0.22661270085E+03  0.22661270085E+03  0.00000000000E+00 0. -1.
         -1   -1    0    0    0  501 -0.00000000000E+00 -0.00000000000E+00 -0.13298001467E+03  0.13298001467E+03  0.00000000000E+00 0.  1.
         23    2    1    2    0    0 -0.15293048263E+02  0.15433262171E+00 -0.99109588438E+02  0.13307481948E+03  0.87477402308E+02 0.  0.
         23    2    1    2    0    0  0.33430401395E+02  0.93594160117E+01  0.13690358228E+03  0.16704155997E+03  0.89191375758E+02 0.  0.
        -11    1    4    4    0    0 -0.29494478227E+02  0.41928311420E+01  0.64033605603E+02  0.70624406018E+02  0.00000000000E+00 0.  1.
         11    1    4    4    0    0  0.62924879622E+02  0.51665848697E+01  0.72869976679E+02  0.96417153951E+02  0.00000000000E+00 0. -1.
        -13    1    3    3    0    0  0.24763848000E+02 -0.22902379829E+02 -0.71956575625E+02  0.79470220493E+02  0.00000000000E+00 0.  1.
         13    1    3    3    0    0 -0.40056896263E+02  0.23056712451E+02 -0.27153012814E+02  0.53604598983E+02  0.00000000000E+00 0. -1.
         -1    1    1    2    0  502 -0.18137353132E+02 -0.95137486334E+01  0.55838692334E+02  0.59476336078E+02  0.00000000000E+00 0.  1.
<scales pt_clust_5="13000.00000" pt_clust_6="13000.00000" pt_clust_7="13000.00000" pt_clust_8="13000.00000" pt_clust_9="20.48109"></scales>
<clustering>
<clus scale="   20.481">  1  9  2 -1</clus>
<clus scale="   87.477">  7  8 -1 -1</clus>
<clus scale="   89.140">  2  7  1 -1</clus>
<clus scale="   89.191">  5  6 -1 -1</clus>
<clus scale="   20.481">  1  5  2 -1</clus>
</clustering>
</event>
<event>
 9    1  0.1464797E-005  0.9769758E+02  0.7546771E-02  0.1287524E+00
         21   -1    0    0  501  502  0.00000000000E+00  0.00000000000E+00  0.16838280283E+03  0.16838280283E+03  0.00000000000E+00 0.  1.
          1   -1    0    0  502    0 -0.00000000000E+00 -0.00000000000E+00 -0.31355291443E+03  0.31355291443E+03  0.00000000000E+00 0. -1.
         23    2    1    2    0    0 -0.35267447765E+02 -0.24848333393E+02 -0.15495966893E+03  0.18579955926E+03  0.92993250739E+02 0.  0.
         23    2    1    2    0    0  0.20696868427E+02 -0.50348040643E+02 -0.11163591245E+03  0.15257104678E+03  0.88611860420E+02 0.  0.
        -11    1    3    3    0    0 -0.41825856430E+02  0.10947855995E+02 -0.23118152091E+02  0.49027612354E+02  0.00000000000E+00 0.  1.
         11    1    3    3    0    0  0.65584086660E+01 -0.35796189388E+02 -0.13184151683E+03  0.13677194690E+03  0.00000000000E+00 0. -1.
        -11    1    4    4    0    0 -0.34536051799E+02 -0.26917433392E+02 -0.51953052627E+02  0.67944144498E+02  0.00000000000E+00 0.  1.
         11    1    4    4    0    0  0.55232920226E+02 -0.23430607251E+02 -0.59682859825E+02  0.84626902282E+02  0.00000000000E+00 0. -1.
          1    1    1    2  501    0  0.14570579337E+02  0.75196374036E+02  0.12142546977E+03  0.14356511122E+03  0.00000000000E+00 0. -1.
<scales pt_clust_5="13000.00000" pt_clust_6="13000.00000" pt_clust_7="13000.00000" pt_clust_8="13000.00000" pt_clust_9="76.59502"></scales>
<clustering>
<clus scale="   76.595">  1  9  2 -1</clus>
<clus scale="   88.612">  7  8 -1 -1</clus>
<clus scale="   92.993">  5  6 -1 -1</clus>
<clus scale="   93.537">  1  7  2 -1</clus>
<clus scale="   76.595">  1  5  2 -1</clus>
</clustering>
</event>
<event>
 9    1  0.1464797E-005  0.9630459E+02  0.7546771E-02  0.1288587E+00
          4   -1    0    0  502    0 -0.00000000000E+00  0.00000000000E+00  0.35128667533E+02  0.35128667533E+02  0.00000000000E+00 0. -1.
         21   -1    0    0  501  502  0.00000000000E+00 -0.00000000000E+00 -0.51865886566E+03  0.51865886566E+03  0.00000000000E+00 0.  1.
         23    2    1    2    0    0 -0.28749030048E+02 -0.31625337646E+02 -0.12295908479E+03  0.15944401670E+03  0.92069480391E+02 0.  0.
         23    2    1    2    0    0  0.22273911030E+02 -0.87068942661E+01 -0.13323555245E+03  0.16336716848E+03  0.91461369876E+02 0.  0.
        -11    1    4    4    0    0  0.16491668668E+02  0.41002502662E+02 -0.56051458036E+02  0.71378892594E+02  0.00000000000E+00 0.  1.
         11    1    4    4    0    0  0.57822423615E+01 -0.49709396928E+02 -0.77184094414E+02  0.91988275884E+02  0.00000000000E+00 0. -1.
        -13    1    3    3    0    0 -0.26678857314E+01 -0.24846845009E+02  0.76103355997E+01  0.26122797115E+02  0.00000000000E+00 0. -1.
         13    1    3    3    0    0 -0.26081144317E+02 -0.67784926366E+01 -0.13056942038E+03  0.13332121958E+03  0.00000000000E+00 0.  1.
          4    1    1    2  501    0  0.64751190184E+01  0.40332231912E+02 -0.22733556089E+03  0.23097634802E+03  0.00000000000E+00 0. -1.
<scales pt_clust_5="13000.00000" pt_clust_6="13000.00000" pt_clust_7="13000.00000" pt_clust_8="13000.00000" pt_clust_9="40.84870"></scales>
<clustering>
<clus scale="   40.849">  2  9  1 -1</clus>
<clus scale="   91.461">  5  6 -1 -1</clus>
<clus scale="   92.069">  7  8 -1 -1</clus>
<clus scale="   95.723">  2  5  1 -1</clus>
<clus scale="   40.849">  2  5  1 -1</clus>
</clustering>
</event>
<event>
 9    1  0.1464797E-005  0.1093446E+03  0.7546771E-02  0.1264936E+00
          3   -1    0    0  502    0 -0.00000000000E+00  0.00000000000E+00  0.55339149840E+02  0.55339149840E+02  0.00000000000E+00 0. -1.
         21   -1    0    0  501  502  0.00000000000E+00 -0.00000000000E+00 -0.43823651572E+03  0.43823651572E+03  0.00000000000E+00 0.  1.
         23    2    1    2    0    0  0.24794277901E+02 -0.55686686552E+02 -0.61094699579E+02  0.12994563340E+03  0.97147012552E+02 0.  0.
         23    2    1    2    0    0  0.14816902807E+02  0.40957749563E+02 -0.11359340219E+03  0.15117513133E+03  0.89740634359E+02 0.  0.
        -11    1    3    3    0    0  0.59284775095E+02 -0.26644619055E+02 -0.53580201519E+02  0.84234543256E+02  0.00000000000E+00 0.  1.
         11    1    3    3    0    0 -0.34490497194E+02 -0.29042067497E+02 -0.75144980593E+01  0.45711090146E+02  0.00000000000E+00 0. -1.
        -11    1    4    4    0    0 -0.12426342173E+02  0.31685351737E+02 -0.11731978888E+03  0.12215690058E+03  0.00000000000E+00 0. -1.
         11    1    4    4    0    0  0.27243244980E+02  0.92723978256E+01  0.37263866970E+01  0.29018230757E+02  0.00000000000E+00 0.  1.
          3    1    1    2  501    0 -0.39611180708E+02  0.14728936989E+02 -0.20820926411E+03  0.21245490083E+03  0.00000000000E+00 0. -1.
<scales pt_clust_5="13000.00000" pt_clust_6="13000.00000" pt_clust_7="13000.00000" pt_clust_8="13000.00000" pt_clust_9="42.26094"></scales>
<clustering>
<clus scale="   42.261">  2  9  1 -1</clus>
<clus scale="   89.741">  7  8 -1 -1</clus>
<clus scale="   97.147">  5  6 -1 -1</clus>
<clus scale="  102.821">  2  7  1 -1</clus>
<clus scale="   42.261">  2  5  1 -1</clus>
</clustering>
</event>
<event>
 9    1  0.1464797E-005  0.1093702E+03  0.7546771E-02  0.1261844E+00
         21   -1    0    0  501  502  0.00000000000E+00  0.00000000000E+00  0.57826394886E+02  0.57826394886E+02  0.00000000000E+00 0.  1.
          2   -1    0    0  502    0 -0.00000000000E+00 -0.00000000000E+00 -0.67455465355E+03  0.67455465355E+03  0.00000000000E+00 0. -1.
         23    2    1    2    0    0 -0.33278130181E+02 -0.40707998632E+02 -0.41045560314E+03  0.42379562374E+03  0.91456839253E+02 0.  0.
         23    2    1    2    0    0  0.51371460161E+02  0.53334233408E+02 -0.24051506857E+03  0.26785051036E+03  0.91721482312E+02 0.  0.
        -11    1    4    4    0    0  0.57442448510E+02 -0.60630550365E+01 -0.10705790416E+03  0.12164616874E+03  0.00000000000E+00 0.  1.
         11    1    4    4    0    0 -0.60709883490E+01  0.59397288445E+02 -0.13345716441E+03  0.14620434162E+03  0.00000000000E+00 0. -1.
        -13    1    3    3    0    0  0.25085281348E+02 -0.38908044231E+02 -0.20789093337E+03  0.21298297449E+03  0.00000000000E+00 0.  1.
         13    1    3    3    0    0 -0.58363411529E+02 -0.17999544006E+01 -0.20256466977E+03  0.21081264924E+03  0.00000000000E+00 0. -1.
          2    1    1    2  501    0 -0.18093329980E+02 -0.12626234776E+02  0.34242413052E+02  0.40734914337E+02  0.00000000000E+00 0. -1.
<scales pt_clust_5="13000.00000" pt_clust_6="13000.00000" pt_clust_7="13000.00000" pt_clust_8="13000.00000" pt_clust_9="22.06333"></scales>
<clustering>
<clus scale="   22.063">  1  9  2 -1</clus>
<clus scale="   91.457">  7  8 -1 -1</clus>
<clus scale="   91.721">  5  6 -1 -1</clus>
<clus scale="  109.148">  2  7  1 -1</clus>
<clus scale="   22.063">  1  5  2 -1</clus>
</clustering>
</event>
<event>
 9    1  0.1464797E-005  0.1174808E+03  0.7546771E-02  0.1247799E+00
         21   -1    0    0  501  502  0.00000000000E+00  0.00000000000E+00  0.13077910400E+03  0.13077910400E+03  0.00000000000E+00 0. -1.
         -2   -1    0    0    0  501 -0.00000000000E+00 -0.00000000000E+00 -0.56351770513E+03  0.56351770513E+03  0.00000000000E+00 0.  1.
         23    2    1    2    0    0  0.65167438100E+02 -0.20311609031E+02 -0.46228330318E+03  0.47630855072E+03  0.92220532614E+02 0.  0.
         23    2    1    2    0    0 -0.11160094396E+03  0.54770118393E+02  0.19864529035E+01  0.15393424659E+03  0.90759405664E+02 0.  0.
        -11    1    4    4    0    0 -0.32174957475E+02 -0.25423197868E+02  0.21812237993E+01  0.41064882997E+02  0.00000000000E+00 0.  1.
         11    1    4    4    0    0 -0.79425986488E+02  0.80193316260E+02 -0.19477089578E+00  0.11286936359E+03  0.00000000000E+00 0. -1.
        -13    1    3    3    0    0  0.75333939911E+02 -0.43530096206E+02 -0.31207296626E+03  0.32397470279E+03  0.00000000000E+00 0.  1.
         13    1    3    3    0    0 -0.10166501811E+02  0.23218487175E+02 -0.15021033692E+03  0.15233384793E+03  0.00000000000E+00 0. -1.
         -2    1    1    2    0  502  0.46433505863E+02 -0.34458509362E+02  0.27558249154E+02  0.64054011823E+02  0.00000000000E+00 0.  1.
<scales pt_clust_5="13000.00000" pt_clust_6="13000.00000" pt_clust_7="13000.00000" pt_clust_8="13000.00000" pt_clust_9="57.82265"></scales>
<clustering>
<clus scale="   57.823">  1  9  2 -1</clus>
<clus scale="   90.759">  5  6 -1 -1</clus>
<clus scale="   92.221">  7  8 -1 -1</clus>
<clus scale="  116.337">  1  5  2 -1</clus>
<clus scale="   57.823">  1  5  2 -1</clus>
</clustering>
</event>
<event>
 9    1  0.1464797E-005  0.1751105E+03  0.7546771E-02  0.1173845E+00
         21   -1    0    0  501  502  0.00000000000E+00  0.00000000000E+00  0.39066788818E+03  0.39066788818E+03  0.00000000000E+00 0.  1.
          1   -1    0    0  502    0 -0.00000000000E+00 -0.00000000000E+00 -0.49955897928E+03  0.49955897928E+03  0.00000000000E+00 0. -1.
         23    2    1    2    0    0 -0.33674486882E+02 -0.14045872897E+03 -0.41094051569E+03  0.44562995920E+03  0.94081493908E+02 0.  0.
         23    2    1    2    0    0  0.52618621059E+02  0.20468542532E+03  0.30124509723E+03  0.37762978434E+03  0.84798601371E+02 0.  0.
        -11    1    4    4    0    0  0.75906076600E+02  0.14990274371E+03  0.21599855479E+03  0.27365661093E+03  0.00000000000E+00 0.  1.
         11    1    4    4    0    0 -0.23287455541E+02  0.54782681609E+02  0.85246542448E+02  0.10397317341E+03  0.00000000000E+00 0. -1.
        -13    1    3    3    0    0 -0.43365479454E+02 -0.20741702113E+02 -0.16609605130E+03  0.17291235141E+03  0.00000000000E+00 0.  1.
         13    1    3    3    0    0  0.96909925711E+01 -0.11971702686E+03 -0.24484446439E+03  0.27271760779E+03  0.00000000000E+00 0. -1.
          1    1    1    2  501    0 -0.18944134177E+02 -0.64226696348E+02  0.80432735118E+00  0.66967123919E+02  0.00000000000E+00 0. -1.
<scales pt_clust_5="13000.00000" pt_clust_6="13000.00000" pt_clust_7="13000.00000" pt_clust_8="13000.00000" pt_clust_9="66.96229"></scales>
<clustering>
<clus scale="   66.962">  1  9  2 -1</clus>
<clus scale="   84.799">  5  6 -1 -1</clus>
<clus scale="   94.081">  7  8 -1 -1</clus>
<clus scale="  170.303">  1  5  2 -1</clus>
<clus scale="   66.962">  1  5  2 -1</clus>
</clustering>
</event>
<event>
 9    1  0.1464797E-005  0.1537302E+03  0.7546771E-02  0.1196337E+00
         -2   -1    0    0    0  501 -0.00000000000E+00  0.00000000000E+00  0.16366969616E+03  0.16366969616E+03  0.00000000000E+00 0.  1.
         21   -1    0    0  501  502  0.00000000000E+00 -0.00000000000E+00 -0.24532226790E+03  0.24532226790E+03  0.00000000000E+00 0.  1.
         23    2    1    2    0    0 -0.39153069667E+02  0.10449224977E+03  0.13702906579E+02  0.14529569814E+03  0.92040627571E+02 0.  0.
         23    2    1    2    0    0  0.10029615632E+03 -0.10806371977E+03 -0.32119536494E+02  0.17566208629E+03  0.89935629377E+02 0.  0.
        -11    1    3    3    0    0  0.29039230059E+02  0.41561618777E+02  0.13635792326E+02  0.52503141526E+02  0.00000000000E+00 0.  1.
         11    1    3    3    0    0 -0.68192299726E+02  0.62930630988E+02  0.67114253302E-01  0.92792556613E+02  0.00000000000E+00 0. -1.
        -13    1    4    4    0    0  0.34607765896E+02 -0.78262643109E+02 -0.52890304240E+02  0.10059882231E+03  0.00000000000E+00 0. -1.
         13    1    4    4    0    0  0.65688390428E+02 -0.29801076660E+02  0.20770767746E+02  0.75063263984E+02  0.00000000000E+00 0.  1.
         -2    1    1    2    0  502 -0.61143086657E+02  0.35714700026E+01 -0.63235941824E+02  0.88034179626E+02  0.00000000000E+00 0.  1.
<scales pt_clust_5="13000.00000" pt_clust_6="13000.00000" pt_clust_7="13000.00000" pt_clust_8="13000.00000" pt_clust_9="61.24731"></scales>
<clustering>
<clus scale="   61.247">  2  9  1 -1</clus>
<clus scale="   89.936">  7  8 -1 -1</clus>
<clus scale="   92.041">  5  6 -1 -1</clus>
<clus scale="  152.479">  2  7  1 -1</clus>
<clus scale="   61.247">  2  5  1 -1</clus>
</clustering>
</event>
<event>
 9    1  0.1464797E-005  0.1184576E+03  0.7546771E-02  0.1247184E+00
         -1   -1    0    0    0  501 -0.00000000000E+00  0.00000000000E+00  0.30848996832E+03  0.30848996832E+03  0.00000000000E+00 0.  1.
         21   -1    0    0  501  502  0.00000000000E+00 -0.00000000000E+00 -0.24197513380E+03  0.24197513380E+03  0.00000000000E+00 0.  1.
         23    2    1    2    0    0 -0.74830454321E+02 -0.24535864532E+02  0.21352343919E+03  0.24484205639E+03  0.90298216769E+02 0.  0.
         23    2    1    2    0    0 -0.11904659032E+02  0.98517073189E+02 -0.26562152883E+02  0.13978111235E+03  0.94793864710E+02 0.  0.
        -11    1    4    4    0    0  0.13770729418E+02  0.10746331154E+03 -0.12186391782E+02  0.10902524689E+03  0.00000000000E+00 0.  1.
         11    1    4    4    0    0 -0.25675388450E+02 -0.89462383474E+01 -0.14375761101E+02  0.30755865455E+02  0.00000000000E+00 0. -1.
        -11    1    3    3    0    0  0.13702860982E+01  0.25237894144E+02  0.25269812808E+02  0.35740627082E+02  0.00000000000E+00 0.  1.
         11    1    3    3    0    0 -0.76200740420E+02 -0.49773758676E+02  0.18825362638E+03  0.20910142931E+03  0.00000000000E+00 0. -1.
         -1    1    1    2    0  502  0.86735113353E+02 -0.73981208657E+02 -0.12044645178E+03  0.16584193339E+03  0.00000000000E+00 0.  1.
<scales pt_clust_5="13000.00000" pt_clust_6="13000.00000" pt_clust_7="13000.00000" pt_clust_8="13000.00000" pt_clust_9="114.00087"></scales>
<clustering>
<clus scale="   90.298">  7  8 -1 -1</clus>
<clus scale="   94.794">  5  6 -1 -1</clus>
<clus scale="  114.001">  2  9  1 -1</clus>
<clus scale="  114.892">  1  7  2 -1</clus>
<clus scale="  114.001">  2  5  1 -1</clus>
</clustering>
</event>
<event>
 9    1  0.1464797E-005  0.1796426E+03  0.7546771E-02  0.1171895E+00
          4   -1    0    0  502    0 -0.00000000000E+00  0.00000000000E+00  0.20894131079E+03  0.20894131079E+03  0.00000000000E+00 0. -1.
         21   -1    0    0  501  502  0.00000000000E+00 -0.00000000000E+00 -0.34649793779E+03  0.34649793779E+03  0.00000000000E+00 0. -1.
         23    2    1    2    0    0 -0.17241316670E+03  0.23538791964E+02  0.70864099224E+02  0.21076535840E+03  0.95498382012E+02 0.  0.
         23    2    1    2    0    0  0.51870837120E+02 -0.62482082663E+02 -0.82891117440E+02  0.16633512325E+03  0.11917147930E+03 0.  0.
        -13    1    3    3    0    0 -0.89137967256E+02  0.37548696288E+02  0.80409352088E+02  0.12578213586E+03  0.00000000000E+00 0.  1.
         13    1    3    3    0    0 -0.83275199439E+02 -0.14009904324E+02 -0.95452528640E+01  0.84983222539E+02  0.00000000000E+00 0. -1.
        -13    1    4    4    0    0  0.32921345854E+02 -0.73328003038E+02 -0.10698789753E+03  0.13381786600E+03  0.00000000000E+00 0. -1.
         13    1    4    4    0    0  0.18949491266E+02  0.10845920375E+02  0.24096780093E+02  0.32517257247E+02  0.00000000000E+00 0.  1.
          4    1    1    2  501    0  0.12054232958E+03  0.38943290699E+02 -0.12552960878E+03  0.17833876693E+03  0.00000000000E+00 0. -1.
<scales pt_clust_5="13000.00000" pt_clust_6="13000.00000" pt_clust_7="13000.00000" pt_clust_8="13000.00000" pt_clust_9="126.67688"></scales>
<clustering>
<clus scale="   95.498">  5  6 -1 -1</clus>
<clus scale="  119.171">  7  8 -1 -1</clus>
<clus scale="  126.677">  2  9  1 -1</clus>
<clus scale="  164.893">  1  5  2 -1</clus>
<clus scale="  126.677">  2  5  1 -1</clus>
</clustering>
</event>
<event>
 9    1  0.1464797E-005  0.1180887E+03  0.7546771E-02  0.1246613E+00
         -1   -1    0    0    0  501 -0.00000000000E+00  0.00000000000E+00  0.20147330961E+03  0.20147330961E+03  0.00000000000E+00 0.  1.
         21   -1    0    0  501  502  0.00000000000E+00 -0.00000000000E+00 -0.14482805905E+03  0.14482805905E+03  0.00000000000E+00 0. -1.
         23    2    1    2    0    0  0.16349525696E+02 -0.95006396963E+02  0.87215322632E+02  0.15864636981E+03  0.90932038888E+02 0.  0.
         23    2    1    2    0    0  0.17323340839E+02  0.49503079446E+02  0.24541597027E+02  0.10865050584E+03  0.91934701952E+02 0.  0.
        -11    1    4    4    0    0  0.51613565329E+02  0.32341540372E+02  0.33157430948E+02  0.69349481517E+02  0.00000000000E+00 0.  1.
         11    1    4    4    0    0 -0.34290224490E+02  0.17161539074E+02 -0.86158339213E+01  0.39301024327E+02  0.00000000000E+00 0. -1.
        -13    1    3    3    0    0 -0.22090237862E+02 -0.89645276736E+01  0.53478227346E+02  0.58551363479E+02  0.00000000000E+00 0.  1.
         13    1    3    3    0    0  0.38439763558E+02 -0.86041869290E+02  0.33737095287E+02  0.10009500633E+03  0.00000000000E+00 0. -1.
         -1    1    1    2    0  502 -0.33672866535E+02  0.45503317517E+02 -0.55111669091E+02  0.79004493010E+02  0.00000000000E+00 0.  1.
<scales pt_clust_5="13000.00000" pt_clust_6="13000.00000" pt_clust_7="13000.00000" pt_clust_8="13000.00000" pt_clust_9="56.60754"></scales>
<clustering>
<clus scale="   56.608">  2  9  1 -1</clus>
<clus scale="   90.932">  7  8 -1 -1</clus>
<clus scale="   91.935">  5  6 -1 -1</clus>
<clus scale="  117.310">  1  7  2 -1</clus>
<clus scale="   56.608">  2  5  1 -1</clus>
</clustering>
</event>
<event>
 9    1  0.1464797E-005  0.1082701E+03  0.7546771E-02  0.1265350E+00
         21   -1    0    0  501  502  0.00000000000E+00  0.00000000000E+00  0.82770864001E+03  0.82770864001E+03  0.00000000000E+00 0. -1.
         -3   -1    0    0    0  501 -0.00000000000E+00 -0.00000000000E+00 -0.13413951372E+03  0.13413951372E+03  0.00000000000E+00 0.  1.
         23    2    1    2    0    0  0.49640800645E+02  0.18693401096E+02 -0.64798857952E+02  0.12244779930E+03  0.89335990664E+02 0.  0.
         23    2    1    2    0    0 -0.13139207346E+03  0.40974865038E+02  0.70630122035E+03  0.72558242750E+03  0.93089358653E+02 0.  0.
        -11    1    3    3    0    0  0.19123286117E+02  0.50108912047E+02 -0.56440150745E+02  0.77859448718E+02  0.00000000000E+00 0.  1.
         11    1    3    3    0    0  0.30517514528E+02 -0.31415510951E+02 -0.83587072069E+01  0.44588350580E+02  0.00000000000E+00 0. -1.
        -13    1    4    4    0    0 -0.11101634414E+03  0.31426886113E+02  0.68482601681E+03  0.69447746625E+03  0.00000000000E+00 0. -1.
         13    1    4    4    0    0 -0.20375729322E+02  0.95479789245E+01  0.21475203543E+02  0.31104961247E+02  0.00000000000E+00 0.  1.
         -3    1    1    2    0  502  0.81751272819E+02 -0.59668266134E+02  0.52066763890E+02  0.11381792694E+03  0.00000000000E+00 0.  1.
<scales pt_clust_5="13000.00000" pt_clust_6="13000.00000" pt_clust_7="13000.00000" pt_clust_8="13000.00000" pt_clust_9="101.21059"></scales>
<clustering>
<clus scale="   89.336">  5  6 -1 -1</clus>
<clus scale="   93.089">  7  8 -1 -1</clus>
<clus scale="  101.211">  1  9  2 -1</clus>
<clus scale="  105.060">  2  5  1 -1</clus>
<clus scale="  101.211">  1  5  2 -1</clus>
</clustering>
</event>
<event>
 9    1  0.1464797E-005  0.9973074E+02  0.7546771E-02  0.1283123E+00
         21   -1    0    0  501  502  0.00000000000E+00  0.00000000000E+00  0.24805856057E+03  0.24805856057E+03  0.00000000000E+00 0. -1.
         -1   -1    0    0    0  501 -0.00000000000E+00 -0.00000000000E+00 -0.55572911159E+02  0.55572911159E+02  0.00000000000E+00 0.  1.
         23    2    1    2    0    0 -0.17285036551E+02  0.27576079174E+02  0.37688306069E+02  0.10600931746E+03  0.93586079860E+02 0.  0.
         23    2    1    2    0    0  0.39023328472E+02 -0.17465867072E+02  0.12650199834E+03  0.16053581887E+03  0.89112944505E+02 0.  0.
        -11    1    3    3    0    0 -0.12244425076E+02  0.62407022318E+02  0.28132168521E+02  0.69541220047E+02  0.00000000000E+00 0.  1.
         11    1    3    3    0    0 -0.50406114756E+01 -0.34830943143E+02  0.95561375482E+01  0.36468097416E+02  0.00000000000E+00 0. -1.
        -13    1    4    4    0    0  0.55241584672E+02  0.95466295830E+01  0.41115117660E+02  0.69521390332E+02  0.00000000000E+00 0.  1.
         13    1    4    4    0    0 -0.16218256200E+02 -0.27012496655E+02  0.85386880680E+02  0.91014428537E+02  0.00000000000E+00 0. -1.
         -1    1    1    2    0  502 -0.21738291921E+02 -0.10110212102E+02  0.28295345004E+02  0.37086335398E+02  0.00000000000E+00 0.  1.
<scales pt_clust_5="13000.00000" pt_clust_6="13000.00000" pt_clust_7="13000.00000" pt_clust_8="13000.00000" pt_clust_9="23.97436"></scales>
<clustering>
<clus scale="   23.974">  1  9  2 -1</clus>
<clus scale="   89.113">  7  8 -1 -1</clus>
<clus scale="   93.586">  5  6 -1 -1</clus>
<clus scale="   95.546">  1  7  2 -1</clus>
<clus scale="   23.974">  1  5  2 -1</clus>
</clustering>
</event>
<event>
 9    1  0.1464797E-005  0.9302163E+02  0.7546771E-02  0.1296390E+00
         -3   -1    0    0    0  501 -0.00000000000E+00  0.00000000000E+00  0.94715927189E+02  0.94715927189E+02  0.00000000000E+00 0.  1.
         21   -1    0    0  501  502  0.00000000000E+00 -0.00000000000E+00 -0.24802278975E+03  0.24802278975E+03  0.00000000000E+00 0. -1.
         23    2    1    2    0    0 -0.25675403312E+02 -0.14597664495E+02  0.16733208602E+02  0.97835467942E+02  0.91757617523E+02 0.  0.
         23    2    1    2    0    0 -0.86911721407E+00 -0.15034665408E+02 -0.25905258940E+02  0.95378901013E+02  0.90549742071E+02 0.  0.
        -13    1    4    4    0    0  0.22639957719E+02  0.17307228742E+02  0.19763773463E+02  0.34680175803E+02  0.00000000000E+00 0.  1.
         13    1    4    4    0    0 -0.23509074933E+02 -0.32341894151E+02 -0.45669032404E+02  0.60698725210E+02  0.00000000000E+00 0. -1.
        -13    1    3    3    0    0  0.12125202356E+02 -0.24986257812E+02  0.42610668671E+02  0.50862586409E+02  0.00000000000E+00 0.  1.
         13    1    3    3    0    0 -0.37800605668E+02  0.10388593317E+02 -0.25877460069E+02  0.46972881534E+02  0.00000000000E+00 0. -1.
         -3    1    1    2    0  502  0.26544520526E+02  0.29632329903E+02 -0.14413481222E+03  0.14952434798E+03  0.00000000000E+00 0.  1.
<scales pt_clust_5="13000.00000" pt_clust_6="13000.00000" pt_clust_7="13000.00000" pt_clust_8="13000.00000" pt_clust_9="39.78299"></scales>
<clustering>
<clus scale="   39.783">  2  9  1 -1</clus>
<clus scale="   90.550">  5  6 -1 -1</clus>
<clus scale="   91.758">  7  8 -1 -1</clus>
<clus scale="   91.830">  2  5  1 -1</clus>
<clus scale="   39.783">  2  5  1 -1</clus>
</clustering>
</event>
<event>
 9    1  0.1464797E-005  0.9779767E+02  0.7546771E-02  0.1285595E+00
         21   -1    0    0  501  502  0.00000000000E+00  0.00000000000E+00  0.21192694874E+03  0.21192694874E+03  0.00000000000E+00 0.  1.
         -3   -1    0    0    0  501 -0.00000000000E+00 -0.00000000000E+00 -0.82046274945E+02  0.82046274945E+02  0.00000000000E+00 0.  1.
         23    2    1    2    0    0  0.31500191285E+02 -0.83307017321E+01  0.24220049285E+02  0.10014861073E+03  0.91550373030E+02 0.  0.
         23    2    1    2    0    0 -0.22273812648E+02  0.42745121866E+02  0.11787535932E+03  0.15615926918E+03  0.90376151955E+02 0.  0.
        -11    1    3    3    0    0 -0.96474227983E+01  0.23006778321E+02 -0.20098318645E+02  0.32036339174E+02  0.00000000000E+00 0.  1.
         11    1    3    3    0    0  0.41147614083E+02 -0.31337480053E+02  0.44318367929E+02  0.68112271558E+02  0.00000000000E+00 0. -1.
        -11    1    4    4    0    0  0.16748312913E+02  0.38471077209E+02  0.10773193639E+03  0.11561444497E+03  0.00000000000E+00 0.  1.
         11    1    4    4    0    0 -0.39022125561E+02  0.42740446566E+01  0.10143422923E+02  0.40544824203E+02  0.00000000000E+00 0. -1.
         -3    1    1    2    0  502 -0.92263786371E+01 -0.34414420134E+02 -0.12214734802E+02  0.37665343781E+02  0.00000000000E+00 0.  1.
<scales pt_clust_5="13000.00000" pt_clust_6="13000.00000" pt_clust_7="13000.00000" pt_clust_8="13000.00000" pt_clust_9="35.62976"></scales>
<clustering>
<clus scale="   35.630">  1  9  2 -1</clus>
<clus scale="   90.376">  7  8 -1 -1</clus>
<clus scale="   91.550">  5  6 -1 -1</clus>
<clus scale="   96.699">  1  7  2 -1</clus>
<clus scale="   35.630">  1  5  2 -1</clus>
</clustering>
</event>
<event>
 9    1  0.1464797E-005  0.2268305E+03  0.7546771E-02  0.1128906E+00
         21   -1    0    0  501  502  0.00000000000E+00  0.00000000000E+00  0.56450512332E+03  0.56450512332E+03  0.00000000000E+00 0. -1.
          1   -1    0    0  502    0 -0.00000000000E+00 -0.00000000000E+00 -0.60358507317E+03  0.60358507317E+03  0.00000000000E+00 0. -1.
         23    2    1    2    0    0  0.21540226456E+03  0.72149378208E+02 -0.38390123097E+03  0.45519419588E+03  0.90652812823E+02 0.  0.
         23    2    1    2    0    0 -0.15265246506E+03 -0.97429619944E+02 -0.12521189940E+03  0.23801936531E+03  0.90442758590E+02 0.  0.
        -11    1    3    3    0    0  0.27796814381E+02  0.14996483357E+02 -0.10256631894E+02  0.33207768678E+02  0.00000000000E+00 0.  1.
         11    1    3    3    0    0  0.18760545018E+03  0.57152894851E+02 -0.37364459908E+03  0.42198642721E+03  0.00000000000E+00 0. -1.
        -13    1    4    4    0    0 -0.12845939830E+03 -0.46083006169E+02 -0.11872401273E+03  0.18088905901E+03  0.00000000000E+00 0.  1.
         13    1    4    4    0    0 -0.24193066759E+02 -0.51346613775E+02 -0.64878866721E+01  0.57130306308E+02  0.00000000000E+00 0. -1.
          1    1    1    2  501    0 -0.62749799503E+02  0.25280241736E+02  0.47003318052E+03  0.47487663530E+03  0.00000000000E+00 0. -1.
<scales pt_clust_5="13000.00000" pt_clust_6="13000.00000" pt_clust_7="13000.00000" pt_clust_8="13000.00000" pt_clust_9="67.65078"></scales>
<clustering>
<clus scale="   67.651">  1  9  2 -1</clus>
<clus scale="   90.443">  7  8 -1 -1</clus>
<clus scale="   90.653">  5  6 -1 -1</clus>
<clus scale="  226.747">  1  7  2 -1</clus>
<clus scale="   67.651">  1  5  2 -1</clus>
</clustering>
</event>
<event>
 9    1  0.1464797E-005  0.1257652E+03  0.7546771E-02  0.1233943E+00
         21   -1    0    0  501  502  0.00000000000E+00  0.00000000000E+00  0.27194874738E+02  0.27194874738E+02  0.00000000000E+00 0.  1.
         -3   -1    0    0    0  501 -0.00000000000E+00 -0.00000000000E+00 -0.10225723880E+04  0.10225723880E+04  0.00000000000E+00 0.  1.
         23    2    1    2    0    0 -0.73597731558E+02  0.29512317274E+02 -0.44150077862E+03  0.45743061580E+03  0.89622696836E+02 0.  0.
         23    2    1    2    0    0  0.67473506853E+02 -0.92307247575E+02 -0.34929838408E+03  0.37825019029E+03  0.89389838650E+02 0.  0.
        -11    1    4    4    0    0  0.26445388856E+02  0.12353833391E+02 -0.42969506025E+02  0.51945685473E+02  0.00000000000E+00 0. -1.
         11    1    4    4    0    0  0.41028117996E+02 -0.10466108097E+03 -0.30632887805E+03  0.32630450482E+03  0.00000000000E+00 0.  1.
        -11    1    3    3    0    0 -0.49827349323E+02  0.48706215527E+02 -0.39928508204E+03  0.40531917905E+03  0.00000000000E+00 0.  1.
         11    1    3    3    0    0 -0.23770382236E+02 -0.19193898253E+02 -0.42215696581E+02  0.52111436745E+02  0.00000000000E+00 0. -1.
         -3    1    1    2    0  502  0.61242247056E+01  0.62794930301E+02 -0.20457835054E+03  0.21408645662E+03  0.00000000000E+00 0.  1.
<scales pt_clust_5="13000.00000" pt_clust_6="13000.00000" pt_clust_7="13000.00000" pt_clust_8="13000.00000" pt_clust_9="63.09289"></scales>
<clustering>
<clus scale="   63.093">  1  9  2 -1</clus>
<clus scale="   89.390">  5  6 -1 -1</clus>
<clus scale="   89.623">  7  8 -1 -1</clus>
<clus scale="  125.599">  1  5  2 -1</clus>
<clus scale="   63.093">  1  5  2 -1</clus>
</clustering>
</event>
<event>
 9    1  0.1464797E-005  0.1249897E+03  0.7546771E-02  0.1236056E+00
         21   -1    0    0  501  502  0.00000000000E+00  0.00000000000E+00  0.79874152334E+02  0.79874152334E+02  0.00000000000E+00 0. -1.
          4   -1    0    0  502    0 -0.00000000000E+00 -0.00000000000E+00 -0.49907148323E+03  0.49907148323E+03  0.00000000000E+00 0. -1.
         23    2    1    2    0    0 -0.68968503351E+02 -0.28513668951E+02 -0.26225479171E+03  0.28831886642E+03  0.93704371227E+02 0.  0.
         23    2    1    2    0    0  0.10111238383E+03 -0.33355620361E+01 -0.19079536965E+03  0.23411467577E+03  0.90398939115E+02 0.  0.
        -11    1    4    4    0    0  0.52064438776E+02  0.43442438331E+02 -0.99569390333E+02  0.12046582389E+03  0.00000000000E+00 0.  1.
         11    1    4    4    0    0  0.49047945051E+02 -0.46778000367E+02 -0.91225979315E+02  0.11364885188E+03  0.00000000000E+00 0. -1.
        -13    1    3    3    0    0 -0.32796593029E+02 -0.60097169971E+02 -0.18604033039E+03  0.19823796529E+03  0.00000000000E+00 0.  1.
         13    1    3    3    0    0 -0.36171910322E+02  0.31583501021E+02 -0.76214461325E+02  0.90080901128E+02  0.00000000000E+00 0. -1.
          4    1    1    2  501    0 -0.32143880476E+02  0.31849230987E+02  0.33852830468E+02  0.56512093371E+02  0.00000000000E+00 0. -1.
<scales pt_clust_5="13000.00000" pt_clust_6="13000.00000" pt_clust_7="13000.00000" pt_clust_8="13000.00000" pt_clust_9="45.25044"></scales>
<clustering>
<clus scale="   45.250">  1  9  2 -1</clus>
<clus scale="   90.399">  5  6 -1 -1</clus>
<clus scale="   93.704">  7  8 -1 -1</clus>
<clus scale="  122.531">  1  5  2 -1</clus>
<clus scale="   45.250">  1  5  2 -1</clus>
</clustering>
</event>
<event>
 9    1  0.1464797E-005  0.9244035E+02  0.7546771E-02  0.1299560E+00
         -1   -1    0    0    0  501 -0.00000000000E+00  0.00000000000E+00  0.52258093693E+02  0.52258093693E+02  0.00000000000E+00 0.  1.
         21   -1    0    0  501  502  0.00000000000E+00 -0.00000000000E+00 -0.27825999159E+03  0.27825999159E+03  0.00000000000E+00 0.  1.
         23    2    1    2    0    0 -0.74077145876E+01 -0.17509525006E+02 -0.38754619484E+02  0.10152051848E+03  0.91886002415E+02 0.  0.
         23    2    1    2    0    0  0.60105978829E+00 -0.26874751169E+01 -0.77007524345E+02  0.11671643419E+03  0.87664037151E+02 0.  0.
        -13    1    4    4    0    0 -0.32197637378E+02  0.25194114551E+02 -0.20660224647E+02  0.45806944268E+02  0.00000000000E+00 0.  1.
         13    1    4    4    0    0  0.32798697166E+02 -0.27881589668E+02 -0.56347299698E+02  0.70909489925E+02  0.00000000000E+00 0. -1.
        -13    1    3    3    0    0 -0.48994196841E+02 -0.15090914733E+02 -0.14327740797E+02  0.53230171781E+02  0.00000000000E+00 0.  1.
         13    1    3    3    0    0  0.41586482253E+02 -0.24186102729E+01 -0.24426878688E+02  0.48290346699E+02  0.00000000000E+00 0. -1.
         -1    1    1    2    0  502  0.68066547993E+01  0.20197000122E+02 -0.11023975407E+03  0.11228113261E+03  0.00000000000E+00 0.  1.
<scales pt_clust_5="13000.00000" pt_clust_6="13000.00000" pt_clust_7="13000.00000" pt_clust_8="13000.00000" pt_clust_9="21.31313"></scales>
<clustering>
<clus scale="   21.313">  2  9  1 -1</clus>
<clus scale="   87.664">  5  6 -1 -1</clus>
<clus scale="   88.245">  2  5  1 -1</clus>
<clus scale="   91.886">  7  8 -1 -1</clus>
<clus scale="   21.313">  2  5  1 -1</clus>
</clustering>
</event>
<event>
 9    1  0.1464797E-005  0.2023754E+03  0.7546771E-02  0.1151120E+00
         21   -1    0    0  501  502  0.00000000000E+00  0.00000000000E+00  0.46077346644E+03  0.46077346644E+03  0.00000000000E+00 0. -1.
          2   -1    0    0  502    0 -0.00000000000E+00 -0.00000000000E+00 -0.14060015611E+03  0.14060015611E+03  0.00000000000E+00 0. -1.
         23    2    1    2    0    0  0.15989600902E+03 -0.97018460311E+02  0.11147370055E+02  0.21875645982E+03  0.11291948242E+03 0.  0.
         23    2    1    2    0    0 -0.12376631547E+03  0.55787783324E+02  0.16642718372E+03  0.22984370676E+03  0.81851966633E+02 0.  0.
        -13    1    3    3    0    0  0.16346786229E+03 -0.68626211603E+02  0.35939096226E+02  0.18089476930E+03  0.00000000000E+00 0. -1.
         13    1    3    3    0    0 -0.35718532684E+01 -0.28392248708E+02 -0.24791726170E+02  0.37861690519E+02  0.00000000000E+00 0.  1.
        -13    1    4    4    0    0 -0.91396116963E+02  0.45110324040E+02  0.60406468434E+02  0.11847840715E+03  0.00000000000E+00 0. -1.
         13    1    4    4    0    0 -0.32370198509E+02  0.10677459285E+02  0.10602071529E+03  0.11136529961E+03  0.00000000000E+00 0.  1.
          2    1    1    2  501    0 -0.36129693550E+02  0.41230676987E+02  0.14259875655E+03  0.15277345597E+03  0.00000000000E+00 0. -1.
<scales pt_clust_5="13000.00000" pt_clust_6="13000.00000" pt_clust_7="13000.00000" pt_clust_8="13000.00000" pt_clust_9="54.82083"></scales>
<clustering>
<clus scale="   54.821">  1  9  2 -1</clus>
<clus scale="   81.852">  7  8 -1 -1</clus>
<clus scale="  112.919">  5  6 -1 -1</clus>
<clus scale="  186.828">  1  7  2 -1</clus>
<clus scale="   54.821">  1  5  2 -1</clus>
</clustering>
</event>
<event>
 9    1  0.1464797E-005  0.1588563E+03  0.7546771E-02  0.1190111E+00
         21   -1    0    0  501  502  0.00000000000E+00  0.00000000000E+00  0.13378892356E+03  0.13378892356E+03  0.00000000000E+00 0. -1.
          1   -1    0    0  502    0 -0.00000000000E+00 -0.00000000000E+00 -0.10917838342E+04  0.10917838342E+04  0.00000000000E+00 0. -1.
         23    2    1    2    0    0 -0.14375959440E+03 -0.65235984312E+02 -0.68658387975E+03  0.71043911162E+03  0.91671984564E+02 0.  0.
         23    2    1    2    0    0  0.98012831028E+02  0.27822455160E+02 -0.37321424780E+03  0.39742029296E+03  0.90958289559E+02 0.  0.
        -11    1    3    3    0    0 -0.84925597443E+02 -0.63519786797E+01 -0.20949985432E+03  0.22614794647E+03  0.00000000000E+00 0. -1.
         11    1    3    3    0    0 -0.58833996960E+02 -0.58884005632E+02 -0.47708402543E+03  0.48429116514E+03  0.00000000000E+00 0.  1.
        -13    1    4    4    0    0 -0.11988828876E+00  0.37695951517E+02 -0.11438249946E+03  0.12043402890E+03  0.00000000000E+00 0. -1.
         13    1    4    4    0    0  0.98132719317E+02 -0.98734963576E+01 -0.25883174834E+03  0.27698626406E+03  0.00000000000E+00 0.  1.
          1    1    1    2  501    0  0.45746763374E+02  0.37413529152E+02  0.10180321696E+03  0.11771335313E+03  0.00000000000E+00 0. -1.
<scales pt_clust_5="13000.00000" pt_clust_6="13000.00000" pt_clust_7="13000.00000" pt_clust_8="13000.00000" pt_clust_9="59.09770"></scales>
<clustering>
<clus scale="   59.098">  1  9  2 -1</clus>
<clus scale="   90.958">  7  8 -1 -1</clus>
<clus scale="   91.672">  5  6 -1 -1</clus>
<clus scale="  158.445">  1  7  2 -1</clus>
<clus scale="   59.098">  1  5  2 -1</clus>
</clustering>
</event>
<event>
 9    1  0.1464797E-005  0.1271567E+03  0.7546771E-02  0.1245600E+00
          1   -1    0    0  502    0 -0.00000000000E+00  0.00000000000E+00  0.23149058445E+03  0.23149058445E+03  0.00000000000E+00 0. -1.
         21   -1    0    0  501  502  0.00000000000E+00 -0.00000000000E+00 -0.25125790202E+03  0.25125790202E+03  0.00000000000E+00 0. -1.
         23    2    1    2    0    0 -0.22551249914E+02 -0.13443499804E+02  0.15956402846E+03  0.18583364359E+03  0.91565153582E+02 0.  0.
         23    2    1    2    0    0  0.12918449262E+02  0.53692518948E+02 -0.26059509750E+02  0.13815392141E+03  0.12392592558E+03 0.  0.
        -11    1    4    4    0    0 -0.18885755244E+02  0.52608325234E+02  0.37336997108E+02  0.67218739858E+02  0.00000000000E+00 0. -1.
         11    1    4    4    0    0  0.31804204506E+02  0.10841937133E+01 -0.63396506857E+02  0.70935181553E+02  0.00000000000E+00 0.  1.
        -13    1    3    3    0    0  0.19921698084E+02  0.18681831566E+02  0.13704443545E+02  0.30556450351E+02  0.00000000000E+00 0.  1.
         13    1    3    3    0    0 -0.42472947998E+02 -0.32125331369E+02  0.14585958492E+03  0.15527719324E+03  0.00000000000E+00 0. -1.
          1    1    1    2  501    0  0.96328006522E+01 -0.40249019144E+02 -0.15327183628E+03  0.15876092147E+03  0.00000000000E+00 0. -1.
<scales pt_clust_5="13000.00000" pt_clust_6="13000.00000" pt_clust_7="13000.00000" pt_clust_8="13000.00000" pt_clust_9="41.38568"></scales>
<clustering>
<clus scale="   41.386">  2  9  1 -1</clus>
<clus scale="   91.565">  7  8 -1 -1</clus>
<clus scale="   95.892">  1  7  2 -1</clus>
<clus scale="  123.926">  5  6 -1 -1</clus>
<clus scale="   41.386">  2  5  1 -1</clus>
</clustering>
</event>
<event>
 9    1  0.1464797E-005  0.9854850E+02  0.7546771E-02  0.1285864E+00
         21   -1    0    0  501  502  0.00000000000E+00  0.00000000000E+00  0.31550205054E+02  0.31550205054E+02  0.00000000000E+00 0.  1.
          1   -1    0    0  502    0 -0.00000000000E+00 -0.00000000000E+00 -0.40480923644E+03  0.40480923644E+03  0.00000000000E+00 0. -1.
         23    2    1    2    0    0  0.68399822907E+01 -0.20763647339E+01 -0.17767102736E+03  0.20236569040E+03  0.96611500563E+02 0.  0.
         23    2    1    2    0    0 -0.32097580625E+02 -0.10037225427E+02 -0.16921564776E+03  0.19552055893E+03  0.91996483309E+02 0.  0.
        -11    1    3    3    0    0 -0.19300299598E+01  0.46833710653E+02 -0.94371578235E+02  0.10537132555E+03  0.00000000000E+00 0.  1.
         11    1    3    3    0    0  0.87700122505E+01 -0.48910075387E+02 -0.83299449121E+02  0.96994364852E+02  0.00000000000E+00 0. -1.
        -11    1    4    4    0    0 -0.35370642274E+02 -0.31914747458E+02 -0.16656164098E+03  0.17324091228E+03  0.00000000000E+00 0. -1.
         11    1    4    4    0    0  0.32730616484E+01  0.21877522031E+02 -0.26540067725E+01  0.22279646647E+02  0.00000000000E+00 0.  1.
          1    1    1    2  501    0  0.25257598335E+02  0.12113590161E+02 -0.26372356276E+02  0.38473192170E+02  0.00000000000E+00 0. -1.
<scales pt_clust_5="13000.00000" pt_clust_6="13000.00000" pt_clust_7="13000.00000" pt_clust_8="13000.00000" pt_clust_9="28.01224"></scales>
<clustering>
<clus scale="   28.012">  1  9  2 -1</clus>
<clus scale="   91.996">  7  8 -1 -1</clus>
<clus scale="   94.029">  1  7  2 -1</clus>
<clus scale="   96.612">  5  6 -1 -1</clus>
<clus scale="   28.012">  1  5  2 -1</clus>
</clustering>
</event>
<event>
 9    1  0.1464797E-005  0.9426713E+02  0.7546771E-02  0.1293175E+00
          2   -1    0    0  502    0 -0.00000000000E+00  0.00000000000E+00  0.86956755059E+02  0.86956755059E+02  0.00000000000E+00 0. -1.
         21   -1    0    0  501  502  0.00000000000E+00 -0.00000000000E+00 -0.18202873875E+03  0.18202873875E+03  0.00000000000E+00 0.  1.
         23    2    1    2    0    0 -0.44005261537E+01  0.10240015600E+02 -0.65157531251E+01  0.92216136837E+02  0.91307931224E+02 0.  0.
         23    2    1    2    0    0 -0.31854775082E+02 -0.40883141458E+02 -0.51023787863E+02  0.11625380290E+03  0.90693780431E+02 0.  0.
        -13    1    3    3    0    0  0.25301902849E+02  0.31758990976E+02 -0.28357090481E+02  0.49527208443E+02  0.00000000000E+00 0.  1.
         13    1    3    3    0    0 -0.29702429002E+02 -0.21518975377E+02  0.21841337356E+02  0.42688928394E+02  0.00000000000E+00 0. -1.
        -13    1    4    4    0    0 -0.21850233065E+02  0.27130075282E+02 -0.10185611197E+02  0.36293530350E+02  0.00000000000E+00 0.  1.
         13    1    4    4    0    0 -0.10004542016E+02 -0.68013216739E+02 -0.40838176665E+02  0.79960272546E+02  0.00000000000E+00 0. -1.
          2    1    1    2  501    0  0.36255301235E+02  0.30643125858E+02 -0.37532442705E+02  0.60515554079E+02  0.00000000000E+00 0. -1.
<scales pt_clust_5="13000.00000" pt_clust_6="13000.00000" pt_clust_7="13000.00000" pt_clust_8="13000.00000" pt_clust_9="47.47050"></scales>
<clustering>
<clus scale="   47.470">  2  9  1 -1</clus>
<clus scale="   90.694">  7  8 -1 -1</clus>
<clus scale="   91.308">  5  6 -1 -1</clus>
<clus scale="   93.672">  2  7  1 -1</clus>
<clus scale="   47.470">  2  5  1 -1</clus>
</clustering>
</event>
<event>
 9    1  0.1464797E-005  0.9558196E+02  0.7546771E-02  0.1296663E+00
         21   -1    0    0  501  502  0.00000000000E+00  0.00000000000E+00  0.10022765884E+03  0.10022765884E+03  0.00000000000E+00 0. -1.
          1   -1    0    0  502    0 -0.00000000000E+00 -0.00000000000E+00 -0.40129696175E+03  0.40129696175E+03  0.00000000000E+00 0. -1.
         23    2    1    2    0    0  0.35010275126E+02  0.10214661470E+02 -0.24609100383E+03  0.26131808732E+03  0.79976883688E+02 0.  0.
         23    2    1    2    0    0  0.34390966368E+00 -0.17177703597E+02 -0.12817009955E+03  0.15862564093E+03  0.91865813922E+02 0.  0.
        -13    1    4    4    0    0 -0.68813071755E+01  0.29765784353E+02 -0.11474641933E+02  0.32634670430E+02  0.00000000000E+00 0.  1.
         13    1    4    4    0    0  0.72252168392E+01 -0.46943487951E+02 -0.11669545762E+03  0.12599097050E+03  0.00000000000E+00 0. -1.
        -13    1    3    3    0    0 -0.54014765055E+01  0.37624753658E+02 -0.88017774326E+02  0.95874535898E+02  0.00000000000E+00 0.  1.
         13    1    3    3    0    0  0.40411751631E+02 -0.27410092187E+02 -0.15807322950E+03  0.16544355142E+03  0.00000000000E+00 0. -1.
          1    1    1    2  501    0 -0.35354184789E+02  0.69630421273E+01  0.73191800468E+02  0.81580892331E+02  0.00000000000E+00 0. -1.
<scales pt_clust_5="13000.00000" pt_clust_6="13000.00000" pt_clust_7="13000.00000" pt_clust_8="13000.00000" pt_clust_9="36.03335"></scales>
<clustering>
<clus scale="   36.033">  1  9  2 -1</clus>
<clus scale="   79.977">  7  8 -1 -1</clus>
<clus scale="   84.219">  2  7  1 -1</clus>
<clus scale="   91.866">  5  6 -1 -1</clus>
<clus scale="   36.033">  1  5  2 -1</clus>
</clustering>
</event>
<event>
 9    1  0.1464797E-005  0.9013067E+02  0.7546771E-02  0.1306010E+00
         21   -1    0    0  501  502  0.00000000000E+00  0.00000000000E+00  0.28243772612E+02  0.28243772612E+02  0.00000000000E+00 0.  1.
          1   -1    0    0  502    0 -0.00000000000E+00 -0.00000000000E+00 -0.76602053342E+03  0.76602053342E+03  0.00000000000E+00 0. -1.
         23    2    1    2    0    0 -0.74142131009E+01  0.97242596709E+01 -0.35977453773E+03  0.36975336211E+03  0.84441097855E+02 0.  0.
         23    2    1    2    0    0 -0.36882255357E+02  0.50635041734E+02 -0.15968110518E+03  0.19370900957E+03  0.90005093325E+02 0.  0.
        -11    1    4    4    0    0 -0.33307085469E+01 -0.25676455140E+02 -0.31061295776E+02  0.40437335017E+02  0.00000000000E+00 0. -1.
         11    1    4    4    0    0 -0.33551546810E+02  0.76311496874E+02 -0.12861980941E+03  0.15327167455E+03  0.00000000000E+00 0.  1.
        -13    1    3    3    0    0 -0.87846523586E+01 -0.36530503159E+02 -0.12780654794E+03  0.13321471943E+03  0.00000000000E+00 0. -1.
         13    1    3    3    0    0  0.13704392576E+01  0.46254762830E+02 -0.23196798980E+03  0.23653864268E+03  0.00000000000E+00 0.  1.
          1    1    1    2  501    0  0.44296468458E+02 -0.60359301405E+02 -0.21832111789E+03  0.23080193435E+03  0.00000000000E+00 0. -1.
<scales pt_clust_5="13000.00000" pt_clust_6="13000.00000" pt_clust_7="13000.00000" pt_clust_8="13000.00000" pt_clust_9="74.86941"></scales>
<clustering>
<clus scale="   74.869">  1  9  2 -1</clus>
<clus scale="   84.441">  7  8 -1 -1</clus>
<clus scale="   84.575">  2  7  1 -1</clus>
<clus scale="   90.005">  5  6 -1 -1</clus>
<clus scale="   74.869">  1  5  2 -1</clus>
</clustering>
</event>
<event>
 9    1  0.1464797E-005  0.1233046E+03  0.7546771E-02  0.1239667E+00
         21   -1    0    0  501  502  0.00000000000E+00  0.00000000000E+00  0.11495766246E+03  0.11495766246E+03  0.00000000000E+00 0. -1.
          2   -1    0    0  502    0 -0.00000000000E+00 -0.00000000000E+00 -0.26082504640E+03  0.26082504640E+03  0.00000000000E+00 0. -1.
         23    2    1    2    0    0  0.32375847331E+01 -0.77442858658E+02 -0.16184826444E+03  0.20362157700E+03  0.96223737233E+02 0.  0.
         23    2    1    2    0    0 -0.27228640484E+02  0.73951424645E+02 -0.27114665993E+02  0.12271432211E+03  0.90074345228E+02 0.  0.
        -11    1    3    3    0    0 -0.13078779489E+02 -0.23249484071E+02  0.52600352817E+01  0.27189353682E+02  0.00000000000E+00 0.  1.
         11    1    3    3    0    0  0.16316364222E+02 -0.54193374587E+02 -0.16710829972E+03  0.17643222332E+03  0.00000000000E+00 0. -1.
        -13    1    4    4    0    0 -0.25705534388E+02  0.94034749376E+02 -0.30808646403E+02  0.10223737713E+03  0.00000000000E+00 0.  1.
         13    1    4    4    0    0 -0.15231060967E+01 -0.20083324731E+02  0.36939804094E+01  0.20476944980E+02  0.00000000000E+00 0. -1.
          2    1    1    2  501    0  0.23991055751E+02  0.34914340127E+01  0.43095546495E+02  0.49446809758E+02  0.00000000000E+00 0. -1.
<scales pt_clust_5="13000.00000" pt_clust_6="13000.00000" pt_clust_7="13000.00000" pt_clust_8="13000.00000" pt_clust_9="24.24378"></scales>
<clustering>
<clus scale="   24.244">  1  9  2 -1</clus>
<clus scale="   90.074">  7  8 -1 -1</clus>
<clus scale="   96.224">  5  6 -1 -1</clus>
<clus scale="  118.568">  1  7  2 -1</clus>
<clus scale="   24.244">  1  5  2 -1</clus>
</clustering>
</event>
<event>
 9    1  0.1464797E-005  0.9223607E+02  0.7546771E-02  0.1298498E+00
         21   -1    0    0  501  502  0.00000000000E+00  0.00000000000E+00  0.51634740476E+03  0.51634740476E+03  0.00000000000E+00 0.  1.
          2   -1    0    0  502    0 -0.00000000000E+00 -0.00000000000E+00 -0.45512555298E+02  0.45512555298E+02  0.00000000000E+00 0. -1.
         23    2    1    2    0    0  0.13142289204E+02  0.47731490745E+01  0.27329544744E+02  0.95109963119E+02  0.90019433185E+02 0.  0.
         23    2    1    2    0    0 -0.53296506283E+02  0.56114091812E+01  0.29542883841E+03  0.31297470610E+03  0.88334379472E+02 0.  0.
        -11    1    3    3    0    0 -0.29997765384E+02 -0.34252101869E+01 -0.15353075971E+02  0.33872037651E+02  0.00000000000E+00 0. -1.
         11    1    3    3    0    0  0.43140054588E+02  0.81983592613E+01  0.42682620715E+02  0.61237925467E+02  0.00000000000E+00 0.  1.
        -13    1    4    4    0    0  0.14677560858E+02  0.20848969620E+02  0.14467102443E+03  0.14690069992E+03  0.00000000000E+00 0.  1.
         13    1    4    4    0    0 -0.67974067141E+02 -0.15237560439E+02  0.15075781398E+03  0.16607400618E+03  0.00000000000E+00 0. -1.
          2    1    1    2  501    0  0.40154217079E+02 -0.10384558256E+02  0.14807646631E+03  0.15377529084E+03  0.00000000000E+00 0. -1.
<scales pt_clust_5="13000.00000" pt_clust_6="13000.00000" pt_clust_7="13000.00000" pt_clust_8="13000.00000" pt_clust_9="41.47530"></scales>
<clustering>
<clus scale="   41.475">  1  9  2 -1</clus>
<clus scale="   88.334">  7  8 -1 -1</clus>
<clus scale="   90.019">  5  6 -1 -1</clus>
<clus scale="   90.592">  1  7  2 -1</clus>
<clus scale="   41.475">  1  5  2 -1</clus>
</clustering>
</event>
<event>
 9    1  0.1464797E-005  0.1128849E+03  0.7546771E-02  0.1255511E+00
         21   -1    0    0  501  502  0.00000000000E+00  0.00000000000E+00  0.19674741408E+02  0.19674741408E+02  0.00000000000E+00 0. -1.
         -3   -1    0    0    0  501 -0.00000000000E+00 -0.00000000000E+00 -0.91873773800E+03  0.91873773800E+03  0.00000000000E+00 0.  1.
         23    2    1    2    0    0  0.99627691283E+01 -0.74572136738E+02 -0.54286653381E+03  0.55572734798E+03  0.92024732614E+02 0.  0.
         23    2    1    2    0    0 -0.13530410350E+02  0.45794229502E+02 -0.21433030739E+03  0.23788560776E+03  0.91498077877E+02 0.  0.
        -13    1    3    3    0    0  0.47907930614E+02 -0.62132451989E+02 -0.33558598621E+03  0.34463540959E+03  0.00000000000E+00 0.  1.
         13    1    3    3    0    0 -0.37945161486E+02 -0.12439684749E+02 -0.20728054760E+03  0.21109193838E+03  0.00000000000E+00 0. -1.
        -13    1    4    4    0    0 -0.31249477550E+02  0.15722964608E+02 -0.19474655348E+03  0.19786349223E+03  0.00000000000E+00 0.  1.
         13    1    4    4    0    0  0.17719067199E+02  0.30071264894E+02 -0.19583753904E+02  0.40022115532E+02  0.00000000000E+00 0. -1.
         -3    1    1    2    0  502  0.35676412221E+01  0.28777907236E+02 -0.14186615540E+03  0.14479952367E+03  0.00000000000E+00 0.  1.
<scales pt_clust_5="13000.00000" pt_clust_6="13000.00000" pt_clust_7="13000.00000" pt_clust_8="13000.00000" pt_clust_9="28.99822"></scales>
<clustering>
<clus scale="   28.998">  1  9  2 -1</clus>
<clus scale="   91.498">  7  8 -1 -1</clus>
<clus scale="   92.025">  5  6 -1 -1</clus>
<clus scale="  112.456">  1  7  2 -1</clus>
<clus scale="   28.998">  1  5  2 -1</clus>
</clustering>
</event>
<event>
 9    1  0.1464797E-005  0.1141523E+03  0.7546771E-02  0.1255073E+00
          1   -1    0    0  502    0 -0.00000000000E+00  0.00000000000E+00  0.89422173411E+02  0.89422173411E+02  0.00000000000E+00 0. -1.
         21   -1    0    0  501  502  0.00000000000E+00 -0.00000000000E+00 -0.29808929913E+03  0.29808929913E+03  0.00000000000E+00 0.  1.
         23    2    1    2    0    0  0.34126446472E+02  0.40357217475E+02  0.15126509310E+01  0.10715013635E+03  0.93196267390E+02 0.  0.
         23    2    1    2    0    0 -0.57348331627E+02 -0.39218630831E+02 -0.72197588046E+02  0.14043408116E+03  0.98398715879E+02 0.  0.
        -13    1    3    3    0    0  0.64757527074E+02  0.13518992404E+02 -0.26916840158E+01  0.66208350162E+02  0.00000000000E+00 0.  1.
         13    1    3    3    0    0 -0.30631080601E+02  0.26838225071E+02  0.42043349467E+01  0.40941786186E+02  0.00000000000E+00 0. -1.
        -13    1    4    4    0    0  0.87282516780E+00 -0.47472932360E+02 -0.66000556938E+02  0.81305071470E+02  0.00000000000E+00 0.  1.
         13    1    4    4    0    0 -0.58221156795E+02  0.82543015292E+01 -0.61970311082E+01  0.59129009689E+02  0.00000000000E+00 0. -1.
          1    1    1    2  501    0  0.23221885155E+02 -0.11385866446E+01 -0.13798218860E+03  0.13992725504E+03  0.00000000000E+00 0. -1.
<scales pt_clust_5="13000.00000" pt_clust_6="13000.00000" pt_clust_7="13000.00000" pt_clust_8="13000.00000" pt_clust_9="23.24978"></scales>
<clustering>
<clus scale="   23.250">  2  9  1 -1</clus>
<clus scale="   93.196">  5  6 -1 -1</clus>
<clus scale="   98.399">  7  8 -1 -1</clus>
<clus scale="  109.699">  1  5  2 -1</clus>
<clus scale="   23.250">  2  5  1 -1</clus>
</clustering>
</event>
<event>
 9    1  0.1464797E-005  0.1033195E+03  0.7546771E-02  0.1274307E+00
         21   -1    0    0  501  502  0.00000000000E+00  0.00000000000E+00  0.36909200400E+03  0.36909200400E+03  0.00000000000E+00 0.  1.
          1   -1    0    0  502    0 -0.00000000000E+00 -0.00000000000E+00 -0.60125702591E+02  0.60125702591E+02  0.00000000000E+00 0. -1.
         23    2    1    2    0    0  0.21728078361E+02 -0.52401877783E+02  0.27152990022E+02  0.10852023595E+03  0.88438060581E+02 0.  0.
         23    2    1    2    0    0  0.12139048812E+02  0.41617873637E+02  0.12653654315E+03  0.16140480978E+03  0.90336105500E+02 0.  0.
        -11    1    4    4    0    0  0.24498278795E+02  0.72007176124E+01  0.12189692811E+03  0.12454267172E+03  0.00000000000E+00 0.  1.
         11    1    4    4    0    0 -0.12359229984E+02  0.34417156025E+02  0.46396150425E+01  0.36862138060E+02  0.00000000000E+00 0. -1.
        -11    1    3    3    0    0  0.27107777540E+02  0.14725790097E+02  0.27274241632E+02  0.41177235868E+02  0.00000000000E+00 0. -1.
         11    1    3    3    0    0 -0.53796991794E+01 -0.67127667880E+02 -0.12125160915E+00  0.67343000083E+02  0.00000000000E+00 0.  1.
          1    1    1    2  501    0 -0.33867127173E+02  0.10784004146E+02  0.15527676823E+03  0.15929266085E+03  0.00000000000E+00 0. -1.
<scales pt_clust_5="13000.00000" pt_clust_6="13000.00000" pt_clust_7="13000.00000" pt_clust_8="13000.00000" pt_clust_9="35.54261"></scales>
<clustering>
<clus scale="   35.543">  1  9  2 -1</clus>
<clus scale="   88.438">  7  8 -1 -1</clus>
<clus scale="   90.336">  5  6 -1 -1</clus>
<clus scale="  101.664">  2  7  1 -1</clus>
<clus scale="   35.543">  1  5  2 -1</clus>
</clustering>
</event>
<event>
 9    1  0.1464797E-005  0.1110293E+03  0.7546771E-02  0.1258689E+00
         21   -1    0    0  501  502  0.00000000000E+00  0.00000000000E+00  0.52075469671E+03  0.52075469671E+03  0.00000000000E+00 0. -1.
         -3   -1    0    0    0  501 -0.00000000000E+00 -0.00000000000E+00 -0.58521596352E+02  0.58521596352E+02  0.00000000000E+00 0.  1.
         23    2    1    2    0    0  0.58994309200E+02 -0.22981452442E+02  0.14595655612E+02  0.11136576685E+03  0.90447914228E+02 0.  0.
         23    2    1    2    0    0 -0.72286006661E+02  0.79479690628E+01  0.37556974171E+03  0.39310124428E+03  0.90484918018E+02 0.  0.
        -11    1    3    3    0    0  0.27529915922E+02  0.29059921522E+01 -0.36628523338E+02  0.45912849868E+02  0.00000000000E+00 0.  1.
         11    1    3    3    0    0  0.31464393278E+02 -0.25887444594E+02  0.51224178950E+02  0.65452916979E+02  0.00000000000E+00 0. -1.
        -13    1    4    4    0    0  0.16443693873E+02 -0.14688651364E+02  0.45442870956E+02  0.50509465131E+02  0.00000000000E+00 0.  1.
         13    1    4    4    0    0 -0.88729700534E+02  0.22636620427E+02  0.33012687076E+03  0.34259177914E+03  0.00000000000E+00 0. -1.
         -3    1    1    2    0  502  0.13291697461E+02  0.15033483379E+02  0.72067703032E+02  0.74809281939E+02  0.00000000000E+00 0.  1.
<scales pt_clust_5="13000.00000" pt_clust_6="13000.00000" pt_clust_7="13000.00000" pt_clust_8="13000.00000" pt_clust_9="20.06676"></scales>
<clustering>
<clus scale="   20.067">  1  9  2 -1</clus>
<clus scale="   90.448">  5  6 -1 -1</clus>
<clus scale="   90.485">  7  8 -1 -1</clus>
<clus scale="  110.999">  2  5  1 -1</clus>
<clus scale="   20.067">  1  5  2 -1</clus>
</clustering>
</event>
<event>
 9    1  0.1464797E-005  0.1510716E+03  0.7546771E-02  0.1221167E+00
          1   -1    0    0  502    0 -0.00000000000E+00  0.00000000000E+00  0.65992529573E+03  0.65992529573E+03  0.00000000000E+00 0. -1.
         21   -1    0    0  501  502  0.00000000000E+00 -0.00000000000E+00 -0.12120130894E+03  0.12120130894E+03  0.00000000000E+00 0.  1.
         23    2    1    2    0    0  0.11540095078E+02 -0.19231420935E+02  0.48918920163E+03  0.49822196837E+03  0.91738941723E+02 0.  0.
         23    2    1    2    0    0 -0.58072243251E+02 -0.96302646605E+02  0.61960422325E+02  0.15773372101E+03  0.91620126767E+02 0.  0.
        -13    1    3    3    0    0  0.48052800992E+02  0.78582952251E+01  0.27225395905E+03  0.27657375636E+03  0.00000000000E+00 0.  1.
         13    1    3    3    0    0 -0.36512705914E+02 -0.27089716160E+02  0.21693524258E+03  0.22164821201E+03  0.00000000000E+00 0. -1.
        -13    1    4    4    0    0 -0.37310639591E+02 -0.10053356232E+03  0.17729329611E+02  0.10868951241E+03  0.00000000000E+00 0.  1.
         13    1    4    4    0    0 -0.20761603659E+02  0.42309157148E+01  0.44231092714E+02  0.49044208598E+02  0.00000000000E+00 0. -1.
          1    1    1    2  501    0  0.46532148173E+02  0.11553406754E+03 -0.12425637160E+02  0.12517091529E+03  0.00000000000E+00 0. -1.
<scales pt_clust_5="13000.00000" pt_clust_6="13000.00000" pt_clust_7="13000.00000" pt_clust_8="13000.00000" pt_clust_9="120.11814"></scales>
<clustering>
<clus scale="   91.620">  7  8 -1 -1</clus>
<clus scale="   91.739">  5  6 -1 -1</clus>
<clus scale="   94.441">  1  5  2 -1</clus>
<clus scale="  120.118">  2  9  1 -1</clus>
<clus scale="  120.118">  2  5  1 -1</clus>
</clustering>
</event>
<event>
 9    1  0.1464797E-005  0.1474875E+03  0.7546771E-02  0.1204111E+00
          1   -1    0    0  502    0 -0.00000000000E+00  0.00000000000E+00  0.37191565964E+03  0.37191565964E+03  0.00000000000E+00 0. -1.
         21   -1    0    0  501  502  0.00000000000E+00 -0.00000000000E+00 -0.25925743931E+03  0.25925743931E+03  0.00000000000E+00 0.  1.
         23    2    1    2    0    0  0.57400715276E+02 -0.88651130975E+02  0.25090815616E+03  0.28738881796E+03  0.92106268666E+02 0.  0.
         23    2    1    2    0    0 -0.54265516187E+02  0.16724759399E+03 -0.15366558158E+02  0.19788171768E+03  0.89468090077E+02 0.  0.
        -11    1    4    4    0    0 -0.39778921046E+02  0.15325869838E+03 -0.42641048802E+02  0.16397820048E+03  0.00000000000E+00 0.  1.
         11    1    4    4    0    0 -0.14486595141E+02  0.13988895608E+02  0.27274490644E+02  0.33903517207E+02  0.00000000000E+00 0. -1.
        -13    1    3    3    0    0  0.34657733016E+02 -0.95745496232E+02  0.24092255923E+03  0.26155694993E+03  0.00000000000E+00 0. -1.
         13    1    3    3    0    0  0.22742982260E+02  0.70943652568E+01  0.99855969227E+01  0.25831868039E+02  0.00000000000E+00 0.  1.
          1    1    1    2  501    0 -0.31351990889E+01 -0.78596463013E+02 -0.12288337767E+03  0.14590256330E+03  0.00000000000E+00 0. -1.
<scales pt_clust_5="13000.00000" pt_clust_6="13000.00000" pt_clust_7="13000.00000" pt_clust_8="13000.00000" pt_clust_9="78.65897"></scales>
<clustering>
<clus scale="   78.659">  2  9  1 -1</clus>
<clus scale="   89.468">  5  6 -1 -1</clus>
<clus scale="   92.106">  7  8 -1 -1</clus>
<clus scale="  145.855">  2  5  1 -1</clus>
<clus scale="   78.659">  2  5  1 -1</clus>
</clustering>
</event>
<event>
 9    1  0.1464797E-005  0.9523369E+02  0.7546771E-02  0.1292244E+00
         21   -1    0    0  501  502  0.00000000000E+00  0.00000000000E+00  0.12211933870E+03  0.12211933870E+03  0.00000000000E+00 0.  1.
          1   -1    0    0  502    0 -0.00000000000E+00 -0.00000000000E+00 -0.96736073735E+02  0.96736073735E+02  0.00000000000E+00 0. -1.
         23    2    1    2    0    0 -0.28316296745E+02  0.13402779732E+02  0.13493894190E+01  0.98372211534E+02  0.93240677734E+02 0.  0.
         23    2    1    2    0    0  0.64254891157E+01  0.18516466028E+01  0.24175402939E+02  0.93801277970E+02  0.90385364612E+02 0.  0.
        -11    1    4    4    0    0 -0.55725631561E+01 -0.41420034308E+02 -0.19707069056E+01  0.41839650906E+02  0.00000000000E+00 0. -1.
         11    1    4    4    0    0  0.11998052272E+02  0.43271680911E+02  0.26146109844E+02  0.51961627064E+02  0.00000000000E+00 0.  1.
        -11    1    3    3    0    0 -0.43340881490E+02 -0.18505559527E+02  0.27411760974E+02  0.54518734225E+02  0.00000000000E+00 0. -1.
         11    1    3    3    0    0  0.15024584745E+02  0.31908339259E+02 -0.26062371555E+02  0.43853477309E+02  0.00000000000E+00 0.  1.
          1    1    1    2  501    0  0.21890807630E+02 -0.15254426335E+02 -0.14152738853E+00  0.26681922935E+02  0.00000000000E+00 0. -1.
<scales pt_clust_5="13000.00000" pt_clust_6="13000.00000" pt_clust_7="13000.00000" pt_clust_8="13000.00000" pt_clust_9="26.68156"></scales>
<clustering>
<clus scale="   26.682">  1  9  2 -1</clus>
<clus scale="   90.385">  5  6 -1 -1</clus>
<clus scale="   92.440">  1  5  2 -1</clus>
<clus scale="   93.241">  7  8 -1 -1</clus>
<clus scale="   26.682">  1  5  2 -1</clus>
</clustering>
</event>
<event>
 9    1  0.1464797E-005  0.2319289E+03  0.7546771E-02  0.1125356E+00
         21   -1    0    0  501  502  0.00000000000E+00  0.00000000000E+00  0.12680710058E+03  0.12680710058E+03  0.00000000000E+00 0. -1.
          2   -1    0    0  502    0 -0.00000000000E+00 -0.00000000000E+00 -0.11668125454E+04  0.11668125454E+04  0.00000000000E+00 0. -1.
         23    2    1    2    0    0 -0.31759845031E+02 -0.22799946156E+03 -0.79709944337E+03  0.83467934367E+03  0.91266871804E+02 0.  0.
         23    2    1    2    0    0  0.25045683435E+02  0.18363125652E+03 -0.31354870744E+03  0.37525034186E+03  0.90290101910E+02 0.  0.
        -11    1    3    3    0    0  0.26407472083E+02 -0.73033968209E+02 -0.18605468214E+03  0.20161264802E+03  0.00000000000E+00 0.  1.
         11    1    3    3    0    0 -0.58167317114E+02 -0.15496549335E+03 -0.61104476123E+03  0.63306669565E+03  0.00000000000E+00 0. -1.
        -11    1    4    4    0    0  0.58658078489E+02  0.11842117208E+03 -0.21549694440E+03  0.25279097534E+03  0.00000000000E+00 0. -1.
         11    1    4    4    0    0 -0.33612395054E+02  0.65210084440E+02 -0.98051763034E+02  0.12245936652E+03  0.00000000000E+00 0.  1.
          2    1    1    2  501    0  0.67141615963E+01  0.44368205040E+02  0.70642705950E+02  0.83689960499E+02  0.00000000000E+00 0. -1.
<scales pt_clust_5="13000.00000" pt_clust_6="13000.00000" pt_clust_7="13000.00000" pt_clust_8="13000.00000" pt_clust_9="44.87335"></scales>
<clustering>
<clus scale="   44.873">  1  9  2 -1</clus>
<clus scale="   90.290">  7  8 -1 -1</clus>
<clus scale="   91.267">  5  6 -1 -1</clus>
<clus scale="  231.546">  1  7  2 -1</clus>
<clus scale="   44.873">  1  5  2 -1</clus>
</clustering>
</event>
<event>
 9    1  0.1464797E-005  0.2539235E+03  0.7546771E-02  0.1110954E+00
          1   -1    0    0  502    0 -0.00000000000E+00  0.00000000000E+00  0.53298231583E+03  0.53298231583E+03  0.00000000000E+00 0. -1.
         21   -1    0    0  501  502  0.00000000000E+00 -0.00000000000E+00 -0.25116676566E+03  0.25116676566E+03  0.00000000000E+00 0.  1.
         23    2    1    2    0    0 -0.19030815594E+03  0.40046853155E+02  0.16990902640E+03  0.27392234428E+03  0.91342371230E+02 0.  0.
         23    2    1    2    0    0  0.31766476353E+03 -0.84913653811E+02  0.14636204902E+03  0.37087136946E+03  0.89456652616E+02 0.  0.
        -11    1    3    3    0    0 -0.13444589373E+03 -0.77765903495E+01  0.14079541988E+03  0.19483204037E+03  0.00000000000E+00 0.  1.
         11    1    3    3    0    0 -0.55862262211E+02  0.47823443505E+02  0.29113606522E+02  0.79090303911E+02  0.00000000000E+00 0. -1.
        -13    1    4    4    0    0  0.17207625465E+03 -0.20761967759E+02  0.35400452644E+02  0.17690248378E+03  0.00000000000E+00 0. -1.
         13    1    4    4    0    0  0.14558850889E+03 -0.64151686051E+02  0.11096159638E+03  0.19396888569E+03  0.00000000000E+00 0.  1.
          1    1    1    2  501    0 -0.12735660760E+03  0.44866800655E+02 -0.34455525248E+02  0.13935536775E+03  0.00000000000E+00 0. -1.
<scales pt_clust_5="13000.00000" pt_clust_6="13000.00000" pt_clust_7="13000.00000" pt_clust_8="13000.00000" pt_clust_9="135.02865"></scales>
<clustering>
<clus scale="   89.457">  7  8 -1 -1</clus>
<clus scale="   91.342">  5  6 -1 -1</clus>
<clus scale="  135.029">  2  9  1 -1</clus>
<clus scale="  253.251">  2  7  1 -1</clus>
<clus scale="  135.029">  2  5  1 -1</clus>
</clustering>
</event>
<event>
 9    1  0.1464797E-005  0.9119644E+02  0.7546771E-02  0.1300586E+00
         21   -1    0    0  501  502  0.00000000000E+00  0.00000000000E+00  0.89978075439E+02  0.89978075439E+02  0.00000000000E+00 0.  1.
          2   -1    0    0  502    0 -0.00000000000E+00 -0.00000000000E+00 -0.12500430803E+03  0.12500430803E+03  0.00000000000E+00 0. -1.
         23    2    1    2    0    0  0.30642990912E+02  0.89104835269E+01 -0.18597488755E+02  0.95439823683E+02  0.88002862157E+02 0.  0.
         23    2    1    2    0    0 -0.23674634375E+01 -0.11643126551E+02 -0.97152005880E+01  0.90352759261E+02  0.89039702968E+02 0.  0.
        -11    1    4    4    0    0 -0.76262444145E+01 -0.40116371773E+02  0.22836630578E+02  0.46786692384E+02  0.00000000000E+00 0.  1.
         11    1    4    4    0    0  0.52587809771E+01  0.28473245221E+02 -0.32551831166E+02  0.43566066877E+02  0.00000000000E+00 0. -1.
        -13    1    3    3    0    0 -0.26468080341E+02  0.13128683438E+02 -0.23797821787E+02  0.37937552999E+02  0.00000000000E+00 0. -1.
         13    1    3    3    0    0  0.57111071253E+02 -0.42181999114E+01  0.52003330312E+01  0.57502270684E+02  0.00000000000E+00 0.  1.
          2    1    1    2  501    0 -0.28275527474E+02  0.27326430245E+01 -0.67135432482E+01  0.29189800527E+02  0.00000000000E+00 0. -1.
<scales pt_clust_5="13000.00000" pt_clust_6="13000.00000" pt_clust_7="13000.00000" pt_clust_8="13000.00000" pt_clust_9="28.40728"></scales>
<clustering>
<clus scale="   28.407">  1  9  2 -1</clus>
<clus scale="   88.003">  7  8 -1 -1</clus>
<clus scale="   89.040">  5  6 -1 -1</clus>
<clus scale="   90.184">  2  7  1 -1</clus>
<clus scale="   28.407">  1  5  2 -1</clus>
</clustering>
</event>
<event>
 9    1  0.1464797E-005  0.1117164E+03  0.7546771E-02  0.1257763E+00
         21   -1    0    0  501  502  0.00000000000E+00  0.00000000000E+00  0.25464568525E+03  0.25464568525E+03  0.00000000000E+00 0.  1.
         -2   -1    0    0    0  501 -0.00000000000E+00 -0.00000000000E+00 -0.24960838180E+03  0.24960838180E+03  0.00000000000E+00 0.  1.
         23    2    1    2    0    0 -0.34022167130E+02 -0.60798313873E+02 -0.19420268492E+03  0.22538031543E+03  0.90706454721E+02 0.  0.
         23    2    1    2    0    0 -0.57251609974E+01  0.52641318289E+02  0.35403738873E+02  0.11008778267E+03  0.89788692533E+02 0.  0.
        -11    1    4    4    0    0 -0.35361225064E+02  0.12735587138E+02 -0.13903323855E+02  0.40073854719E+02  0.00000000000E+00 0.  1.
         11    1    4    4    0    0  0.29636064067E+02  0.39905731150E+02  0.49307062728E+02  0.70013927949E+02  0.00000000000E+00 0. -1.
        -11    1    3    3    0    0  0.28898774382E+02 -0.81816364264E+01 -0.73968590920E+02  0.79833769660E+02  0.00000000000E+00 0. -1.
         11    1    3    3    0    0 -0.62920941512E+02 -0.52616677446E+02 -0.12023409400E+03  0.14554654577E+03  0.00000000000E+00 0.  1.
         -2    1    1    2    0  502  0.39747328127E+02  0.81569955840E+01  0.16383624949E+03  0.16878596896E+03  0.00000000000E+00 0.  1.
<scales pt_clust_5="13000.00000" pt_clust_6="13000.00000" pt_clust_7="13000.00000" pt_clust_8="13000.00000" pt_clust_9="40.57569"></scales>
<clustering>
<clus scale="   40.576">  1  9  2 -1</clus>
<clus scale="   89.789">  5  6 -1 -1</clus>
<clus scale="   90.706">  7  8 -1 -1</clus>
<clus scale="  110.973">  1  5  2 -1</clus>
<clus scale="   40.576">  1  5  2 -1</clus>
</clustering>
</event>
<event>
 9    1  0.1464797E-005  0.9672775E+02  0.7546771E-02  0.1287348E+00
         -1   -1    0    0    0  501 -0.00000000000E+00  0.00000000000E+00  0.61350950094E+02  0.61350950094E+02  0.00000000000E+00 0.  1.
         21   -1    0    0  501  502  0.00000000000E+00 -0.00000000000E+00 -0.43282479304E+03  0.43282479304E+03  0.00000000000E+00 0.  1.
         23    2    1    2    0    0  0.75656811387E+00  0.34626658684E+02  0.55052163805E+01  0.97332333969E+02  0.90794812305E+02 0.  0.
         23    2    1    2    0    0  0.23685712933E+02 -0.23966880451E+02 -0.28108420046E+03  0.29731009850E+03  0.90826992497E+02 0.  0.
        -13    1    4    4    0    0  0.34138582278E+02  0.25259887349E+02 -0.87057782758E+02  0.96863627062E+02  0.00000000000E+00 0.  1.
         13    1    4    4    0    0 -0.10452869345E+02 -0.49226767801E+02 -0.19402641770E+03  0.20044647144E+03  0.00000000000E+00 0. -1.
        -13    1    3    3    0    0 -0.27609299136E+02 -0.11015514819E+02 -0.21983299032E+02  0.36971345686E+02  0.00000000000E+00 0. -1.
         13    1    3    3    0    0  0.28365867250E+02  0.45642173503E+02  0.27488515413E+02  0.60360988283E+02  0.00000000000E+00 0.  1.
         -1    1    1    2    0  502 -0.24442281047E+02 -0.10659778233E+02 -0.95894858870E+02  0.99533310668E+02  0.00000000000E+00 0.  1.
<scales pt_clust_5="13000.00000" pt_clust_6="13000.00000" pt_clust_7="13000.00000" pt_clust_8="13000.00000" pt_clust_9="26.66563"></scales>
<clustering>
<clus scale="   26.666">  2  9  1 -1</clus>
<clus scale="   90.795">  7  8 -1 -1</clus>
<clus scale="   90.827">  5  6 -1 -1</clus>
<clus scale="   96.698">  1  7  2 -1</clus>
<clus scale="   26.666">  2  5  1 -1</clus>
</clustering>
</event>
<event>
 9    1  0.1464797E-005  0.1119535E+03  0.7546771E-02  0.1261405E+00
         -3   -1    0    0    0  501 -0.00000000000E+00  0.00000000000E+00  0.34023296780E+03  0.34023296780E+03  0.00000000000E+00 0.  1.
         21   -1    0    0  501  502  0.00000000000E+00 -0.00000000000E+00 -0.56079138273E+02  0.56079138273E+02  0.00000000000E+00 0. -1.
         23    2    1    2    0    0  0.39890928962E+02  0.40745697284E+02  0.19844171806E+03  0.22599513888E+03  0.91886828592E+02 0.  0.
         23    2    1    2    0    0 -0.70226824760E+02 -0.39697269645E+02  0.80774341279E+02  0.13956396167E+03  0.80286518515E+02 0.  0.
        -11    1    3    3    0    0  0.36780147479E+02  0.68666308471E+02  0.16391728604E+03  0.18148475923E+03  0.00000000000E+00 0.  1.
         11    1    3    3    0    0  0.31107814827E+01 -0.27920611188E+02  0.34524432018E+02  0.44510379652E+02  0.00000000000E+00 0. -1.
        -13    1    4    4    0    0 -0.43848180692E+02 -0.35860305547E+02  0.23060940059E+01  0.56691644301E+02  0.00000000000E+00 0. -1.
         13    1    4    4    0    0 -0.26378644068E+02 -0.38369640980E+01  0.78468247273E+02  0.82872317371E+02  0.00000000000E+00 0.  1.
         -3    1    1    2    0  502  0.30335895799E+02 -0.10484276387E+01  0.49377701893E+01  0.30753005526E+02  0.00000000000E+00 0.  1.
<scales pt_clust_5="13000.00000" pt_clust_6="13000.00000" pt_clust_7="13000.00000" pt_clust_8="13000.00000" pt_clust_9="30.35401"></scales>
<clustering>
<clus scale="   30.354">  2  9  1 -1</clus>
<clus scale="   80.287">  7  8 -1 -1</clus>
<clus scale="   91.887">  5  6 -1 -1</clus>
<clus scale="  102.647">  2  7  1 -1</clus>
<clus scale="   30.354">  2  5  1 -1</clus>
</clustering>
</event>
<event>
 9    1  0.1464797E-005  0.1523058E+03  0.7546771E-02  0.1212343E+00
         21   -1    0    0  501  502  0.00000000000E+00  0.00000000000E+00  0.13382353558E+03  0.13382353558E+03  0.00000000000E+00 0.  1.
          1   -1    0    0  502    0 -0.00000000000E+00 -0.00000000000E+00 -0.64531275733E+03  0.64531275733E+03  0.00000000000E+00 0. -1.
         23    2    1    2    0    0 -0.61972423386E+02 -0.16092784675E+02 -0.43411870198E+03  0.44809391567E+03  0.90716872041E+02 0.  0.
         23    2    1    2    0    0 -0.10335457282E+03  0.95366179781E+01  0.18866568920E+02  0.13963293067E+03  0.91478375035E+02 0.  0.
        -11    1    3    3    0    0 -0.59782283847E+02  0.28050529572E+02 -0.23307187250E+03  0.24224626193E+03  0.00000000000E+00 0.  1.
         11    1    3    3    0    0 -0.21901395381E+01 -0.44143314247E+02 -0.20104682948E+03  0.20584765374E+03  0.00000000000E+00 0. -1.
        -13    1    4    4    0    0 -0.87262218190E+02  0.41823362022E+02  0.30936999372E+02  0.10159225494E+03  0.00000000000E+00 0.  1.
         13    1    4    4    0    0 -0.16092354634E+02 -0.32286744044E+02 -0.12070430452E+02  0.38040675729E+02  0.00000000000E+00 0. -1.
          1    1    1    2  501    0  0.16532699621E+03  0.65561666973E+01 -0.96237088690E+02  0.19140944657E+03  0.00000000000E+00 0. -1.
<scales pt_clust_5="13000.00000" pt_clust_6="13000.00000" pt_clust_7="13000.00000" pt_clust_8="13000.00000" pt_clust_9="121.77345"></scales>
<clustering>
<clus scale="   90.717">  5  6 -1 -1</clus>
<clus scale="   91.478">  7  8 -1 -1</clus>
<clus scale="  111.037">  2  5  1 -1</clus>
<clus scale="  121.773">  1  9  2 -1</clus>
<clus scale="  121.773">  1  5  2 -1</clus>
</clustering>
</event>
<event>
 9    1  0.1464797E-005  0.1516920E+03  0.7546771E-02  0.1203292E+00
         21   -1    0    0  501  502  0.00000000000E+00  0.00000000000E+00  0.13916423521E+04  0.13916423521E+04  0.00000000000E+00 0.  1.
         -2   -1    0    0    0  501 -0.00000000000E+00 -0.00000000000E+00 -0.47866022718E+02  0.47866022718E+02  0.00000000000E+00 0.  1.
         23    2    1    2    0    0  0.46075692280E+01  0.15739854327E+03  0.19881438462E+03  0.26348040997E+03  0.71408933559E+02 0.  0.
         23    2    1    2    0    0 -0.56113096023E+02 -0.49323935101E+02  0.32580722084E+03  0.34817085039E+03  0.97422101157E+02 0.  0.
        -11    1    4    4    0    0 -0.80944137858E+02 -0.54111039730E+02  0.25229581142E+03  0.27043138600E+03  0.00000000000E+00 0. -1.
         11    1    4    4    0    0  0.24831041835E+02  0.47871046289E+01  0.73511409415E+02  0.77739464389E+02  0.00000000000E+00 0.  1.
        -13    1    3    3    0    0 -0.12058289525E+02  0.18621233074E+02  0.69891413980E+02  0.73327773835E+02  0.00000000000E+00 0. -1.
         13    1    3    3    0    0  0.16665858753E+02  0.13877731019E+03  0.12892297064E+03  0.19015263614E+03  0.00000000000E+00 0.  1.
         -2    1    1    2    0  502  0.51505526795E+02 -0.10807460817E+03  0.81915472396E+03  0.82785711449E+03  0.00000000000E+00 0.  1.
<scales pt_clust_5="13000.00000" pt_clust_6="13000.00000" pt_clust_7="13000.00000" pt_clust_8="13000.00000" pt_clust_9="119.72026"></scales>
<clustering>
<clus scale="   71.409">  7  8 -1 -1</clus>
<clus scale="   97.422">  5  6 -1 -1</clus>
<clus scale="  119.720">  1  9  2 -1</clus>
<clus scale="  136.450">  2  7  1 -1</clus>
<clus scale="  119.720">  1  5  2 -1</clus>
</clustering>
</event>
<event>
 9    1  0.1464797E-005  0.9678918E+02  0.7546771E-02  0.1287366E+00
         21   -1    0    0  501  502  0.00000000000E+00  0.00000000000E+00  0.14602181591E+03  0.14602181591E+03  0.00000000000E+00 0.  1.
         -4   -1    0    0    0  501 -0.00000000000E+00 -0.00000000000E+00 -0.19077660390E+03  0.19077660390E+03  0.00000000000E+00 0.  1.
         23    2    1    2    0    0  0.17789032051E+02  0.32932041616E+02 -0.12142500332E+03  0.15690746909E+03  0.92059510096E+02 0.  0.
         23    2    1    2    0    0 -0.57479474016E+01 -0.10059223357E+02 -0.66013727059E+01  0.92699718896E+02  0.91735668570E+02 0.  0.
        -11    1    3    3    0    0  0.38054507959E+02  0.45235365638E+02 -0.11925319336E+03  0.13310036817E+03  0.00000000000E+00 0.  1.
         11    1    3    3    0    0 -0.20265475908E+02 -0.12303324023E+02 -0.21718099596E+01  0.23807100921E+02  0.00000000000E+00 0. -1.
        -13    1    4    4    0    0  0.36972856398E+02 -0.12208306798E+02 -0.24854787755E+02  0.46193022627E+02  0.00000000000E+00 0.  1.
         13    1    4    4    0    0 -0.42720803799E+02  0.21490834406E+01  0.18253415049E+02  0.46506696269E+02  0.00000000000E+00 0. -1.
         -4    1    1    2    0  502 -0.12041084650E+02 -0.22872818259E+02  0.83271588030E+02  0.87191231828E+02  0.00000000000E+00 0.  1.
<scales pt_clust_5="13000.00000" pt_clust_6="13000.00000" pt_clust_7="13000.00000" pt_clust_8="13000.00000" pt_clust_9="25.84867"></scales>
<clustering>
<clus scale="   25.849">  1  9  2 -1</clus>
<clus scale="   91.736">  7  8 -1 -1</clus>
<clus scale="   92.060">  5  6 -1 -1</clus>
<clus scale="   96.481">  1  7  2 -1</clus>
<clus scale="   25.849">  1  5  2 -1</clus>
</clustering>
</event>
<event>
 9    1  0.1464797E-005  0.9872465E+02  0.7546771E-02  0.1289765E+00
         21   -1    0    0  501  502  0.00000000000E+00  0.00000000000E+00  0.63928452110E+02  0.63928452110E+02  0.00000000000E+00 0.  1.
         -4   -1    0    0    0  501 -0.00000000000E+00 -0.00000000000E+00 -0.27218567245E+03  0.27218567245E+03  0.00000000000E+00 0.  1.
         23    2    1    2    0    0  0.43168570646E+00 -0.48800796446E+02 -0.12316373949E+03  0.16301736884E+03  0.94992903586E+02 0.  0.
         23    2    1    2    0    0 -0.19963551532E+02 -0.95284367073E+01 -0.30444318825E+02  0.90814776330E+02  0.82650665788E+02 0.  0.
        -11    1    3    3    0    0 -0.24083111993E+02  0.21284263504E+02 -0.30864423173E+02  0.44560394679E+02  0.00000000000E+00 0. -1.
         11    1    3    3    0    0  0.24514797700E+02 -0.70085059950E+02 -0.92299316313E+02  0.11845697416E+03  0.00000000000E+00 0.  1.
        -11    1    4    4    0    0  0.19649493722E+02  0.25834141884E+02 -0.11771052214E+02  0.34526267691E+02  0.00000000000E+00 0. -1.
         11    1    4    4    0    0 -0.39613045254E+02 -0.35362578591E+02 -0.18673266611E+02  0.56288508639E+02  0.00000000000E+00 0.  1.
         -4    1    1    2    0  502  0.19531865825E+02  0.58329233153E+02 -0.54649162034E+02  0.82281979400E+02  0.00000000000E+00 0.  1.
<scales pt_clust_5="13000.00000" pt_clust_6="13000.00000" pt_clust_7="13000.00000" pt_clust_8="13000.00000" pt_clust_9="61.51258"></scales>
<clustering>
<clus scale="   61.513">  1  9  2 -1</clus>
<clus scale="   82.651">  7  8 -1 -1</clus>
<clus scale="   86.914">  1  7  2 -1</clus>
<clus scale="   94.993">  5  6 -1 -1</clus>
<clus scale="   61.513">  1  5  2 -1</clus>
</clustering>
</event>
<event>
 9    1  0.1464797E-005  0.1025050E+03  0.7546771E-02  0.1275949E+00
         21   -1    0    0  501  502  0.00000000000E+00  0.00000000000E+00  0.25828764706E+03  0.25828764706E+03  0.00000000000E+00 0.  1.
          4   -1    0    0  502    0 -0.00000000000E+00 -0.00000000000E+00 -0.80137279894E+02  0.80137279894E+02  0.00000000000E+00 0. -1.
         23    2    1    2    0    0 -0.31243094229E+02  0.10958995875E+02  0.71088628065E+01  0.97973861843E+02  0.91935363960E+02 0.  0.
         23    2    1    2    0    0  0.62081468036E+02 -0.31912167315E+02  0.72503281752E+02  0.13509537230E+03  0.90119579761E+02 0.  0.
        -11    1    4    4    0    0  0.56675518632E+02  0.12925586476E+02  0.11604452547E+02  0.59277723614E+02  0.00000000000E+00 0.  1.
         11    1    4    4    0    0  0.54059494039E+01 -0.44837753791E+02  0.60898829205E+02  0.75817648688E+02  0.00000000000E+00 0. -1.
        -13    1    3    3    0    0  0.20584503877E+01 -0.30600454851E+02 -0.21562205462E+02  0.37490715644E+02  0.00000000000E+00 0. -1.
         13    1    3    3    0    0 -0.33301544617E+02  0.41559450726E+02  0.28671068268E+02  0.60483146200E+02  0.00000000000E+00 0.  1.
          4    1    1    2  501    0 -0.30838373807E+02  0.20953171440E+02  0.98538222602E+02  0.10535569280E+03  0.00000000000E+00 0. -1.
<scales pt_clust_5="13000.00000" pt_clust_6="13000.00000" pt_clust_7="13000.00000" pt_clust_8="13000.00000" pt_clust_9="37.28325"></scales>
<clustering>
<clus scale="   37.283">  1  9  2 -1</clus>
<clus scale="   90.120">  5  6 -1 -1</clus>
<clus scale="   91.935">  7  8 -1 -1</clus>
<clus scale="  100.880">  1  5  2 -1</clus>
<clus scale="   37.283">  1  5  2 -1</clus>
</clustering>
</event>
<event>
 9    1  0.1464797E-005  0.1151794E+03  0.7546771E-02  0.1252347E+00
         21   -1    0    0  501  502  0.00000000000E+00  0.00000000000E+00  0.33036905374E+02  0.33036905374E+02  0.00000000000E+00 0.  1.
          1   -1    0    0  502    0 -0.00000000000E+00 -0.00000000000E+00 -0.79198442566E+03  0.79198442566E+03  0.00000000000E+00 0. -1.
         23    2    1    2    0    0  0.24366813614E+01  0.57751771616E+02 -0.38365033208E+03  0.39933542288E+03  0.94551563322E+02 0.  0.
         23    2    1    2    0    0 -0.41223076089E+02 -0.69222671791E+02 -0.36371014270E+03  0.38361185926E+03  0.91552555216E+02 0.  0.
        -11    1    4    4    0    0 -0.17904151592E+02 -0.89319608023E+02 -0.26591299888E+03  0.28108410484E+03  0.00000000000E+00 0. -1.
         11    1    4    4    0    0 -0.23318924497E+02  0.20096936233E+02 -0.97797143823E+02  0.10252775442E+03  0.00000000000E+00 0.  1.
        -13    1    3    3    0    0 -0.38455932107E+02  0.14020960932E+02 -0.80271827068E+02  0.90105561873E+02  0.00000000000E+00 0.  1.
         13    1    3    3    0    0  0.40892613468E+02  0.43730810685E+02 -0.30337850501E+03  0.30922986101E+03  0.00000000000E+00 0. -1.
          1    1    1    2  501    0  0.38786394728E+02  0.11470900174E+02 -0.11587045509E+02  0.42074048895E+02  0.00000000000E+00 0. -1.
<scales pt_clust_5="13000.00000" pt_clust_6="13000.00000" pt_clust_7="13000.00000" pt_clust_8="13000.00000" pt_clust_9="40.44708"></scales>
<clustering>
<clus scale="   40.447">  1  9  2 -1</clus>
<clus scale="   91.553">  5  6 -1 -1</clus>
<clus scale="   94.552">  7  8 -1 -1</clus>
<clus scale="  112.731">  1  5  2 -1</clus>
<clus scale="   40.447">  1  5  2 -1</clus>
</clustering>
</event>
<event>
 9    1  0.1464797E-005  0.1036557E+03  0.7546771E-02  0.1274425E+00
         -3   -1    0    0    0  501 -0.00000000000E+00  0.00000000000E+00  0.10390558442E+03  0.10390558442E+03  0.00000000000E+00 0.  1.
         21   -1    0    0  501  502  0.00000000000E+00 -0.00000000000E+00 -0.21886504800E+03  0.21886504800E+03  0.00000000000E+00 0.  1.
         23    2    1    2    0    0  0.27783325657E+02  0.13887196669E+02  0.60110234759E+01  0.94315038905E+02  0.88850586631E+02 0.  0.
         23    2    1    2    0    0 -0.61803715246E+02 -0.35684718494E+02 -0.18431378949E+02  0.11824312799E+03  0.92458765056E+02 0.  0.
        -13    1    3    3    0    0  0.39215352516E+02  0.37830829812E+02 -0.19143407404E+02  0.57753663124E+02  0.00000000000E+00 0.  1.
         13    1    3    3    0    0 -0.11432026859E+02 -0.23943633143E+02  0.25154430880E+02  0.36561375782E+02  0.00000000000E+00 0. -1.
        -13    1    4    4    0    0 -0.84809516057E+02 -0.38322922570E+02 -0.19398749481E+02  0.95066355193E+02  0.00000000000E+00 0.  1.
         13    1    4    4    0    0  0.23005800812E+02  0.26382040762E+01  0.96737053202E+00  0.23176772801E+02  0.00000000000E+00 0. -1.
         -3    1    1    2    0  502  0.34020389589E+02  0.21797521825E+02 -0.10253910810E+03  0.11021246552E+03  0.00000000000E+00 0.  1.
<scales pt_clust_5="13000.00000" pt_clust_6="13000.00000" pt_clust_7="13000.00000" pt_clust_8="13000.00000" pt_clust_9="40.40444"></scales>
<clustering>
<clus scale="   40.404">  2  9  1 -1</clus>
<clus scale="   88.851">  5  6 -1 -1</clus>
<clus scale="   92.459">  7  8 -1 -1</clus>
<clus scale="  100.450">  1  5  2 -1</clus>
<clus scale="   40.404">  2  5  1 -1</clus>
</clustering>
</event>
<event>
 9    1  0.1464797E-005  0.1790680E+03  0.7546771E-02  0.1199108E+00
          3   -1    0    0  502    0 -0.00000000000E+00  0.00000000000E+00  0.14333916092E+03  0.14333916092E+03  0.00000000000E+00 0. -1.
         21   -1    0    0  501  502  0.00000000000E+00 -0.00000000000E+00 -0.36302800318E+03  0.36302800318E+03  0.00000000000E+00 0. -1.
         23    2    1    2    0    0  0.68165159748E+01  0.20567503186E+01 -0.22789218748E+00  0.90822060722E+02  0.90542253490E+02 0.  0.
         23    2    1    2    0    0  0.66897834173E+02 -0.13836947430E+03 -0.18416321372E+03  0.25660834134E+03  0.91160956131E+02 0.  0.
        -13    1    4    4    0    0  0.41614453945E+02 -0.42513449878E+02 -0.16342858018E+02  0.61694774543E+02  0.00000000000E+00 0.  1.
         13    1    4    4    0    0  0.25283380228E+02 -0.95856024419E+02 -0.16782035570E+03  0.19491356680E+03  0.00000000000E+00 0. -1.
        -13    1    3    3    0    0 -0.37744356650E+02 -0.17745364180E+02  0.38736757190E+01  0.41887226841E+02  0.00000000000E+00 0.  1.
         13    1    3    3    0    0  0.44560872625E+02  0.19802114498E+02 -0.41015679064E+01  0.48934833881E+02  0.00000000000E+00 0. -1.
          3    1    1    2  501    0 -0.73714350148E+02  0.13631272398E+03 -0.35297736351E+02  0.15893676204E+03  0.00000000000E+00 0. -1.
<scales pt_clust_5="13000.00000" pt_clust_6="13000.00000" pt_clust_7="13000.00000" pt_clust_8="13000.00000" pt_clust_9="154.12670"></scales>
<clustering>
<clus scale="   90.542">  7  8 -1 -1</clus>
<clus scale="   90.822">  1  7  2 -1</clus>
<clus scale="   91.161">  5  6 -1 -1</clus>
<clus scale="  154.127">  2  9  1 -1</clus>
<clus scale="  154.127">  2  5  1 -1</clus>
</clustering>
</event>
<event>
 9    1  0.1464797E-005  0.1022632E+03  0.7546771E-02  0.1276869E+00
         21   -1    0    0  501  502  0.00000000000E+00  0.00000000000E+00  0.28141863858E+03  0.28141863858E+03  0.00000000000E+00 0. -1.
         -1   -1    0    0    0  501 -0.00000000000E+00 -0.00000000000E+00 -0.49476493513E+02  0.49476493513E+02  0.00000000000E+00 0.  1.
         23    2    1    2    0    0 -0.19689715960E+01  0.28281524294E+02  0.88989841507E+02  0.13012330228E+03  0.90604417334E+02 0.  0.
         23    2    1    2    0    0 -0.59705637315E+01 -0.57308733789E+02  0.10050925646E+03  0.14874272872E+03  0.93286387617E+02 0.  0.
        -11    1    4    4    0    0  0.13857344932E+02 -0.31078200016E+02 -0.83405484346E+01  0.35034915056E+02  0.00000000000E+00 0.  1.
         11    1    4    4    0    0 -0.19827908663E+02 -0.26230533773E+02  0.10884980489E+03  0.11370781367E+03  0.00000000000E+00 0. -1.
        -13    1    3    3    0    0 -0.28369487696E+02 -0.23085773586E+02  0.27477728807E+02  0.45747200510E+02  0.00000000000E+00 0. -1.
         13    1    3    3    0    0  0.26400516099E+02  0.51367297879E+02  0.61512112700E+02  0.84376101774E+02  0.00000000000E+00 0.  1.
         -1    1    1    2    0  502  0.79395353276E+01  0.29027209495E+02  0.42443047101E+02  0.52029101083E+02  0.00000000000E+00 0.  1.
<scales pt_clust_5="13000.00000" pt_clust_6="13000.00000" pt_clust_7="13000.00000" pt_clust_8="13000.00000" pt_clust_9="30.09344"></scales>
<clustering>
<clus scale="   30.093">  1  9  2 -1</clus>
<clus scale="   90.604">  7  8 -1 -1</clus>
<clus scale="   93.286">  5  6 -1 -1</clus>
<clus scale="   99.823">  2  7  1 -1</clus>
<clus scale="   30.093">  1  5  2 -1</clus>
</clustering>
</event>
<event>
 9    1  0.1464797E-005  0.1731303E+03  0.7546771E-02  0.1175190E+00
          1   -1    0    0  502    0 -0.00000000000E+00  0.00000000000E+00  0.60425146890E+03  0.60425146890E+03  0.00000000000E+00 0. -1.
         21   -1    0    0  501  502  0.00000000000E+00 -0.00000000000E+00 -0.34706471996E+03  0.34706471996E+03  0.00000000000E+00 0. -1.
         23    2    1    2    0    0  0.11826909987E+03  0.69120554042E+02  0.46708086310E+03  0.49502361755E+03  0.90103375564E+02 0.  0.
         23    2    1    2    0    0 -0.17741383615E+03 -0.14701728236E+03 -0.28961663288E+02  0.25061672952E+03  0.94234901204E+02 0.  0.
        -13    1    4    4    0    0 -0.42394883165E+02 -0.16169254967E+02  0.29019687495E+02  0.53860126133E+02  0.00000000000E+00 0. -1.
         13    1    4    4    0    0 -0.13501895299E+03 -0.13084802739E+03 -0.57981350783E+02  0.19675660339E+03  0.00000000000E+00 0.  1.
        -13    1    3    3    0    0  0.30116185582E+02  0.68764161201E+02  0.23839304205E+03  0.24993346514E+03  0.00000000000E+00 0.  1.
         13    1    3    3    0    0  0.88152914292E+02  0.35639284062E+00  0.22868782105E+03  0.24509015241E+03  0.00000000000E+00 0. -1.
          1    1    1    2  501    0  0.59144736280E+02  0.77896728318E+02 -0.18093245087E+03  0.20567584177E+03  0.00000000000E+00 0. -1.
<scales pt_clust_5="13000.00000" pt_clust_6="13000.00000" pt_clust_7="13000.00000" pt_clust_8="13000.00000" pt_clust_9="97.80593"></scales>
<clustering>
<clus scale="   90.103">  7  8 -1 -1</clus>
<clus scale="   94.235">  5  6 -1 -1</clus>
<clus scale="   97.806">  2  9  1 -1</clus>
<clus scale="  170.917">  1  7  2 -1</clus>
<clus scale="   97.806">  2  5  1 -1</clus>
</clustering>
</event>
<event>
 9    1  0.1464797E-005  0.1870156E+03  0.7546771E-02  0.1161349E+00
          1   -1    0    0  502    0 -0.00000000000E+00  0.00000000000E+00  0.67727441678E+03  0.67727441678E+03  0.00000000000E+00 0. -1.
         21   -1    0    0  501  502  0.00000000000E+00 -0.00000000000E+00 -0.80410263500E+02  0.80410263500E+02  0.00000000000E+00 0.  1.
         23    2    1    2    0    0  0.85860203725E+02  0.14469213142E+03  0.50041433662E+03  0.53557594112E+03  0.90107119242E+02 0.  0.
         23    2    1    2    0    0 -0.79296716676E+02 -0.12520463596E+03  0.10052246139E+03  0.20114619454E+03  0.91601616760E+02 0.  0.
        -11    1    3    3    0    0  0.92899911099E+02  0.10576307238E+03  0.44993254406E+03  0.47143983197E+03  0.00000000000E+00 0. -1.
         11    1    3    3    0    0 -0.70397073741E+01  0.38929059039E+02  0.50481792555E+02  0.64136109152E+02  0.00000000000E+00 0.  1.
        -13    1    4    4    0    0 -0.53400417240E+02 -0.64801764307E+02  0.36042264734E+01  0.84046794509E+02  0.00000000000E+00 0.  1.
         13    1    4    4    0    0 -0.25896299436E+02 -0.60402871650E+02  0.96918234920E+02  0.11709940003E+03  0.00000000000E+00 0. -1.
          1    1    1    2  501    0 -0.65634870490E+01 -0.19487495465E+02 -0.40726447292E+01  0.20962544617E+02  0.00000000000E+00 0. -1.
<scales pt_clust_5="13000.00000" pt_clust_6="13000.00000" pt_clust_7="13000.00000" pt_clust_8="13000.00000" pt_clust_9="20.56312"></scales>
<clustering>
<clus scale="   20.563">  2  9  1 -1</clus>
<clus scale="   90.107">  5  6 -1 -1</clus>
<clus scale="   91.602">  7  8 -1 -1</clus>
<clus scale="  186.288">  1  5  2 -1</clus>
<clus scale="   20.563">  2  5  1 -1</clus>
</clustering>
</event>
<event>
 9    1  0.1464797E-005  0.1044692E+03  0.7546771E-02  0.1271637E+00
         21   -1    0    0  501  502  0.00000000000E+00  0.00000000000E+00  0.10519944234E+03  0.10519944234E+03  0.00000000000E+00 0. -1.
          2   -1    0    0  502    0 -0.00000000000E+00 -0.00000000000E+00 -0.76439437280E+03  0.76439437280E+03  0.00000000000E+00 0. -1.
         23    2    1    2    0    0  0.17971156853E+02  0.30359523471E+02 -0.41335664961E+03  0.42459243212E+03  0.90389991120E+02 0.  0.
         23    2    1    2    0    0 -0.37237505633E+02 -0.79760612458E+02 -0.32577633989E+03  0.34907561446E+03  0.89303828884E+02 0.  0.
        -11    1    4    4    0    0 -0.39474138210E+02 -0.36284933538E+02 -0.28303139440E+03  0.28806522561E+03  0.00000000000E+00 0. -1.
         11    1    4    4    0    0  0.22366325769E+01 -0.43475678920E+02 -0.42744945491E+02  0.61010388852E+02  0.00000000000E+00 0.  1.
        -13    1    3    3    0    0 -0.33446786917E+02  0.25107353320E+02 -0.24282952484E+03  0.24640463648E+03  0.00000000000E+00 0.  1.
         13    1    3    3    0    0  0.51417943770E+02  0.52521701509E+01 -0.17052712477E+03  0.17818779564E+03  0.00000000000E+00 0. -1.
          2    1    1    2  501    0  0.19266348780E+02  0.49401088988E+02  0.79938059050E+02  0.95925768557E+02  0.00000000000E+00 0. -1.
<scales pt_clust_5="13000.00000" pt_clust_6="13000.00000" pt_clust_7="13000.00000" pt_clust_8="13000.00000" pt_clust_9="53.02509"></scales>
<clustering>
<clus scale="   53.025">  1  9  2 -1</clus>
<clus scale="   89.304">  5  6 -1 -1</clus>
<clus scale="   90.390">  7  8 -1 -1</clus>
<clus scale="  103.531">  1  5  2 -1</clus>
<clus scale="   53.025">  1  5  2 -1</clus>
</clustering>
</event>
<event>
 9    1  0.1464797E-005  0.1933490E+03  0.7546771E-02  0.1155526E+00
         21   -1    0    0  501  502  0.00000000000E+00  0.00000000000E+00  0.20863909670E+03  0.20863909670E+03  0.00000000000E+00 0.  1.
          3   -1    0    0  502    0 -0.00000000000E+00 -0.00000000000E+00 -0.26204774769E+03  0.26204774769E+03  0.00000000000E+00 0. -1.
         23    2    1    2    0    0  0.81105070955E+02  0.15068159898E+03 -0.12916234519E+03  0.23308613147E+03  0.91450841793E+02 0.  0.
         23    2    1    2    0    0 -0.62222175045E+02 -0.15758661724E+03  0.39750225652E+02  0.19636368123E+03  0.90958638216E+02 0.  0.
        -13    1    4    4    0    0 -0.41607014086E+02 -0.10294181216E+03 -0.19990341477E+02  0.11281743688E+03  0.00000000000E+00 0.  1.
         13    1    4    4    0    0 -0.20615160959E+02 -0.54644805074E+02  0.59740567130E+02  0.83546244344E+02  0.00000000000E+00 0. -1.
        -13    1    3    3    0    0  0.24496958425E+02  0.71366879874E+02 -0.11060497610E+03  0.13389097525E+03  0.00000000000E+00 0. -1.
         13    1    3    3    0    0  0.56608112529E+02  0.79314719106E+02 -0.18557369092E+02  0.99195156226E+02  0.00000000000E+00 0.  1.
          3    1    1    2  501    0 -0.18882895910E+02  0.69050182588E+01  0.36003468543E+02  0.41237031685E+02  0.00000000000E+00 0. -1.
<scales pt_clust_5="13000.00000" pt_clust_6="13000.00000" pt_clust_7="13000.00000" pt_clust_8="13000.00000" pt_clust_9="20.10580"></scales>
<clustering>
<clus scale="   20.106">  1  9  2 -1</clus>
<clus scale="   90.959">  5  6 -1 -1</clus>
<clus scale="   91.451">  7  8 -1 -1</clus>
<clus scale="  193.117">  1  5  2 -1</clus>
<clus scale="   20.106">  1  5  2 -1</clus>
</clustering>
</event>
<event>
 9    1  0.1464797E-005  0.1285735E+03  0.7546771E-02  0.1229892E+00
          1   -1    0    0  502    0 -0.00000000000E+00  0.00000000000E+00  0.41804289639E+03  0.41804289639E+03  0.00000000000E+00 0. -1.
         21   -1    0    0  501  502  0.00000000000E+00 -0.00000000000E+00 -0.79518095643E+02  0.79518095643E+02  0.00000000000E+00 0. -1.
         23    2    1    2    0    0 -0.54823991988E+02  0.70703889892E+02  0.24679911613E+03  0.27796386125E+03  0.91375020078E+02 0.  0.
         23    2    1    2    0    0  0.72357067131E+02 -0.59483226201E+02  0.12497007274E+03  0.18037339615E+03  0.90239922404E+02 0.  0.
        -11    1    3    3    0    0 -0.21490152173E+02  0.80352353120E+02  0.11664744250E+03  0.14326532426E+03  0.00000000000E+00 0. -1.
         11    1    3    3    0    0 -0.33333839815E+02 -0.96484632278E+01  0.13015167363E+03  0.13469853699E+03  0.00000000000E+00 0.  1.
        -13    1    4    4    0    0  0.92240111581E+02 -0.51670214739E+02  0.87486573146E+02  0.13722955132E+03  0.00000000000E+00 0. -1.
         13    1    4    4    0    0 -0.19883044451E+02 -0.78130114622E+01  0.37483499589E+02  0.43143844824E+02  0.00000000000E+00 0.  1.
          1    1    1    2  501    0 -0.17533075142E+02 -0.11220663691E+02 -0.33244388117E+02  0.39223734637E+02  0.00000000000E+00 0. -1.
<scales pt_clust_5="13000.00000" pt_clust_6="13000.00000" pt_clust_7="13000.00000" pt_clust_8="13000.00000" pt_clust_9="20.81615"></scales>
<clustering>
<clus scale="   20.816">  2  9  1 -1</clus>
<clus scale="   90.240">  7  8 -1 -1</clus>
<clus scale="   91.375">  5  6 -1 -1</clus>
<clus scale="  127.769">  2  7  1 -1</clus>
<clus scale="   20.816">  2  5  1 -1</clus>
</clustering>
</event>
<event>
 9    1  0.1464797E-005  0.1725835E+03  0.7546771E-02  0.1198665E+00
         21   -1    0    0  501  502  0.00000000000E+00  0.00000000000E+00  0.30532975748E+03  0.30532975748E+03  0.00000000000E+00 0. -1.
          1   -1    0    0  502    0 -0.00000000000E+00 -0.00000000000E+00 -0.25673410680E+03  0.25673410680E+03  0.00000000000E+00 0. -1.
         23    2    1    2    0    0  0.70164962611E+01  0.42731083068E+02 -0.13969861407E+03  0.17322762250E+03  0.92827419139E+02 0.  0.
         23    2    1    2    0    0 -0.76123138791E+02 -0.15781159814E+03  0.69136050492E+02  0.20934269590E+03  0.91352821952E+02 0.  0.
        -11    1    4    4    0    0  0.21713554972E+01 -0.92900534424E+02  0.51112158015E+02  0.10605506484E+03  0.00000000000E+00 0. -1.
         11    1    4    4    0    0 -0.78294494288E+02 -0.64911063721E+02  0.18023892476E+02  0.10328763106E+03  0.00000000000E+00 0.  1.
        -13    1    3    3    0    0 -0.92433166290E+01 -0.23289996059E+02 -0.76125074350E+02  0.80142933335E+02  0.00000000000E+00 0.  1.
         13    1    3    3    0    0  0.16259812890E+02  0.66021079127E+02 -0.63573539718E+02  0.93084689163E+02  0.00000000000E+00 0. -1.
          1    1    1    2  501    0  0.69106642530E+02  0.11508051508E+03  0.11915821426E+03  0.17949354589E+03  0.00000000000E+00 0. -1.
<scales pt_clust_5="13000.00000" pt_clust_6="13000.00000" pt_clust_7="13000.00000" pt_clust_8="13000.00000" pt_clust_9="146.42314"></scales>
<clustering>
<clus scale="   91.353">  5  6 -1 -1</clus>
<clus scale="   92.827">  7  8 -1 -1</clus>
<clus scale="  102.431">  2  7  1 -1</clus>
<clus scale="  146.423">  1  9  2 -1</clus>
<clus scale="  146.423">  1  5  2 -1</clus>
</clustering>
</event>
<event>
 9    1  0.1464797E-005  0.1024340E+03  0.7546771E-02  0.1277331E+00
         21   -1    0    0  501  502  0.00000000000E+00  0.00000000000E+00  0.54936296586E+02  0.54936296586E+02  0.00000000000E+00 0.  1.
          4   -1    0    0  502    0 -0.00000000000E+00 -0.00000000000E+00 -0.23455048958E+03  0.23455048958E+03  0.00000000000E+00 0. -1.
         23    2    1    2    0    0 -0.58764686396E+01  0.53583421480E+02 -0.10126142597E+03  0.14690255995E+03  0.91764752431E+02 0.  0.
         23    2    1    2    0    0 -0.99739066768E+01 -0.36875544663E+02 -0.69367918664E+02  0.11786348502E+03  0.87296095861E+02 0.  0.
        -13    1    3    3    0    0 -0.31940632793E+02  0.52715364233E+02 -0.25367410311E+02  0.66652975592E+02  0.00000000000E+00 0.  1.
         13    1    3    3    0    0  0.26064164153E+02  0.86805724778E+00 -0.75894015663E+02  0.80249584359E+02  0.00000000000E+00 0. -1.
        -13    1    4    4    0    0 -0.47928578481E+02 -0.11322699370E+02 -0.31393972536E+02  0.58403199123E+02  0.00000000000E+00 0.  1.
         13    1    4    4    0    0  0.37954671804E+02 -0.25552845293E+02 -0.37973946129E+02  0.59460285896E+02  0.00000000000E+00 0. -1.
          4    1    1    2  501    0  0.15850375316E+02 -0.16707876817E+02 -0.89848483605E+01  0.24720741200E+02  0.00000000000E+00 0. -1.
<scales pt_clust_5="13000.00000" pt_clust_6="13000.00000" pt_clust_7="13000.00000" pt_clust_8="13000.00000" pt_clust_9="23.03014"></scales>
<clustering>
<clus scale="   23.030">  1  9  2 -1</clus>
<clus scale="   87.296">  7  8 -1 -1</clus>
<clus scale="   91.765">  5  6 -1 -1</clus>
<clus scale="   98.451">  1  7  2 -1</clus>
<clus scale="   23.030">  1  5  2 -1</clus>
</clustering>
</event>
<event>
 9    1  0.1464797E-005  0.1165396E+03  0.7546771E-02  0.1252489E+00
         21   -1    0    0  501  502  0.00000000000E+00  0.00000000000E+00  0.34201420620E+03  0.34201420620E+03  0.00000000000E+00 0.  1.
          3   -1    0    0  502    0 -0.00000000000E+00 -0.00000000000E+00 -0.55477717685E+02  0.55477717685E+02  0.00000000000E+00 0. -1.
         23    2    1    2    0    0  0.80490592986E+02 -0.15643152956E+01  0.64805196570E+02  0.13071013969E+03  0.80026523565E+02 0.  0.
         23    2    1    2    0    0 -0.56062643246E+02  0.20121696310E+02  0.20482627359E+03  0.23175492644E+03  0.90601550456E+02 0.  0.
        -11    1    4    4    0    0 -0.36081893918E+02  0.51063285730E+02  0.79575834111E+02  0.10120116399E+03  0.00000000000E+00 0. -1.
         11    1    4    4    0    0 -0.19980749327E+02 -0.30941589421E+02  0.12525043948E+03  0.13055376245E+03  0.00000000000E+00 0.  1.
        -11    1    3    3    0    0  0.35161554093E+02 -0.37941322845E+02  0.14191308669E+02  0.53640209798E+02  0.00000000000E+00 0.  1.
         11    1    3    3    0    0  0.45329038893E+02  0.36377007549E+02  0.50613887901E+02  0.77069929893E+02  0.00000000000E+00 0. -1.
          3    1    1    2  501    0 -0.24427949741E+02 -0.18557381014E+02  0.16905018349E+02  0.35026857753E+02  0.00000000000E+00 0. -1.
<scales pt_clust_5="13000.00000" pt_clust_6="13000.00000" pt_clust_7="13000.00000" pt_clust_8="13000.00000" pt_clust_9="30.67739"></scales>
<clustering>
<clus scale="   30.677">  1  9  2 -1</clus>
<clus scale="   80.027">  7  8 -1 -1</clus>
<clus scale="   90.602">  5  6 -1 -1</clus>
<clus scale="  108.522">  2  7  1 -1</clus>
<clus scale="   30.677">  1  5  2 -1</clus>
</clustering>
</event>
<event>
 9    1  0.1464797E-005  0.9635687E+02  0.7546771E-02  0.1290509E+00
         21   -1    0    0  501  502  0.00000000000E+00  0.00000000000E+00  0.78214133740E+02  0.78214133740E+02  0.00000000000E+00 0. -1.
          1   -1    0    0  502    0 -0.00000000000E+00 -0.00000000000E+00 -0.21335747974E+03  0.21335747974E+03  0.00000000000E+00 0. -1.
         23    2    1    2    0    0 -0.21008792590E+02 -0.10274650782E+02 -0.93871983020E+02  0.13312935992E+03  0.91457856205E+02 0.  0.
         23    2    1    2    0    0 -0.29794872559E+02  0.12841733917E+02 -0.36276917846E+02  0.10732917509E+03  0.95660297385E+02 0.  0.
        -13    1    4    4    0    0 -0.59452143658E+02 -0.13874603395E+02 -0.23524041276E+02  0.65425090928E+02  0.00000000000E+00 0.  1.
         13    1    4    4    0    0  0.29657271100E+02  0.26716337312E+02 -0.12752876570E+02  0.41904084160E+02  0.00000000000E+00 0. -1.
        -13    1    3    3    0    0  0.24769555749E+02 -0.58210293661E+01  0.32653896494E+01  0.25653031877E+02  0.00000000000E+00 0.  1.
         13    1    3    3    0    0 -0.45778348340E+02 -0.44536214155E+01 -0.97137372670E+02  0.10747632804E+03  0.00000000000E+00 0. -1.
          1    1    1    2  501    0  0.50803665149E+02 -0.25670831355E+01 -0.49944451295E+01  0.51113078469E+02  0.00000000000E+00 0. -1.
<scales pt_clust_5="13000.00000" pt_clust_6="13000.00000" pt_clust_7="13000.00000" pt_clust_8="13000.00000" pt_clust_9="50.86848"></scales>
<clustering>
<clus scale="   50.868">  1  9  2 -1</clus>
<clus scale="   91.458">  7  8 -1 -1</clus>
<clus scale="   92.186">  2  7  1 -1</clus>
<clus scale="   95.660">  5  6 -1 -1</clus>
<clus scale="   50.868">  1  5  2 -1</clus>
</clustering>
</event>
<event>
 9    1  0.1464797E-005  0.1008912E+03  0.7546771E-02  0.1278942E+00
         21   -1    0    0  501  502  0.00000000000E+00  0.00000000000E+00  0.68911898450E+02  0.68911898450E+02  0.00000000000E+00 0. -1.
         -1   -1    0    0    0  501 -0.00000000000E+00 -0.00000000000E+00 -0.39535560771E+03  0.39535560771E+03  0.00000000000E+00 0.  1.
         23    2    1    2    0    0 -0.40634216142E+02 -0.67378980142E+01 -0.31930801004E+03  0.33482013878E+03  0.91925955338E+02 0.  0.
         23    2    1    2    0    0  0.46523455177E+02 -0.12924372064E+02  0.90807801370E+01  0.10328896139E+03  0.90855256883E+02 0.  0.
        -11    1    4    4    0    0  0.27375057689E+02 -0.50820917788E+02 -0.64369908609E+01  0.58082650763E+02  0.00000000000E+00 0. -1.
         11    1    4    4    0    0  0.19148397488E+02  0.37896545724E+02  0.15517770998E+02  0.45206310632E+02  0.00000000000E+00 0.  1.
        -11    1    3    3    0    0 -0.59399464676E+02  0.24519397067E+02 -0.20632070019E+03  0.21609657231E+03  0.00000000000E+00 0.  1.
         11    1    3    3    0    0  0.18765248534E+02 -0.31257295081E+02 -0.11298730985E+03  0.11872356647E+03  0.00000000000E+00 0. -1.
         -1    1    1    2    0  502 -0.58892390351E+01  0.19662270078E+02 -0.16216479358E+02  0.26158405987E+02  0.00000000000E+00 0.  1.
<scales pt_clust_5="13000.00000" pt_clust_6="13000.00000" pt_clust_7="13000.00000" pt_clust_8="13000.00000" pt_clust_9="20.52530"></scales>
<clustering>
<clus scale="   20.525">  1  9  2 -1</clus>
<clus scale="   90.855">  5  6 -1 -1</clus>
<clus scale="   91.926">  7  8 -1 -1</clus>
<clus scale="   99.917">  1  5  2 -1</clus>
<clus scale="   20.525">  1  5  2 -1</clus>
</clustering>
</event>
<event>
 9    1  0.1464797E-005  0.1440022E+03  0.7546771E-02  0.1209597E+00
          2   -1    0    0  502    0 -0.00000000000E+00  0.00000000000E+00  0.34156683832E+03  0.34156683832E+03  0.00000000000E+00 0. -1.
         21   -1    0    0  501  502  0.00000000000E+00 -0.00000000000E+00 -0.39434499290E+03  0.39434499290E+03  0.00000000000E+00 0. -1.
         23    2    1    2    0    0 -0.37334813188E+02  0.66415472534E+02  0.88096638490E+02  0.14753494562E+03  0.90557380689E+02 0.  0.
         23    2    1    2    0    0  0.13170914961E+03 -0.75421298311E+02  0.17933698758E+03  0.25442598391E+03  0.97648112350E+02 0.  0.
        -11    1    3    3    0    0 -0.49724694584E+02  0.12371183714E+02  0.10730727431E+02  0.52352076837E+02  0.00000000000E+00 0.  1.
         11    1    3    3    0    0  0.12389881396E+02  0.54044288821E+02  0.77365911060E+02  0.95182868780E+02  0.00000000000E+00 0. -1.
        -13    1    4    4    0    0  0.99139726777E+00 -0.41088507732E+02  0.67380100927E+02  0.78926081476E+02  0.00000000000E+00 0.  1.
         13    1    4    4    0    0  0.13071775234E+03 -0.34332790578E+02  0.11195688665E+03  0.17549990243E+03  0.00000000000E+00 0. -1.
          2    1    1    2  501    0 -0.94374336419E+02  0.90058257762E+01 -0.32021178065E+03  0.33395090169E+03  0.00000000000E+00 0. -1.
<scales pt_clust_5="13000.00000" pt_clust_6="13000.00000" pt_clust_7="13000.00000" pt_clust_8="13000.00000" pt_clust_9="94.80306"></scales>
<clustering>
<clus scale="   90.557">  5  6 -1 -1</clus>
<clus scale="   94.803">  2  9  1 -1</clus>
<clus scale="   97.648">  7  8 -1 -1</clus>
<clus scale="  139.292">  1  5  2 -1</clus>
<clus scale="   94.803">  2  5  1 -1</clus>
</clustering>
</event>
<event>
 9    1  0.1464797E-005  0.9559671E+02  0.7546771E-02  0.1291009E+00
         21   -1    0    0  501  502  0.00000000000E+00  0.00000000000E+00  0.26118614561E+03  0.26118614561E+03  0.00000000000E+00 0. -1.
         -4   -1    0    0    0  501 -0.00000000000E+00 -0.00000000000E+00 -0.41260434225E+03  0.41260434225E+03  0.00000000000E+00 0.  1.
         23    2    1    2    0    0  0.10660017454E+02 -0.16578612721E+02 -0.38690550983E+03  0.39800746152E+03  0.91244613624E+02 0.  0.
         23    2    1    2    0    0 -0.43993016985E+01  0.51624040229E+02  0.16051873255E+03  0.19279105904E+03  0.93368804017E+02 0.  0.
        -11    1    4    4    0    0 -0.30856554147E+02 -0.13530439006E+02  0.73919686884E+02  0.81236197736E+02  0.00000000000E+00 0.  1.
         11    1    4    4    0    0  0.26457252449E+02  0.65154479235E+02  0.86599045662E+02  0.11155486131E+03  0.00000000000E+00 0. -1.
        -13    1    3    3    0    0 -0.15687474778E+02  0.33141030262E+02 -0.17130081833E+03  0.17518103525E+03  0.00000000000E+00 0. -1.
         13    1    3    3    0    0  0.26347492232E+02 -0.49719642983E+02 -0.21560469151E+03  0.22282642627E+03  0.00000000000E+00 0.  1.
         -4    1    1    2    0  502 -0.62607157557E+01 -0.35045427508E+02  0.74968580649E+02  0.82991967296E+02  0.00000000000E+00 0.  1.
<scales pt_clust_5="13000.00000" pt_clust_6="13000.00000" pt_clust_7="13000.00000" pt_clust_8="13000.00000" pt_clust_9="35.60026"></scales>
<clustering>
<clus scale="   35.600">  1  9  2 -1</clus>
<clus scale="   91.245">  7  8 -1 -1</clus>
<clus scale="   93.369">  5  6 -1 -1</clus>
<clus scale="   93.523">  2  7  1 -1</clus>
<clus scale="   35.600">  1  5  2 -1</clus>
</clustering>
</event>
<event>
 9    1  0.1464797E-005  0.1957083E+03  0.7546771E-02  0.1153452E+00
         21   -1    0    0  501  502  0.00000000000E+00  0.00000000000E+00  0.11814297567E+03  0.11814297567E+03  0.00000000000E+00 0. -1.
          1   -1    0    0  502    0 -0.00000000000E+00 -0.00000000000E+00 -0.74049231206E+03  0.74049231206E+03  0.00000000000E+00 0. -1.
         23    2    1    2    0    0 -0.31086758670E+02  0.18114908757E+03 -0.48628304189E+03  0.52780515180E+03  0.91245290008E+02 0.  0.
         23    2    1    2    0    0  0.28078848434E+02 -0.15255439999E+03 -0.19502578631E+03  0.26523344885E+03  0.90843042543E+02 0.  0.
        -11    1    4    4    0    0  0.34878250332E+02 -0.16112935784E+02 -0.70962211779E+02  0.80695443157E+02  0.00000000000E+00 0.  1.
         11    1    4    4    0    0 -0.67994018977E+01 -0.13644146420E+03 -0.12406357453E+03  0.18453800569E+03  0.00000000000E+00 0. -1.
        -11    1    3    3    0    0 -0.10519444549E+02  0.62929645362E+02 -0.70643336010E+02  0.95190755337E+02  0.00000000000E+00 0.  1.
         11    1    3    3    0    0 -0.20567314122E+02  0.11821944220E+03 -0.41563970588E+03  0.43261439646E+03  0.00000000000E+00 0. -1.
          1    1    1    2  501    0  0.30079102362E+01 -0.28594687580E+02  0.58959491805E+02  0.65596687079E+02  0.00000000000E+00 0. -1.
<scales pt_clust_5="13000.00000" pt_clust_6="13000.00000" pt_clust_7="13000.00000" pt_clust_8="13000.00000" pt_clust_9="28.75246"></scales>
<clustering>
<clus scale="   28.752">  1  9  2 -1</clus>
<clus scale="   90.843">  5  6 -1 -1</clus>
<clus scale="   91.245">  7  8 -1 -1</clus>
<clus scale="  195.521">  1  5  2 -1</clus>
<clus scale="   28.752">  1  5  2 -1</clus>
</clustering>
</event>
<event>
 9    1  0.1464797E-005  0.1271094E+03  0.7546771E-02  0.1232730E+00
         21   -1    0    0  501  502  0.00000000000E+00  0.00000000000E+00  0.62290023804E+02  0.62290023804E+02  0.00000000000E+00 0. -1.
          1   -1    0    0  502    0 -0.00000000000E+00 -0.00000000000E+00 -0.45578430270E+03  0.45578430270E+03  0.00000000000E+00 0. -1.
         23    2    1    2    0    0 -0.10072689071E+03  0.37707280895E+02 -0.25763067674E+03  0.29529035160E+03  0.96203329497E+02 0.  0.
         23    2    1    2    0    0  0.41556556689E+02 -0.40979038242E+02 -0.11729734216E+03  0.16068293760E+03  0.93027474321E+02 0.  0.
        -11    1    3    3    0    0 -0.46467478419E+02 -0.27430522512E+02 -0.14203767925E+03  0.15194197064E+03  0.00000000000E+00 0.  1.
         11    1    3    3    0    0 -0.54259412292E+02  0.65137803406E+02 -0.11559299749E+03  0.14334838096E+03  0.00000000000E+00 0. -1.
        -13    1    4    4    0    0 -0.26528505182E+02 -0.27847823452E+02 -0.57175953527E+02  0.68908290647E+02  0.00000000000E+00 0. -1.
         13    1    4    4    0    0  0.68085061872E+02 -0.13131214790E+02 -0.60121388634E+02  0.91774646953E+02  0.00000000000E+00 0.  1.
          1    1    1    2  501    0  0.59170334022E+02  0.32717573473E+01 -0.18566259999E+02  0.62101037308E+02  0.00000000000E+00 0. -1.
<scales pt_clust_5="13000.00000" pt_clust_6="13000.00000" pt_clust_7="13000.00000" pt_clust_8="13000.00000" pt_clust_9="59.26072"></scales>
<clustering>
<clus scale="   59.261">  1  9  2 -1</clus>
<clus scale="   93.027">  7  8 -1 -1</clus>
<clus scale="   96.203">  5  6 -1 -1</clus>
<clus scale="  124.723">  1  7  2 -1</clus>
<clus scale="   59.261">  1  5  2 -1</clus>
</clustering>
</event>
<event>
 9    1  0.1464797E-005  0.9899919E+02  0.7546771E-02  0.1283731E+00
          2   -1    0    0  502    0 -0.00000000000E+00  0.00000000000E+00  0.68562174841E+03  0.68562174841E+03  0.00000000000E+00 0. -1.
         21   -1    0    0  501  502  0.00000000000E+00 -0.00000000000E+00 -0.18359531798E+02  0.18359531798E+02  0.00000000000E+00 0.  1.
         23    2    1    2    0    0  0.91799969761E+01 -0.53204660332E+02  0.34442341810E+03  0.35986781344E+03  0.89231967317E+02 0.  0.
         23    2    1    2    0    0 -0.15233509353E+02  0.29264633291E+02  0.27669750284E+03  0.29178002551E+03  0.86519342592E+02 0.  0.
        -11    1    4    4    0    0  0.30238051361E+01 -0.30211743111E+02  0.88057336356E+02  0.93144980033E+02  0.00000000000E+00 0. -1.
         11    1    4    4    0    0 -0.18257314489E+02  0.59476376402E+02  0.18864016648E+03  0.19863504548E+03  0.00000000000E+00 0.  1.
        -11    1    3    3    0    0  0.33604774024E+02  0.11172807700E+02  0.12080964065E+03  0.12589313620E+03  0.00000000000E+00 0.  1.
         11    1    3    3    0    0 -0.24424777048E+02 -0.64377468032E+02  0.22361377745E+03  0.23397467724E+03  0.00000000000E+00 0. -1.
          2    1    1    2  501    0  0.60535123769E+01  0.23940027041E+02  0.46141295677E+02  0.52333441255E+02  0.00000000000E+00 0. -1.
<scales pt_clust_5="13000.00000" pt_clust_6="13000.00000" pt_clust_7="13000.00000" pt_clust_8="13000.00000" pt_clust_9="24.69352"></scales>
<clustering>
<clus scale="   24.694">  2  9  1 -1</clus>
<clus scale="   86.519">  5  6 -1 -1</clus>
<clus scale="   89.232">  7  8 -1 -1</clus>
<clus scale="   96.561">  2  5  1 -1</clus>
<clus scale="   24.694">  2  5  1 -1</clus>
</clustering>
</event>
<event>
 9    1  0.1464797E-005  0.9913299E+02  0.7546771E-02  0.1284427E+00
         21   -1    0    0  501  502  0.00000000000E+00  0.00000000000E+00  0.10310812052E+03  0.10310812052E+03  0.00000000000E+00 0. -1.
         -2   -1    0    0    0  501 -0.00000000000E+00 -0.00000000000E+00 -0.17553641839E+03  0.17553641839E+03  0.00000000000E+00 0.  1.
         23    2    1    2    0    0 -0.24006395628E+02 -0.49848131693E+01 -0.87221464659E+02  0.13170469261E+03  0.95589679178E+02 0.  0.
         23    2    1    2    0    0  0.27556301757E+02 -0.33447512567E+02 -0.93545694825E+01  0.10141228693E+03  0.91207774381E+02 0.  0.
        -13    1    4    4    0    0  0.44673891565E+02 -0.55614048959E+02 -0.14868648180E+02  0.72868070702E+02  0.00000000000E+00 0. -1.
         13    1    4    4    0    0 -0.17117589808E+02  0.22166536392E+02  0.55140786975E+01  0.28544216232E+02  0.00000000000E+00 0.  1.
        -13    1    3    3    0    0 -0.27756927301E+02 -0.34675556466E+02 -0.55981265961E+01  0.44768071779E+02  0.00000000000E+00 0. -1.
         13    1    3    3    0    0  0.37505316736E+01  0.29690743297E+02 -0.81623338063E+02  0.86936620833E+02  0.00000000000E+00 0.  1.
         -2    1    1    2    0  502 -0.35499061299E+01  0.38432325737E+02  0.24147736267E+02  0.45527559366E+02  0.00000000000E+00 0.  1.
<scales pt_clust_5="13000.00000" pt_clust_6="13000.00000" pt_clust_7="13000.00000" pt_clust_8="13000.00000" pt_clust_9="38.59593"></scales>
<clustering>
<clus scale="   38.596">  1  9  2 -1</clus>
<clus scale="   91.208">  5  6 -1 -1</clus>
<clus scale="   94.915">  1  5  2 -1</clus>
<clus scale="   95.590">  7  8 -1 -1</clus>
<clus scale="   38.596">  1  5  2 -1</clus>
</clustering>
</event>
<event>
 9    1  0.1464797E-005  0.9790356E+02  0.7546771E-02  0.1285101E+00
          1   -1    0    0  502    0 -0.00000000000E+00  0.00000000000E+00  0.45039787789E+03  0.45039787789E+03  0.00000000000E+00 0. -1.
         21   -1    0    0  501  502  0.00000000000E+00 -0.00000000000E+00 -0.57985739580E+02  0.57985739580E+02  0.00000000000E+00 0.  1.
         23    2    1    2    0    0 -0.80509205819E+01 -0.38345104798E+02  0.35221974947E+03  0.36576906531E+03  0.90515704923E+02 0.  0.
         23    2    1    2    0    0  0.31290357415E+02  0.71435561387E+01  0.19720573647E+02  0.98652030843E+02  0.91176780504E+02 0.  0.
        -11    1    4    4    0    0  0.56399409331E+02 -0.19407193067E+02  0.74748926060E+01  0.60111617305E+02  0.00000000000E+00 0.  1.
         11    1    4    4    0    0 -0.25109051916E+02  0.26550749206E+02  0.12245681041E+02  0.38540413538E+02  0.00000000000E+00 0. -1.
        -13    1    3    3    0    0  0.40119430982E+02 -0.76438802116E+01  0.16820303578E+03  0.17309032004E+03  0.00000000000E+00 0.  1.
         13    1    3    3    0    0 -0.48170351564E+02 -0.30701224587E+02  0.18401671369E+03  0.19267874527E+03  0.00000000000E+00 0. -1.
          1    1    1    2  501    0 -0.23239436833E+02  0.31201548660E+02  0.20471815189E+02  0.43962521313E+02  0.00000000000E+00 0. -1.
<scales pt_clust_5="13000.00000" pt_clust_6="13000.00000" pt_clust_7="13000.00000" pt_clust_8="13000.00000" pt_clust_9="38.90512"></scales>
<clustering>
<clus scale="   38.905">  2  9  1 -1</clus>
<clus scale="   90.516">  7  8 -1 -1</clus>
<clus scale="   91.177">  5  6 -1 -1</clus>
<clus scale="   97.288">  1  7  2 -1</clus>
<clus scale="   38.905">  2  5  1 -1</clus>
</clustering>
</event>
<event>
 9    1  0.1464797E-005  0.1240417E+03  0.7546771E-02  0.1241621E+00
         -3   -1    0    0    0  501 -0.00000000000E+00  0.00000000000E+00  0.45702582120E+03  0.45702582120E+03  0.00000000000E+00 0.  1.
         21   -1    0    0  501  502  0.00000000000E+00 -0.00000000000E+00 -0.49701090780E+02  0.49701090780E+02  0.00000000000E+00 0. -1.
         23    2    1    2    0    0  0.64064125406E+02 -0.16464109371E+02  0.21246618648E+03  0.23902444607E+03  0.87266983244E+02 0.  0.
         23    2    1    2    0    0 -0.66768945265E+02  0.38587008014E+02  0.20614383488E+03  0.24272054271E+03  0.10232757183E+03 0.  0.
        -11    1    3    3    0    0 -0.65276320096E+01 -0.34899180040E+02  0.54808216570E+02  0.65303164936E+02  0.00000000000E+00 0. -1.
         11    1    3    3    0    0  0.70591757416E+02  0.18435070669E+02  0.15765796991E+03  0.17372128114E+03  0.00000000000E+00 0.  1.
        -13    1    4    4    0    0 -0.14138243891E+02 -0.32518098080E+02  0.89923228598E+02  0.96661800545E+02  0.00000000000E+00 0.  1.
         13    1    4    4    0    0 -0.52630701374E+02  0.71105106094E+02  0.11622060628E+03  0.14605874217E+03  0.00000000000E+00 0. -1.
         -3    1    1    2    0  502  0.27048198588E+01 -0.22122898643E+02 -0.11285290934E+02  0.24981923191E+02  0.00000000000E+00 0.  1.
<scales pt_clust_5="13000.00000" pt_clust_6="13000.00000" pt_clust_7="13000.00000" pt_clust_8="13000.00000" pt_clust_9="22.28764"></scales>
<clustering>
<clus scale="   22.288">  2  9  1 -1</clus>
<clus scale="   87.267">  5  6 -1 -1</clus>
<clus scale="  102.328">  7  8 -1 -1</clus>
<clus scale="  111.942">  1  5  2 -1</clus>
<clus scale="   22.288">  2  5  1 -1</clus>
</clustering>
</event>
<event>
 9    1  0.1464797E-005  0.1733078E+03  0.7546771E-02  0.1193372E+00
         21   -1    0    0  501  502  0.00000000000E+00  0.00000000000E+00  0.71101921155E+03  0.71101921155E+03  0.00000000000E+00 0.  1.
         -1   -1    0    0    0  501 -0.00000000000E+00 -0.00000000000E+00 -0.98443772305E+02  0.98443772305E+02  0.00000000000E+00 0.  1.
         23    2    1    2    0    0  0.65399595208E+02  0.12558846736E+02  0.86290770115E+02  0.14262924622E+03  0.91990071121E+02 0.  0.
         23    2    1    2    0    0 -0.13339432861E+03 -0.13512862946E+03  0.13193257877E+03  0.24831228469E+03  0.90548285362E+02 0.  0.
        -13    1    3    3    0    0  0.25224569408E+02  0.45545899284E+02  0.71753060993E+02  0.88652183308E+02  0.00000000000E+00 0. -1.
         13    1    3    3    0    0  0.40175025799E+02 -0.32987052548E+02  0.14537709121E+02  0.53977062909E+02  0.00000000000E+00 0.  1.
        -13    1    4    4    0    0 -0.15185394029E+02 -0.73175300667E+02  0.64817432524E+02  0.98926843569E+02  0.00000000000E+00 0. -1.
         13    1    4    4    0    0 -0.11820893458E+03 -0.61953328792E+02  0.67115146250E+02  0.14938544112E+03  0.00000000000E+00 0.  1.
         -1    1    1    2    0  502  0.67994733403E+02  0.12256978272E+03  0.39435209036E+03  0.41852145295E+03  0.00000000000E+00 0.  1.
<scales pt_clust_5="13000.00000" pt_clust_6="13000.00000" pt_clust_7="13000.00000" pt_clust_8="13000.00000" pt_clust_9="147.77208"></scales>
<clustering>
<clus scale="   90.548">  7  8 -1 -1</clus>
<clus scale="   91.990">  5  6 -1 -1</clus>
<clus scale="  113.565">  2  5  1 -1</clus>
<clus scale="  147.772">  1  9  2 -1</clus>
<clus scale="  147.772">  1  5  2 -1</clus>
</clustering>
</event>
<event>
 9    1  0.1464797E-005  0.1017136E+03  0.7546771E-02  0.1277908E+00
         21   -1    0    0  501  502  0.00000000000E+00  0.00000000000E+00  0.10874442949E+03  0.10874442949E+03  0.00000000000E+00 0.  1.
          2   -1    0    0  502    0 -0.00000000000E+00 -0.00000000000E+00 -0.20172284838E+03  0.20172284838E+03  0.00000000000E+00 0. -1.
         23    2    1    2    0    0  0.33056127017E+02  0.23698791001E+01 -0.12868374142E+03  0.16278980877E+03  0.94035592594E+02 0.  0.
         23    2    1    2    0    0 -0.58426911517E+02  0.68702169701E+01  0.82437358480E+01  0.10916520060E+03  0.91586996731E+02 0.  0.
        -11    1    3    3    0    0 -0.18316263028E+02 -0.32695951096E+02 -0.46501033153E+02  0.59723167981E+02  0.00000000000E+00 0.  1.
         11    1    3    3    0    0  0.51372390045E+02  0.35065830196E+02 -0.82182708267E+02  0.10306664079E+03  0.00000000000E+00 0. -1.
        -13    1    4    4    0    0 -0.58247708417E+02  0.40055894898E+02 -0.98381217840E+01  0.71372676089E+02  0.00000000000E+00 0.  1.
         13    1    4    4    0    0 -0.17920310028E+00 -0.33185677928E+02  0.18081857632E+02  0.37792524508E+02  0.00000000000E+00 0. -1.
          2    1    1    2  501    0  0.25370784500E+02 -0.92400960702E+01  0.27461586687E+02  0.38512268498E+02  0.00000000000E+00 0. -1.
<scales pt_clust_5="13000.00000" pt_clust_6="13000.00000" pt_clust_7="13000.00000" pt_clust_8="13000.00000" pt_clust_9="27.00104"></scales>
<clustering>
<clus scale="   27.001">  1  9  2 -1</clus>
<clus scale="   91.587">  7  8 -1 -1</clus>
<clus scale="   94.036">  5  6 -1 -1</clus>
<clus scale="   99.454">  1  7  2 -1</clus>
<clus scale="   27.001">  1  5  2 -1</clus>
</clustering>
</event>
<event>
 9    1  0.1464797E-005  0.9554652E+02  0.7546771E-02  0.1305341E+00
         21   -1    0    0  501  502  0.00000000000E+00  0.00000000000E+00  0.18471394549E+03  0.18471394549E+03  0.00000000000E+00 0. -1.
         -3   -1    0    0    0  501 -0.00000000000E+00 -0.00000000000E+00 -0.10594766802E+03  0.10594766802E+03  0.00000000000E+00 0.  1.
         23    2    1    2    0    0 -0.82986736142E+01 -0.31440483264E+02 -0.64460967049E+02  0.96976823944E+02  0.64745008593E+02 0.  0.
         23    2    1    2    0    0 -0.24480098845E+02  0.26357892831E+02  0.10681994377E+03  0.14443266071E+03  0.90312121772E+02 0.  0.
        -13    1    4    4    0    0 -0.89210098173E+01  0.59608325998E+02  0.61510685427E+02  0.86117950313E+02  0.00000000000E+00 0.  1.
         13    1    4    4    0    0 -0.15559089028E+02 -0.33250433167E+02  0.45309258344E+02  0.58314710398E+02  0.00000000000E+00 0. -1.
        -13    1    3    3    0    0 -0.30258268726E+02  0.42380163652E+01 -0.26715207568E+02  0.40586031149E+02  0.00000000000E+00 0. -1.
         13    1    3    3    0    0  0.21959595112E+02 -0.35678499630E+02 -0.37745759480E+02  0.56390792795E+02  0.00000000000E+00 0.  1.
         -3    1    1    2    0  502  0.32778772460E+02  0.50825904334E+01  0.36407300746E+02  0.49252128858E+02  0.00000000000E+00 0.  1.
<scales pt_clust_5="13000.00000" pt_clust_6="13000.00000" pt_clust_7="13000.00000" pt_clust_8="13000.00000" pt_clust_9="33.17048"></scales>
<clustering>
<clus scale="   33.170">  1  9  2 -1</clus>
<clus scale="   64.745">  7  8 -1 -1</clus>
<clus scale="   71.866">  2  7  1 -1</clus>
<clus scale="   90.312">  5  6 -1 -1</clus>
<clus scale="   33.170">  1  5  2 -1</clus>
</clustering>
</event>
<event>
 9    1  0.1464797E-005  0.1914463E+03  0.7546771E-02  0.1178640E+00
         -1   -1    0    0    0  501 -0.00000000000E+00  0.00000000000E+00  0.69843943834E+03  0.69843943834E+03  0.00000000000E+00 0.  1.
         21   -1    0    0  501  502  0.00000000000E+00 -0.00000000000E+00 -0.12237781416E+03  0.12237781416E+03  0.00000000000E+00 0.  1.
         23    2    1    2    0    0 -0.10741980304E+02 -0.73518248822E+02  0.34806097844E+03  0.36717485655E+03  0.90280715107E+02 0.  0.
         23    2    1    2    0    0 -0.84504771070E+02 -0.11769666570E+03  0.58107779907E+02  0.18069794548E+03  0.91003692038E+02 0.  0.
        -13    1    3    3    0    0 -0.29233333727E+02  0.60604682160E+01  0.14969995187E+03  0.15264793699E+03  0.00000000000E+00 0. -1.
         13    1    3    3    0    0  0.18491353423E+02 -0.79578717038E+02  0.19836102656E+03  0.21452691956E+03  0.00000000000E+00 0.  1.
        -13    1    4    4    0    0 -0.26069486860E+01 -0.48475799849E+02  0.55083840250E+02  0.73422944704E+02  0.00000000000E+00 0. -1.
         13    1    4    4    0    0 -0.81897822384E+02 -0.69220865852E+02  0.30239396578E+01  0.10727500078E+03  0.00000000000E+00 0.  1.
         -1    1    1    2    0  502  0.95246751375E+02  0.19121491452E+03  0.16989286583E+03  0.27294445047E+03  0.00000000000E+00 0.  1.
<scales pt_clust_5="13000.00000" pt_clust_6="13000.00000" pt_clust_7="13000.00000" pt_clust_8="13000.00000" pt_clust_9="168.43405"></scales>
<clustering>
<clus scale="   90.281">  5  6 -1 -1</clus>
<clus scale="   91.004">  7  8 -1 -1</clus>
<clus scale="  116.923">  1  5  2 -1</clus>
<clus scale="  168.434">  2  9  1 -1</clus>
<clus scale="  168.434">  2  5  1 -1</clus>
</clustering>
</event>
<event>
 9    1  0.1464797E-005  0.1442856E+03  0.7546771E-02  0.1208188E+00
          1   -1    0    0  502    0 -0.00000000000E+00  0.00000000000E+00  0.35234786146E+03  0.35234786146E+03  0.00000000000E+00 0. -1.
         21   -1    0    0  501  502  0.00000000000E+00 -0.00000000000E+00 -0.89409656771E+02  0.89409656771E+02  0.00000000000E+00 0.  1.
         23    2    1    2    0    0 -0.29033190939E+02 -0.11423813107E+03  0.21596324304E+03  0.26327240472E+03  0.93696104402E+02 0.  0.
         23    2    1    2    0    0 -0.56052707608E+01  0.96045913887E+02  0.41699826404E+02  0.13900591839E+03  0.91255318697E+02 0.  0.
        -11    1    3    3    0    0 -0.74963785007E+01 -0.11879003429E+03  0.20840232053E+03  0.23999748986E+03  0.00000000000E+00 0. -1.
         11    1    3    3    0    0 -0.21536812438E+02  0.45519032154E+01  0.75609225079E+01  0.23274914867E+02  0.00000000000E+00 0.  1.
        -13    1    4    4    0    0 -0.25515874943E+02  0.17371348286E+02  0.48582810761E+02  0.57559648339E+02  0.00000000000E+00 0.  1.
         13    1    4    4    0    0  0.19910604183E+02  0.78674565602E+02 -0.68829843579E+01  0.81446270051E+02  0.00000000000E+00 0. -1.
          1    1    1    2  501    0  0.34638461700E+02  0.18192217183E+02  0.52751352469E+01  0.39479195114E+02  0.00000000000E+00 0. -1.
<scales pt_clust_5="13000.00000" pt_clust_6="13000.00000" pt_clust_7="13000.00000" pt_clust_8="13000.00000" pt_clust_9="39.12518"></scales>
<clustering>
<clus scale="   39.125">  2  9  1 -1</clus>
<clus scale="   91.255">  7  8 -1 -1</clus>
<clus scale="   93.696">  5  6 -1 -1</clus>
<clus scale="  142.713">  2  7  1 -1</clus>
<clus scale="   39.125">  2  5  1 -1</clus>
</clustering>
</event>
<event>
 9    1  0.1464797E-005  0.1020465E+03  0.7546771E-02  0.1277504E+00
         21   -1    0    0  501  502  0.00000000000E+00  0.00000000000E+00  0.88518510056E+02  0.88518510056E+02  0.00000000000E+00 0. -1.
         -4   -1    0    0    0  501 -0.00000000000E+00 -0.00000000000E+00 -0.31676438453E+03  0.31676438453E+03  0.00000000000E+00 0.  1.
         23    2    1    2    0    0 -0.38087375827E+02 -0.20023526724E+02 -0.17772298480E+03  0.20314773782E+03  0.88498328993E+02 0.  0.
         23    2    1    2    0    0  0.56467788744E+02  0.32210396453E+02 -0.10084738344E+03  0.14719051147E+03  0.85256853771E+02 0.  0.
        -11    1    3    3    0    0 -0.38249598057E+02  0.18291523342E+02 -0.33830279323E+02  0.54241122562E+02  0.00000000000E+00 0. -1.
         11    1    3    3    0    0  0.16222223050E+00 -0.38315050065E+02 -0.14389270548E+03  0.14890661526E+03  0.00000000000E+00 0.  1.
        -11    1    4    4    0    0  0.25271479516E+02  0.16866793865E+02 -0.10757218767E+03  0.11178064220E+03  0.00000000000E+00 0.  1.
         11    1    4    4    0    0  0.31196309228E+02  0.15343602588E+02  0.67248042226E+01  0.35409869269E+02  0.00000000000E+00 0. -1.
         -4    1    1    2    0  502 -0.18380412917E+02 -0.12186869729E+02  0.50324493773E+02  0.54944645292E+02  0.00000000000E+00 0.  1.
<scales pt_clust_5="13000.00000" pt_clust_6="13000.00000" pt_clust_7="13000.00000" pt_clust_8="13000.00000" pt_clust_9="22.05356"></scales>
<clustering>
<clus scale="   22.054">  1  9  2 -1</clus>
<clus scale="   85.257">  7  8 -1 -1</clus>
<clus scale="   88.498">  5  6 -1 -1</clus>
<clus scale="   99.249">  1  7  2 -1</clus>
<clus scale="   22.054">  1  5  2 -1</clus>
</clustering>
</event>
<event>
 9    1  0.1464797E-005  0.9833092E+02  0.7546771E-02  0.1284439E+00
         -1   -1    0    0    0  501 -0.00000000000E+00  0.00000000000E+00  0.12161312835E+03  0.12161312835E+03  0.00000000000E+00 0.  1.
         21   -1    0    0  501  502  0.00000000000E+00 -0.00000000000E+00 -0.17849456760E+03  0.17849456760E+03  0.00000000000E+00 0. -1.
         23    2    1    2    0    0  0.85252509295E+01  0.25327221085E+02  0.50489833256E+02  0.10805761775E+03  0.91722829544E+02 0.  0.
         23    2    1    2    0    0  0.39530200875E+01 -0.47320471444E+02 -0.26945599038E+02  0.10774290613E+03  0.92884956418E+02 0.  0.
        -13    1    3    3    0    0  0.64943479438E+01  0.60063051890E+02  0.36301944685E+02  0.70481046711E+02  0.00000000000E+00 0.  1.
         13    1    3    3    0    0  0.20309029858E+01 -0.34735830806E+02  0.14187888571E+02  0.37576571036E+02  0.00000000000E+00 0. -1.
        -13    1    4    4    0    0 -0.14082055716E+02  0.16149866132E+02  0.17935412387E+02  0.27942825319E+02  0.00000000000E+00 0.  1.
         13    1    4    4    0    0  0.18035075804E+02 -0.63470337576E+02 -0.44881011425E+02  0.79800080814E+02  0.00000000000E+00 0. -1.
         -1    1    1    2    0  502 -0.12478271017E+02  0.21993250359E+02 -0.80425673475E+02  0.84307172073E+02  0.00000000000E+00 0.  1.
<scales pt_clust_5="13000.00000" pt_clust_6="13000.00000" pt_clust_7="13000.00000" pt_clust_8="13000.00000" pt_clust_9="25.28656"></scales>
<clustering>
<clus scale="   25.287">  2  9  1 -1</clus>
<clus scale="   91.723">  5  6 -1 -1</clus>
<clus scale="   92.885">  7  8 -1 -1</clus>
<clus scale="   97.234">  1  5  2 -1</clus>
<clus scale="   25.287">  2  5  1 -1</clus>
</clustering>
</event>
<event>
 9    1  0.1464797E-005  0.1870819E+03  0.7546771E-02  0.1161134E+00
         21   -1    0    0  501  502  0.00000000000E+00  0.00000000000E+00  0.84542043110E+02  0.84542043110E+02  0.00000000000E+00 0. -1.
         -4   -1    0    0    0  501 -0.00000000000E+00 -0.00000000000E+00 -0.49566336094E+03  0.49566336094E+03  0.00000000000E+00 0.  1.
         23    2    1    2    0    0  0.11360994386E+03 -0.12853890516E+03 -0.22182892986E+03  0.29477584561E+03  0.90858436854E+02 0.  0.
         23    2    1    2    0    0 -0.11707965225E+03  0.10331308490E+03 -0.18683719019E+03  0.25984814174E+03  0.90728620874E+02 0.  0.
        -11    1    4    4    0    0 -0.80540138708E+02  0.80336233843E+02 -0.65962115379E+02  0.13149762384E+03  0.00000000000E+00 0.  1.
         11    1    4    4    0    0 -0.36539513547E+02  0.22976851057E+02 -0.12087507481E+03  0.12835051790E+03  0.00000000000E+00 0. -1.
        -13    1    3    3    0    0  0.11556749230E+03 -0.95280371960E+02 -0.21285580507E+03  0.26027252700E+03  0.00000000000E+00 0. -1.
         13    1    3    3    0    0 -0.19575484426E+01 -0.33258533200E+02 -0.89731247873E+01  0.34503318608E+02  0.00000000000E+00 0.  1.
         -4    1    1    2    0  502  0.34697083977E+01  0.25225820259E+02 -0.24551977797E+01  0.25581416698E+02  0.00000000000E+00 0.  1.
<scales pt_clust_5="13000.00000" pt_clust_6="13000.00000" pt_clust_7="13000.00000" pt_clust_8="13000.00000" pt_clust_9="25.46332"></scales>
<clustering>
<clus scale="   25.463">  1  9  2 -1</clus>
<clus scale="   90.729">  5  6 -1 -1</clus>
<clus scale="   90.858">  7  8 -1 -1</clus>
<clus scale="  187.019">  1  5  2 -1</clus>
<clus scale="   25.463">  1  5  2 -1</clus>
</clustering>
</event>
<event>
 9    1  0.1464797E-005  0.1005325E+03  0.7546771E-02  0.1279587E+00
         21   -1    0    0  501  502  0.00000000000E+00  0.00000000000E+00  0.47978296296E+03  0.47978296296E+03  0.00000000000E+00 0. -1.
          2   -1    0    0  502    0 -0.00000000000E+00 -0.00000000000E+00 -0.13454435772E+03  0.13454435772E+03  0.00000000000E+00 0. -1.
         23    2    1    2    0    0  0.29512928550E+02  0.19119469895E+02 -0.57847927872E+02  0.11522779833E+03  0.93244279543E+02 0.  0.
         23    2    1    2    0    0  0.42075253896E+01 -0.53777930417E+02  0.16726071715E+02  0.10972478764E+03  0.94074430516E+02 0.  0.
        -13    1    4    4    0    0  0.27274147711E+02 -0.67598473670E+02 -0.78259233710E+01  0.73312194432E+02  0.00000000000E+00 0. -1.
         13    1    4    4    0    0 -0.23066622322E+02  0.13820543252E+02  0.24551995086E+02  0.36412593204E+02  0.00000000000E+00 0.  1.
        -13    1    3    3    0    0  0.49435741215E+02 -0.52543214542E+01 -0.66076664800E+02  0.82689939137E+02  0.00000000000E+00 0. -1.
         13    1    3    3    0    0 -0.19922812665E+02  0.24373791350E+02  0.82287369274E+01  0.32537859190E+02  0.00000000000E+00 0.  1.
          2    1    1    2  501    0 -0.33720453940E+02  0.34658460522E+02  0.38636046140E+03  0.38937473472E+03  0.00000000000E+00 0. -1.
<scales pt_clust_5="13000.00000" pt_clust_6="13000.00000" pt_clust_7="13000.00000" pt_clust_8="13000.00000" pt_clust_9="48.35574"></scales>
<clustering>
<clus scale="   48.356">  1  9  2 -1</clus>
<clus scale="   93.244">  7  8 -1 -1</clus>
<clus scale="   94.074">  5  6 -1 -1</clus>
<clus scale="   99.756">  2  7  1 -1</clus>
<clus scale="   48.356">  1  5  2 -1</clus>
</clustering>
</event>
<event>
 9    1  0.1464797E-005  0.1205118E+03  0.7546771E-02  0.1248224E+00
         21   -1    0    0  501  502  0.00000000000E+00  0.00000000000E+00  0.14401123123E+03  0.14401123123E+03  0.00000000000E+00 0. -1.
         -1   -1    0    0    0  501 -0.00000000000E+00 -0.00000000000E+00 -0.19039644470E+03  0.19039644470E+03  0.00000000000E+00 0.  1.
         23    2    1    2    0    0  0.38549559539E+02 -0.63492214391E+01 -0.81507308335E+02  0.13036276686E+03  0.93939493919E+02 0.  0.
         23    2    1    2    0    0 -0.88612697877E+02  0.32642273145E+02  0.27699537000E+02  0.14701213995E+03  0.10921344570E+03 0.  0.
        -11    1    4    4    0    0 -0.99707075420E+02 -0.65931308736E+01  0.43357205452E+01  0.10001884191E+03  0.00000000000E+00 0.  1.
         11    1    4    4    0    0  0.11094377542E+02  0.39235404019E+02  0.23363816455E+02  0.46993298042E+02  0.00000000000E+00 0. -1.
        -13    1    3    3    0    0 -0.30513050336E+02 -0.10974103478E+02 -0.28671517220E+02  0.43284328430E+02  0.00000000000E+00 0.  1.
         13    1    3    3    0    0  0.69062609875E+02  0.46248820393E+01 -0.52835791115E+02  0.87078438430E+02  0.00000000000E+00 0. -1.
         -1    1    1    2    0  502  0.50063138338E+02 -0.26293051706E+02  0.74225578589E+01  0.57032769120E+02  0.00000000000E+00 0.  1.
<scales pt_clust_5="13000.00000" pt_clust_6="13000.00000" pt_clust_7="13000.00000" pt_clust_8="13000.00000" pt_clust_9="56.54770"></scales>
<clustering>
<clus scale="   56.548">  1  9  2 -1</clus>
<clus scale="   93.939">  7  8 -1 -1</clus>
<clus scale="  106.865">  2  7  1 -1</clus>
<clus scale="  109.213">  5  6 -1 -1</clus>
<clus scale="   56.548">  1  5  2 -1</clus>
</clustering>
</event>
<event>
 9    1  0.1464797E-005  0.9275158E+02  0.7546771E-02  0.1296697E+00
         21   -1    0    0  501  502  0.00000000000E+00  0.00000000000E+00  0.86876710615E+02  0.86876710615E+02  0.00000000000E+00 0.  1.
         -2   -1    0    0    0  501 -0.00000000000E+00 -0.00000000000E+00 -0.14703596996E+03  0.14703596996E+03  0.00000000000E+00 0.  1.
         23    2    1    2    0    0 -0.10573707000E+01 -0.13493705073E+02 -0.71785043896E+02  0.11666071271E+03  0.90958403980E+02 0.  0.
         23    2    1    2    0    0  0.18515622743E+02  0.25300308618E+02  0.90274484364E+01  0.96016671713E+02  0.90303779101E+02 0.  0.
        -11    1    4    4    0    0  0.24838866673E+02 -0.13131465299E+02 -0.29844694001E+02  0.40989150254E+02  0.00000000000E+00 0. -1.
         11    1    4    4    0    0 -0.63232439296E+01  0.38431773918E+02  0.38872142438E+02  0.55027521459E+02  0.00000000000E+00 0.  1.
        -13    1    3    3    0    0 -0.17515587042E+02 -0.49380279411E+02 -0.38451862341E+02  0.64990410844E+02  0.00000000000E+00 0.  1.
         13    1    3    3    0    0  0.16458216342E+02  0.35886574338E+02 -0.33333181554E+02  0.51670301871E+02  0.00000000000E+00 0. -1.
         -2    1    1    2    0  502 -0.17458252043E+02 -0.11806603546E+02  0.25983361188E+01  0.21235296143E+02  0.00000000000E+00 0.  1.
<scales pt_clust_5="13000.00000" pt_clust_6="13000.00000" pt_clust_7="13000.00000" pt_clust_8="13000.00000" pt_clust_9="21.07573"></scales>
<clustering>
<clus scale="   21.076">  1  9  2 -1</clus>
<clus scale="   90.304">  5  6 -1 -1</clus>
<clus scale="   90.958">  7  8 -1 -1</clus>
<clus scale="   92.110">  1  5  2 -1</clus>
<clus scale="   21.076">  1  5  2 -1</clus>
</clustering>
</event>
<event>
 9    1  0.1464797E-005  0.1108959E+03  0.7546771E-02  0.1259426E+00
         21   -1    0    0  501  502  0.00000000000E+00  0.00000000000E+00  0.12330256098E+03  0.12330256098E+03  0.00000000000E+00 0. -1.
          2   -1    0    0  502    0 -0.00000000000E+00 -0.00000000000E+00 -0.31227441709E+03  0.31227441709E+03  0.00000000000E+00 0. -1.
         23    2    1    2    0    0 -0.59950053733E+01  0.68305614826E+02 -0.20960226115E+03  0.23949548666E+03  0.93399053248E+02 0.  0.
         23    2    1    2    0    0 -0.78282654907E+01 -0.42394690063E+02 -0.54534161718E+02  0.11538346829E+03  0.92091142212E+02 0.  0.
        -11    1    3    3    0    0  0.40155932134E+02  0.21958794378E+02 -0.54512056546E+02  0.71177607750E+02  0.00000000000E+00 0. -1.
         11    1    3    3    0    0 -0.46150937508E+02  0.46346820448E+02 -0.15509020460E+03  0.16831787891E+03  0.00000000000E+00 0.  1.
        -13    1    4    4    0    0  0.30769648083E+01 -0.65772314013E+02 -0.13967105646E+02  0.67309323598E+02  0.00000000000E+00 0.  1.
         13    1    4    4    0    0 -0.10905230299E+02  0.23377623950E+02 -0.40567056072E+02  0.48074144691E+02  0.00000000000E+00 0. -1.
          2    1    1    2  501    0  0.13823270864E+02 -0.25910924762E+02  0.75164566760E+02  0.80698023121E+02  0.00000000000E+00 0. -1.
<scales pt_clust_5="13000.00000" pt_clust_6="13000.00000" pt_clust_7="13000.00000" pt_clust_8="13000.00000" pt_clust_9="29.36765"></scales>
<clustering>
<clus scale="   29.368">  1  9  2 -1</clus>
<clus scale="   92.091">  7  8 -1 -1</clus>
<clus scale="   93.399">  5  6 -1 -1</clus>
<clus scale="  109.797">  1  7  2 -1</clus>
<clus scale="   29.368">  1  5  2 -1</clus>
</clustering>
</event>
<event>
 9    1  0.1464797E-005  0.1931594E+03  0.7546771E-02  0.1189711E+00
         -1   -1    0    0    0  501 -0.00000000000E+00  0.00000000000E+00  0.24754374248E+03  0.24754374248E+03  0.00000000000E+00 0.  1.
         21   -1    0    0  501  502  0.00000000000E+00 -0.00000000000E+00 -0.33964245926E+03  0.33964245926E+03  0.00000000000E+00 0. -1.
         23    2    1    2    0    0 -0.21052999028E+02  0.23793811196E+02  0.11755638116E+03  0.14739652175E+03  0.83047321763E+02 0.  0.
         23    2    1    2    0    0 -0.25632294435E+02 -0.17569396031E+03 -0.19695222154E+03  0.28037031167E+03  0.91060155359E+02 0.  0.
        -11    1    4    4    0    0  0.27687401848E+02 -0.20022100194E+02 -0.44034034973E+02  0.55735742152E+02  0.00000000000E+00 0. -1.
         11    1    4    4    0    0 -0.53319696283E+02 -0.15567186011E+03 -0.15291818656E+03  0.22463456952E+03  0.00000000000E+00 0.  1.
        -11    1    3    3    0    0 -0.50458313287E+02  0.15026107160E+02  0.97294687417E+02  0.11062586260E+03  0.00000000000E+00 0.  1.
         11    1    3    3    0    0  0.29405314260E+02  0.87677040357E+01  0.20261693743E+02  0.36770659147E+02  0.00000000000E+00 0. -1.
         -1    1    1    2    0  502  0.46685293463E+02  0.15190014911E+03 -0.12702876399E+02  0.15941936832E+03  0.00000000000E+00 0.  1.
<scales pt_clust_5="13000.00000" pt_clust_6="13000.00000" pt_clust_7="13000.00000" pt_clust_8="13000.00000" pt_clust_9="170.34858"></scales>
<clustering>
<clus scale="   83.047">  7  8 -1 -1</clus>
<clus scale="   88.917">  1  7  2 -1</clus>
<clus scale="   91.060">  5  6 -1 -1</clus>
<clus scale="  170.349">  2  9  1 -1</clus>
<clus scale="  170.349">  2  5  1 -1</clus>
</clustering>
</event>
<event>
 9    1  0.1464797E-005  0.9718740E+02  0.7546771E-02  0.1288809E+00
         21   -1    0    0  501  502  0.00000000000E+00  0.00000000000E+00  0.27147723055E+03  0.27147723055E+03  0.00000000000E+00 0. -1.
          3   -1    0    0  502    0 -0.00000000000E+00 -0.00000000000E+00 -0.84616178826E+02  0.84616178826E+02  0.00000000000E+00 0. -1.
         23    2    1    2    0    0  0.30497277632E+02 -0.51546290530E+02  0.13382030581E+02  0.10521214239E+03  0.85460003235E+02 0.  0.
         23    2    1    2    0    0  0.13249286128E+02  0.16558417192E+02  0.30955633033E+02  0.97744631007E+02  0.90255398240E+02 0.  0.
        -11    1    4    4    0    0  0.30946376539E+02  0.42343015629E+02 -0.17734948075E+01  0.52476227735E+02  0.00000000000E+00 0. -1.
         11    1    4    4    0    0 -0.17697090411E+02 -0.25784598437E+02  0.32729127840E+02  0.45268403272E+02  0.00000000000E+00 0.  1.
        -11    1    3    3    0    0  0.56819868817E+02 -0.51511807575E+02  0.25167821964E+01  0.76735246169E+02  0.00000000000E+00 0. -1.
         11    1    3    3    0    0 -0.26322591185E+02 -0.34482955155E-01  0.10865248385E+02  0.28476896218E+02  0.00000000000E+00 0.  1.
          3    1    1    2  501    0 -0.43746563760E+02  0.34987873339E+02  0.14252338811E+03  0.15313663598E+03  0.00000000000E+00 0. -1.
<scales pt_clust_5="13000.00000" pt_clust_6="13000.00000" pt_clust_7="13000.00000" pt_clust_8="13000.00000" pt_clust_9="56.01708"></scales>
<clustering>
<clus scale="   56.017">  1  9  2 -1</clus>
<clus scale="   85.460">  7  8 -1 -1</clus>
<clus scale="   90.255">  5  6 -1 -1</clus>
<clus scale="   92.751">  2  7  1 -1</clus>
<clus scale="   56.017">  1  5  2 -1</clus>
</clustering>
</event>
<event>
 9    1  0.1464797E-005  0.1020398E+03  0.7546771E-02  0.1276590E+00
         21   -1    0    0  501  502  0.00000000000E+00  0.00000000000E+00  0.11609667755E+03  0.11609667755E+03  0.00000000000E+00 0. -1.
          1   -1    0    0  502    0 -0.00000000000E+00 -0.00000000000E+00 -0.33239064191E+03  0.33239064191E+03  0.00000000000E+00 0. -1.
         23    2    1    2    0    0  0.27187191716E+02  0.47345943044E+02 -0.23882880112E+03  0.26171538414E+03  0.92059569500E+02 0.  0.
         23    2    1    2    0    0 -0.17777559098E+02 -0.10183364896E+02 -0.49232245470E+02  0.10540786160E+03  0.90924478361E+02 0.  0.
        -11    1    3    3    0    0 -0.26203556614E+02  0.41729833041E+02 -0.15039920485E+03  0.15826536629E+03  0.00000000000E+00 0. -1.
         11    1    3    3    0    0  0.53390748330E+02  0.56161100030E+01 -0.88429596261E+02  0.10345001785E+03  0.00000000000E+00 0.  1.
        -13    1    4    4    0    0  0.16983323985E+02 -0.25074192487E+02  0.12702754578E+02  0.32840651582E+02  0.00000000000E+00 0.  1.
         13    1    4    4    0    0 -0.34760883082E+02  0.14890827591E+02 -0.61935000048E+02  0.72567210019E+02  0.00000000000E+00 0. -1.
          1    1    1    2  501    0 -0.94096326180E+01 -0.37162578147E+02  0.71767082228E+02  0.81364073719E+02  0.00000000000E+00 0. -1.
<scales pt_clust_5="13000.00000" pt_clust_6="13000.00000" pt_clust_7="13000.00000" pt_clust_8="13000.00000" pt_clust_9="38.33534"></scales>
<clustering>
<clus scale="   38.335">  1  9  2 -1</clus>
<clus scale="   90.924">  7  8 -1 -1</clus>
<clus scale="   92.060">  5  6 -1 -1</clus>
<clus scale="  101.017">  1  7  2 -1</clus>
<clus scale="   38.335">  1  5  2 -1</clus>
</clustering>
</event>
<event>
 9    1  0.1464797E-005  0.2117724E+03  0.7546771E-02  0.1140493E+00
         21   -1    0    0  501  502  0.00000000000E+00  0.00000000000E+00  0.22623102992E+03  0.22623102992E+03  0.00000000000E+00 0.  1.
          3   -1    0    0  502    0 -0.00000000000E+00 -0.00000000000E+00 -0.26027338460E+03  0.26027338460E+03  0.00000000000E+00 0. -1.
         23    2    1    2    0    0 -0.25866530939E+02  0.19250687675E+03 -0.32322022474E+02  0.21868125950E+03  0.95125207508E+02 0.  0.
         23    2    1    2    0    0  0.49791343530E+02 -0.17643054338E+03  0.47960521941E+02  0.21038595086E+03  0.91406357138E+02 0.  0.
        -11    1    4    4    0    0  0.52429180329E+01 -0.11867269442E+03  0.65099953339E+02  0.13545737527E+03  0.00000000000E+00 0.  1.
         11    1    4    4    0    0  0.44548425497E+02 -0.57757848957E+02 -0.17139431398E+02  0.74928575584E+02  0.00000000000E+00 0. -1.
        -11    1    3    3    0    0 -0.57415878893E+02  0.93909229021E+02 -0.33816918383E+02  0.11514821064E+03  0.00000000000E+00 0.  1.
         11    1    3    3    0    0  0.31549347954E+02  0.98597647728E+02  0.14948959094E+01  0.10353304887E+03  0.00000000000E+00 0. -1.
          3    1    1    2  501    0 -0.23924812592E+02 -0.16076333369E+02 -0.49680854152E+02  0.57437204157E+02  0.00000000000E+00 0. -1.
<scales pt_clust_5="13000.00000" pt_clust_6="13000.00000" pt_clust_7="13000.00000" pt_clust_8="13000.00000" pt_clust_9="28.82440"></scales>
<clustering>
<clus scale="   28.824">  1  9  2 -1</clus>
<clus scale="   91.406">  5  6 -1 -1</clus>
<clus scale="   95.125">  7  8 -1 -1</clus>
<clus scale="  210.128">  1  5  2 -1</clus>
<clus scale="   28.824">  1  5  2 -1</clus>
</clustering>
</event>
<event>
 9    1  0.1464797E-005  0.1445761E+03  0.7546771E-02  0.1207635E+00
         -2   -1    0    0    0  501 -0.00000000000E+00  0.00000000000E+00  0.20926063320E+03  0.20926063320E+03  0.00000000000E+00 0.  1.
         21   -1    0    0  501  502  0.00000000000E+00 -0.00000000000E+00 -0.11194518041E+04  0.11194518041E+04  0.00000000000E+00 0. -1.
         23    2    1    2    0    0  0.23656059804E+02  0.10940394422E+03  0.15763884189E+03  0.21345939414E+03  0.90476937939E+02 0.  0.
         23    2    1    2    0    0 -0.14623048034E+03 -0.10109305719E+03 -0.64180034407E+03  0.67186287860E+03  0.88819403244E+02 0.  0.
        -13    1    4    4    0    0 -0.12107979677E+02 -0.53329089674E+02 -0.21944572695E+03  0.22615707386E+03  0.00000000000E+00 0.  1.
         13    1    4    4    0    0 -0.13412250067E+03 -0.47763967513E+02 -0.42235461712E+03  0.44570580474E+03  0.00000000000E+00 0. -1.
        -13    1    3    3    0    0  0.29145994990E+02  0.41158397047E+01  0.71472167320E+02  0.77296182712E+02  0.00000000000E+00 0. -1.
         13    1    3    3    0    0 -0.54899351861E+01  0.10528810451E+03  0.86166674567E+02  0.13616321143E+03  0.00000000000E+00 0.  1.
         -2    1    1    2    0  502  0.12257442054E+03 -0.83108870297E+01 -0.42602966873E+03  0.44339016459E+03  0.00000000000E+00 0.  1.
<scales pt_clust_5="13000.00000" pt_clust_6="13000.00000" pt_clust_7="13000.00000" pt_clust_8="13000.00000" pt_clust_9="122.85585"></scales>
<clustering>
<clus scale="   88.819">  5  6 -1 -1</clus>
<clus scale="   90.477">  7  8 -1 -1</clus>
<clus scale="  122.856">  2  9  1 -1</clus>
<clus scale="  143.545">  2  5  1 -1</clus>
<clus scale="  122.856">  2  5  1 -1</clus>
</clustering>
</event>
<event>
 9    1  0.1464797E-005  0.1089054E+03  0.7546771E-02  0.1268506E+00
         21   -1    0    0  501  502  0.00000000000E+00  0.00000000000E+00  0.32609804776E+02  0.32609804776E+02  0.00000000000E+00 0.  1.
          1   -1    0    0  502    0 -0.00000000000E+00 -0.00000000000E+00 -0.54433533484E+03  0.54433533484E+03  0.00000000000E+00 0. -1.
         23    2    1    2    0    0 -0.42514661990E+02 -0.14330421446E+02 -0.35165007542E+03  0.36941666094E+03  0.10391360055E+03 0.  0.
         23    2    1    2    0    0  0.73364373461E+01 -0.23976835994E+00 -0.94585479626E+02  0.13177404152E+03  0.91455476929E+02 0.  0.
        -11    1    4    4    0    0 -0.37767043225E+02 -0.19731132403E+02 -0.44546977537E+02  0.61644953950E+02  0.00000000000E+00 0.  1.
         11    1    4    4    0    0  0.45103480571E+02  0.19491364043E+02 -0.50038502089E+02  0.70129087568E+02  0.00000000000E+00 0. -1.
        -13    1    3    3    0    0 -0.57363677349E+02 -0.48254046099E+02 -0.20891472352E+03  0.22195586532E+03  0.00000000000E+00 0.  1.
         13    1    3    3    0    0  0.14849015359E+02  0.33923624654E+02 -0.14273535189E+03  0.14746079563E+03  0.00000000000E+00 0. -1.
          1    1    1    2  501    0  0.35178224644E+02  0.14570189806E+02 -0.65489975017E+02  0.75754437149E+02  0.00000000000E+00 0. -1.
<scales pt_clust_5="13000.00000" pt_clust_6="13000.00000" pt_clust_7="13000.00000" pt_clust_8="13000.00000" pt_clust_9="38.07621"></scales>
<clustering>
<clus scale="   38.076">  1  9  2 -1</clus>
<clus scale="   91.455">  5  6 -1 -1</clus>
<clus scale="   97.090">  1  5  2 -1</clus>
<clus scale="  103.914">  7  8 -1 -1</clus>
<clus scale="   38.076">  1  5  2 -1</clus>
</clustering>
</event>
<event>
 9    1  0.1464797E-005  0.1452498E+03  0.7546771E-02  0.1206968E+00
          2   -1    0    0  502    0 -0.00000000000E+00  0.00000000000E+00  0.29613064825E+03  0.29613064825E+03  0.00000000000E+00 0.  1.
         21   -1    0    0  501  502  0.00000000000E+00 -0.00000000000E+00 -0.11372329900E+03  0.11372329900E+03  0.00000000000E+00 0. -1.
         23    2    1    2    0    0  0.21485559801E+02 -0.12596106715E+03  0.15957808287E+03  0.22192564759E+03  0.86359763849E+02 0.  0.
         23    2    1    2    0    0 -0.27722947406E+02  0.92644037880E+02  0.53754075359E+02  0.14204504287E+03  0.89083185945E+02 0.  0.
        -13    1    4    4    0    0 -0.11900932309E+02  0.10809677830E+03  0.49665315549E+02  0.11955412681E+03  0.00000000000E+00 0.  1.
         13    1    4    4    0    0 -0.15822015098E+02 -0.15452740422E+02  0.40887598101E+01  0.22490916057E+02  0.00000000000E+00 0. -1.
        -13    1    3    3    0    0 -0.74936396149E+01 -0.12383025970E+03  0.11810291227E+03  0.17128451693E+03  0.00000000000E+00 0. -1.
         13    1    3    3    0    0  0.28979199416E+02 -0.21308074439E+01  0.41475170591E+02  0.50641130662E+02  0.00000000000E+00 0.  1.
          2    1    1    2  501    0  0.62373876052E+01  0.33317029268E+02 -0.30924808972E+02  0.45883256786E+02  0.00000000000E+00 0.  1.
<scales pt_clust_5="13000.00000" pt_clust_6="13000.00000" pt_clust_7="13000.00000" pt_clust_8="13000.00000" pt_clust_9="33.89586"></scales>
<clustering>
<clus scale="   33.896">  2  9  1 -1</clus>
<clus scale="   86.360">  7  8 -1 -1</clus>
<clus scale="   89.083">  5  6 -1 -1</clus>
<clus scale="  143.596">  1  7  2 -1</clus>
<clus scale="   33.896">  2  5  1 -1</clus>
</clustering>
</event>
<event>
 9    1  0.1464797E-005  0.1123757E+03  0.7546771E-02  0.1260181E+00
         21   -1    0    0  501  502  0.00000000000E+00  0.00000000000E+00  0.23284513685E+03  0.23284513685E+03  0.00000000000E+00 0.  1.
          2   -1    0    0  502    0 -0.00000000000E+00 -0.00000000000E+00 -0.17760722949E+03  0.17760722949E+03  0.00000000000E+00 0. -1.
         23    2    1    2    0    0  0.33329280585E+02  0.49443564004E+02 -0.11442609487E+03  0.15814065087E+03  0.91430997504E+02 0.  0.
         23    2    1    2    0    0 -0.42589149141E+02 -0.79314480187E+02  0.54033184055E+02  0.13252647885E+03  0.80864455891E+02 0.  0.
        -13    1    3    3    0    0 -0.20616175766E+02  0.38355730688E+02 -0.18048292544E+02  0.47137348712E+02  0.00000000000E+00 0.  1.
         13    1    3    3    0    0  0.53945456351E+02  0.11087833316E+02 -0.96377802329E+02  0.11100330216E+03  0.00000000000E+00 0. -1.
        -13    1    4    4    0    0  0.12536856870E+02 -0.59727865393E+02  0.17246417578E+02  0.63419473380E+02  0.00000000000E+00 0. -1.
         13    1    4    4    0    0 -0.55126006010E+02 -0.19586614794E+02  0.36786766478E+02  0.69107005474E+02  0.00000000000E+00 0.  1.
          2    1    1    2  501    0  0.92598685555E+01  0.29870916183E+02  0.11563081818E+03  0.11978523662E+03  0.00000000000E+00 0. -1.
<scales pt_clust_5="13000.00000" pt_clust_6="13000.00000" pt_clust_7="13000.00000" pt_clust_8="13000.00000" pt_clust_9="31.27326"></scales>
<clustering>
<clus scale="   31.273">  1  9  2 -1</clus>
<clus scale="   80.864">  7  8 -1 -1</clus>
<clus scale="   91.431">  5  6 -1 -1</clus>
<clus scale="  103.960">  1  7  2 -1</clus>
<clus scale="   31.273">  1  5  2 -1</clus>
</clustering>
</event>
<event>
 9    1  0.1464797E-005  0.9547496E+02  0.7546771E-02  0.1291641E+00
         21   -1    0    0  501  502  0.00000000000E+00  0.00000000000E+00  0.52272395980E+02  0.52272395980E+02  0.00000000000E+00 0.  1.
          1   -1    0    0  502    0 -0.00000000000E+00 -0.00000000000E+00 -0.31407984687E+03  0.31407984687E+03  0.00000000000E+00 0. -1.
         23    2    1    2    0    0  0.16359047964E+02 -0.21495475978E+02 -0.20928761785E+03  0.22943279424E+03  0.90046799772E+02 0.  0.
         23    2    1    2    0    0 -0.20586674961E+02 -0.90804642915E+01 -0.41633318131E+02  0.10418907800E+03  0.92821144029E+02 0.  0.
        -11    1    4    4    0    0  0.33645992986E+02 -0.10923370269E+02 -0.34579923635E+02  0.49468616118E+02  0.00000000000E+00 0.  1.
         11    1    4    4    0    0 -0.54232667946E+02  0.18429059778E+01 -0.70533944967E+01  0.54720461885E+02  0.00000000000E+00 0. -1.
        -13    1    3    3    0    0  0.13815025985E+01  0.26041722843E+02 -0.14874573770E+03  0.15101448395E+03  0.00000000000E+00 0. -1.
         13    1    3    3    0    0  0.14977545365E+02 -0.47537198820E+02 -0.60541880151E+02  0.78418310292E+02  0.00000000000E+00 0.  1.
          1    1    1    2  501    0  0.42276269968E+01  0.30575940269E+02 -0.10886514909E+02  0.32730370610E+02  0.00000000000E+00 0. -1.
<scales pt_clust_5="13000.00000" pt_clust_6="13000.00000" pt_clust_7="13000.00000" pt_clust_8="13000.00000" pt_clust_9="30.86683"></scales>
<clustering>
<clus scale="   30.867">  1  9  2 -1</clus>
<clus scale="   90.047">  7  8 -1 -1</clus>
<clus scale="   92.780">  2  7  1 -1</clus>
<clus scale="   92.821">  5  6 -1 -1</clus>
<clus scale="   30.867">  1  5  2 -1</clus>
</clustering>
</event>
<event>
 9    1  0.1464797E-005  0.1027697E+03  0.7546771E-02  0.1276208E+00
         21   -1    0    0  501  502  0.00000000000E+00  0.00000000000E+00  0.29654978032E+03  0.29654978032E+03  0.00000000000E+00 0. -1.
          1   -1    0    0  502    0 -0.00000000000E+00 -0.00000000000E+00 -0.34186115998E+03  0.34186115998E+03  0.00000000000E+00 0. -1.
         23    2    1    2    0    0  0.24489897888E+02 -0.35032783488E+02 -0.30777799278E+03  0.32332858497E+03  0.89370185195E+02 0.  0.
         23    2    1    2    0    0 -0.56261064555E+02  0.40455221992E+02  0.11185603178E+03  0.16106171684E+03  0.92882573242E+02 0.  0.
        -13    1    4    4    0    0 -0.28827125521E+02  0.15563958660E+02 -0.95550389027E+01  0.34125338729E+02  0.00000000000E+00 0. -1.
         13    1    4    4    0    0 -0.27433939034E+02  0.24891263332E+02  0.12141107069E+03  0.12693637811E+03  0.00000000000E+00 0.  1.
        -13    1    3    3    0    0 -0.17497230282E+02 -0.45510338168E+02 -0.10206649721E+03  0.11311460472E+03  0.00000000000E+00 0. -1.
         13    1    3    3    0    0  0.41987128170E+02  0.10477554680E+02 -0.20571149557E+03  0.21021398026E+03  0.00000000000E+00 0.  1.
          1    1    1    2  501    0  0.31771166667E+02 -0.54224385040E+01  0.15061058134E+03  0.15402063849E+03  0.00000000000E+00 0. -1.
<scales pt_clust_5="13000.00000" pt_clust_6="13000.00000" pt_clust_7="13000.00000" pt_clust_8="13000.00000" pt_clust_9="32.23057"></scales>
<clustering>
<clus scale="   32.231">  1  9  2 -1</clus>
<clus scale="   89.370">  7  8 -1 -1</clus>
<clus scale="   92.883">  5  6 -1 -1</clus>
<clus scale="   99.607">  2  7  1 -1</clus>
<clus scale="   32.231">  1  5  2 -1</clus>
</clustering>
</event>
<event>
 9    1  0.1464797E-005  0.1027381E+03  0.7546771E-02  0.1274807E+00
         21   -1    0    0  501  502  0.00000000000E+00  0.00000000000E+00  0.64848607061E+02  0.64848607061E+02  0.00000000000E+00 0. -1.
          2   -1    0    0  502    0 -0.00000000000E+00 -0.00000000000E+00 -0.62332584485E+03  0.62332584485E+03  0.00000000000E+00 0. -1.
         23    2    1    2    0    0 -0.10941692215E+02 -0.73996631743E+02 -0.42579760434E+03  0.44181758799E+03  0.91126061341E+02 0.  0.
         23    2    1    2    0    0 -0.12169403846E+02 -0.43981799569E+00 -0.14041281021E+03  0.16803247542E+03  0.91492446116E+02 0.  0.
        -13    1    3    3    0    0 -0.31985314891E+02 -0.77407691280E+02 -0.39836971674E+03  0.40707915969E+03  0.00000000000E+00 0. -1.
         13    1    3    3    0    0  0.21043622676E+02  0.34110595368E+01 -0.27427887608E+02  0.34738428305E+02  0.00000000000E+00 0.  1.
        -13    1    4    4    0    0 -0.32732674330E+02 -0.20746309656E+02 -0.18874598904E+02  0.43105542763E+02  0.00000000000E+00 0. -1.
         13    1    4    4    0    0  0.20563270484E+02  0.20306491660E+02 -0.12153821130E+03  0.12492693266E+03  0.00000000000E+00 0.  1.
          2    1    1    2  501    0  0.23111096061E+02  0.74436449739E+02  0.77331767607E+01  0.78324388499E+02  0.00000000000E+00 0. -1.
<scales pt_clust_5="13000.00000" pt_clust_6="13000.00000" pt_clust_7="13000.00000" pt_clust_8="13000.00000" pt_clust_9="77.94169"></scales>
<clustering>
<clus scale="   77.942">  1  9  2 -1</clus>
<clus scale="   91.126">  5  6 -1 -1</clus>
<clus scale="   91.492">  7  8 -1 -1</clus>
<clus scale="  102.412">  2  5  1 -1</clus>
<clus scale="   77.942">  1  5  2 -1</clus>
</clustering>
</event>
<event>
 9    1  0.1464797E-005  0.1259727E+03  0.7546771E-02  0.1235537E+00
          1   -1    0    0  502    0 -0.00000000000E+00  0.00000000000E+00  0.45499420161E+03  0.45499420161E+03  0.00000000000E+00 0. -1.
         21   -1    0    0  501  502  0.00000000000E+00 -0.00000000000E+00 -0.53479223055E+02  0.53479223055E+02  0.00000000000E+00 0.  1.
         23    2    1    2    0    0 -0.19713721690E+02  0.69599649933E+02  0.23107882397E+03  0.25971458410E+03  0.93922841818E+02 0.  0.
         23    2    1    2    0    0 -0.18077996596E+02 -0.87245751155E+02  0.15318445592E+03  0.20362326739E+03  0.10029118819E+03 0.  0.
        -13    1    3    3    0    0 -0.46635539090E+02  0.45073909352E+02  0.73688544196E+02  0.98165841086E+02  0.00000000000E+00 0.  1.
         13    1    3    3    0    0  0.26921817400E+02  0.24525740581E+02  0.15739027977E+03  0.16154874302E+03  0.00000000000E+00 0. -1.
        -13    1    4    4    0    0  0.24845594622E+02 -0.47878827290E+02  0.18737811380E+02  0.57103338345E+02  0.00000000000E+00 0. -1.
         13    1    4    4    0    0 -0.42923591218E+02 -0.39366923864E+02  0.13444664454E+03  0.14651992904E+03  0.00000000000E+00 0.  1.
          1    1    1    2  501    0  0.37791718286E+02  0.17646101222E+02  0.17251698666E+02  0.45135573179E+02  0.00000000000E+00 0. -1.
<scales pt_clust_5="13000.00000" pt_clust_6="13000.00000" pt_clust_7="13000.00000" pt_clust_8="13000.00000" pt_clust_9="41.70850"></scales>
<clustering>
<clus scale="   41.708">  2  9  1 -1</clus>
<clus scale="   93.923">  5  6 -1 -1</clus>
<clus scale="  100.291">  7  8 -1 -1</clus>
<clus scale="  120.964">  1  5  2 -1</clus>
<clus scale="   41.708">  2  5  1 -1</clus>
</clustering>
</event>
<event>
 9    1  0.1464797E-005  0.1229147E+03  0.7546771E-02  0.1238840E+00
          2   -1    0    0  502    0 -0.00000000000E+00  0.00000000000E+00  0.10563017266E+04  0.10563017266E+04  0.00000000000E+00 0. -1.
         21   -1    0    0  501  502  0.00000000000E+00 -0.00000000000E+00 -0.18703534211E+02  0.18703534211E+02  0.00000000000E+00 0.  1.
         23    2    1    2    0    0  0.81402446663E+02  0.41157799337E+01  0.59513915356E+03  0.60758942092E+03  0.91274280899E+02 0.  0.
         23    2    1    2    0    0 -0.83717966953E+02  0.18834149755E+02  0.32894614902E+03  0.35158304202E+03  0.89675210049E+02 0.  0.
        -11    1    4    4    0    0 -0.67958512849E+02 -0.13746137304E+02  0.29099617346E+03  0.29914225501E+03  0.00000000000E+00 0. -1.
         11    1    4    4    0    0 -0.15759454104E+02  0.32580287059E+02  0.37949975554E+02  0.52440787018E+02  0.00000000000E+00 0.  1.
        -13    1    3    3    0    0  0.12732885592E+01 -0.29769898966E+02  0.84680930752E+02  0.89770419299E+02  0.00000000000E+00 0. -1.
         13    1    3    3    0    0  0.80129158104E+02  0.33885678899E+02  0.51045822280E+03  0.51781900162E+03  0.00000000000E+00 0.  1.
          2    1    1    2  501    0  0.23155202901E+01 -0.22949929689E+02  0.11351288981E+03  0.11583279786E+03  0.00000000000E+00 0. -1.
<scales pt_clust_5="13000.00000" pt_clust_6="13000.00000" pt_clust_7="13000.00000" pt_clust_8="13000.00000" pt_clust_9="23.06646"></scales>
<clustering>
<clus scale="   23.066">  2  9  1 -1</clus>
<clus scale="   89.675">  5  6 -1 -1</clus>
<clus scale="   91.274">  7  8 -1 -1</clus>
<clus scale="  121.732">  2  5  1 -1</clus>
<clus scale="   23.066">  2  5  1 -1</clus>
</clustering>
</event>
<event>
 9    1  0.1464797E-005  0.1500919E+03  0.7546771E-02  0.1200584E+00
          2   -1    0    0  502    0 -0.00000000000E+00  0.00000000000E+00  0.31282844920E+03  0.31282844920E+03  0.00000000000E+00 0. -1.
         21   -1    0    0  501  502  0.00000000000E+00 -0.00000000000E+00 -0.12966947310E+03  0.12966947310E+03  0.00000000000E+00 0. -1.
         23    2    1    2    0    0 -0.67309472428E+02  0.97939043756E+02  0.19289823434E+03  0.24418614579E+03  0.91074275255E+02 0.  0.
         23    2    1    2    0    0  0.93880816583E+02 -0.81316163430E+02 -0.35936322886E+02  0.15746275355E+03  0.89873095513E+02 0.  0.
        -11    1    3    3    0    0 -0.50586447592E+02  0.15659580036E+01  0.51072705758E+02  0.71901753650E+02  0.00000000000E+00 0.  1.
         11    1    3    3    0    0 -0.16723024836E+02  0.96373085752E+02  0.14182552859E+03  0.17228439214E+03  0.00000000000E+00 0. -1.
        -13    1    4    4    0    0  0.39230267295E+02 -0.89796188244E+02 -0.23875707253E+02  0.10085840913E+03  0.00000000000E+00 0.  1.
         13    1    4    4    0    0  0.54650549289E+02  0.84800248142E+01 -0.12060615633E+02  0.56604344425E+02  0.00000000000E+00 0. -1.
          2    1    1    2  501    0 -0.26571344155E+02 -0.16622880326E+02  0.26197064638E+02  0.40849022953E+02  0.00000000000E+00 0. -1.
<scales pt_clust_5="13000.00000" pt_clust_6="13000.00000" pt_clust_7="13000.00000" pt_clust_8="13000.00000" pt_clust_9="31.34258"></scales>
<clustering>
<clus scale="   31.343">  2  9  1 -1</clus>
<clus scale="   89.873">  7  8 -1 -1</clus>
<clus scale="   91.074">  5  6 -1 -1</clus>
<clus scale="  149.366">  2  7  1 -1</clus>
<clus scale="   31.343">  2  5  1 -1</clus>
</clustering>
</event>
<event>
 9    1  0.1464797E-005  0.2124342E+03  0.7546771E-02  0.1139924E+00
          3   -1    0    0  502    0 -0.00000000000E+00  0.00000000000E+00  0.50270011984E+03  0.50270011984E+03  0.00000000000E+00 0. -1.
         21   -1    0    0  501  502  0.00000000000E+00 -0.00000000000E+00 -0.46780090775E+03  0.46780090775E+03  0.00000000000E+00 0.  1.
         23    2    1    2    0    0  0.80461783505E+02  0.17705047473E+03  0.43543849035E+03  0.48532149201E+03  0.90051665821E+02 0.  0.
         23    2    1    2    0    0 -0.10227556896E+03 -0.14281659394E+03 -0.19772447568E+03  0.27834229527E+03  0.86732886163E+02 0.  0.
        -11    1    3    3    0    0 -0.10210965379E+02  0.48638770290E+02  0.16704037978E+03  0.17427702737E+03  0.00000000000E+00 0.  1.
         11    1    3    3    0    0  0.90672748884E+02  0.12841170444E+03  0.26839811057E+03  0.31104446464E+03  0.00000000000E+00 0. -1.
        -13    1    4    4    0    0 -0.55015302678E+02 -0.17527207942E+02 -0.34666127815E+02  0.67347063519E+02  0.00000000000E+00 0. -1.
         13    1    4    4    0    0 -0.47260266286E+02 -0.12528938600E+03 -0.16305834786E+03  0.21099523175E+03  0.00000000000E+00 0.  1.
          3    1    1    2  501    0  0.21813785459E+02 -0.34233880783E+02 -0.20281480259E+03  0.20683724031E+03  0.00000000000E+00 0. -1.
<scales pt_clust_5="13000.00000" pt_clust_6="13000.00000" pt_clust_7="13000.00000" pt_clust_8="13000.00000" pt_clust_9="40.59310"></scales>
<clustering>
<clus scale="   40.593">  2  9  1 -1</clus>
<clus scale="   86.733">  7  8 -1 -1</clus>
<clus scale="   90.052">  5  6 -1 -1</clus>
<clus scale="  211.049">  2  7  1 -1</clus>
<clus scale="   40.593">  2  5  1 -1</clus>
</clustering>
</event>
<event>
 9    1  0.1534892E-005  0.9986503E+02  0.7546771E-02  0.1281130E+00
         21   -1    0    0  501  502  0.00000000000E+00  0.00000000000E+00  0.16234122757E+03  0.16234122757E+03  0.00000000000E+00 0. -1.
         -4   -1    0    0    0  501 -0.00000000000E+00 -0.00000000000E+00 -0.35338448474E+03  0.35338448474E+03  0.00000000000E+00 0.  1.
         23    2    1    2    0    0  0.26300792529E+02  0.25609454500E+02 -0.22332274296E+03  0.24452718349E+03  0.92590064778E+02 0.  0.
         23    2    1    2    0    0 -0.48454473031E+02  0.24509898815E+02 -0.87664837989E+02  0.13932974577E+03  0.93696761630E+02 0.  0.
        -13    1    3    3    0    0  0.45766644819E+02  0.72503279323E+01 -0.20920148326E+03  0.21427182183E+03  0.00000000000E+00 0.  1.
         13    1    3    3    0    0 -0.19465852290E+02  0.18359126568E+02 -0.14121259704E+02  0.30255361663E+02  0.00000000000E+00 0. -1.
        -13    1    4    4    0    0 -0.19085158123E+02  0.41387518970E+02 -0.94369873855E+02  0.10479906048E+03  0.00000000000E+00 0.  1.
         13    1    4    4    0    0 -0.29369314908E+02 -0.16877620155E+02  0.67050358659E+01  0.34530685285E+02  0.00000000000E+00 0. -1.
         -4    1    1    2    0  502  0.22153680502E+02 -0.50119353315E+02  0.11994432378E+03  0.13186878305E+03  0.00000000000E+00 0.  1.
<scales pt_clust_5="13000.00000" pt_clust_6="13000.00000" pt_clust_7="13000.00000" pt_clust_8="13000.00000" pt_clust_9="54.79722"></scales>
<clustering>
<clus scale="   54.797">  1  9  2 -1</clus>
<clus scale="   92.590">  5  6 -1 -1</clus>
<clus scale="   93.697">  7  8 -1 -1</clus>
<clus scale="   98.827">  2  5  1 -1</clus>
<clus scale="   54.797">  1  5  2 -1</clus>
</clustering>
</event>
<event>
 9    1  0.1464797E-005  0.1090964E+03  0.7546771E-02  0.1262266E+00
          1   -1    0    0  502    0 -0.00000000000E+00  0.00000000000E+00  0.73798571349E+03  0.73798571349E+03  0.00000000000E+00 0. -1.
         21   -1    0    0  501  502  0.00000000000E+00 -0.00000000000E+00 -0.26485273904E+02  0.26485273904E+02  0.00000000000E+00 0.  1.
         23    2    1    2    0    0  0.73383923064E+02 -0.34235320213E+01  0.42176768681E+03  0.43759772101E+03  0.90591738399E+02 0.  0.
         23    2    1    2    0    0 -0.40334829591E+02  0.28112474730E+02  0.24610698717E+03  0.26683166500E+03  0.90627140512E+02 0.  0.
        -11    1    4    4    0    0 -0.49272313181E+02 -0.48663368793E+01  0.60842448686E+02  0.78442626441E+02  0.00000000000E+00 0.  1.
         11    1    4    4    0    0  0.89374835904E+01  0.32978811610E+02  0.18526453849E+03  0.18838903856E+03  0.00000000000E+00 0. -1.
        -13    1    3    3    0    0  0.58038575917E+02  0.33826322413E+02  0.33843553145E+03  0.34503812156E+03  0.00000000000E+00 0.  1.
         13    1    3    3    0    0  0.15345347147E+02 -0.37249854434E+02  0.83332155355E+02  0.92559599451E+02  0.00000000000E+00 0. -1.
          1    1    1    2  501    0 -0.33049093473E+02 -0.24688942709E+02  0.43625765600E+02  0.60041601375E+02  0.00000000000E+00 0. -1.
<scales pt_clust_5="13000.00000" pt_clust_6="13000.00000" pt_clust_7="13000.00000" pt_clust_8="13000.00000" pt_clust_9="41.25271"></scales>
<clustering>
<clus scale="   41.253">  2  9  1 -1</clus>
<clus scale="   90.592">  7  8 -1 -1</clus>
<clus scale="   90.627">  5  6 -1 -1</clus>
<clus scale="  109.067">  1  7  2 -1</clus>
<clus scale="   41.253">  2  5  1 -1</clus>
</clustering>
</event>
<event>
 9    1  0.1464797E-005  0.1662206E+03  0.7546771E-02  0.1182151E+00
         -3   -1    0    0    0  501 -0.00000000000E+00  0.00000000000E+00  0.52628240337E+03  0.52628240337E+03  0.00000000000E+00 0.  1.
         21   -1    0    0  501  502  0.00000000000E+00 -0.00000000000E+00 -0.22586231266E+03  0.22586231266E+03  0.00000000000E+00 0.  1.
         23    2    1    2    0    0 -0.66516107710E+02  0.11682892598E+03  0.40452266643E+03  0.43600436629E+03  0.91585092870E+02 0.  0.
         23    2    1    2    0    0  0.88739282514E+02 -0.13442980781E+03  0.23182860318E+02  0.18573619810E+03  0.89523498508E+02 0.  0.
        -13    1    3    3    0    0 -0.32702615072E+02 -0.74490226782E+01  0.95365039353E+02  0.10109124444E+03  0.00000000000E+00 0.  1.
         13    1    3    3    0    0 -0.33813492638E+02  0.12427794865E+03  0.30915762708E+03  0.33491312185E+03  0.00000000000E+00 0. -1.
        -13    1    4    4    0    0  0.58785199184E+02 -0.40197624902E+02 -0.25346046604E+02  0.75590811408E+02  0.00000000000E+00 0. -1.
         13    1    4    4    0    0  0.29954083330E+02 -0.94232182904E+02  0.48528906922E+02  0.11014538669E+03  0.00000000000E+00 0.  1.
         -3    1    1    2    0  502 -0.22223174805E+02  0.17600881829E+02 -0.12728543603E+03  0.13040415164E+03  0.00000000000E+00 0.  1.
<scales pt_clust_5="13000.00000" pt_clust_6="13000.00000" pt_clust_7="13000.00000" pt_clust_8="13000.00000" pt_clust_9="28.34891"></scales>
<clustering>
<clus scale="   28.349">  2  9  1 -1</clus>
<clus scale="   89.523">  7  8 -1 -1</clus>
<clus scale="   91.585">  5  6 -1 -1</clus>
<clus scale="  165.094">  2  7  1 -1</clus>
<clus scale="   28.349">  2  5  1 -1</clus>
</clustering>
</event>
<event>
 9    1  0.1464797E-005  0.9981964E+02  0.7546771E-02  0.1281961E+00
          2   -1    0    0  502    0 -0.00000000000E+00  0.00000000000E+00  0.45643350219E+03  0.45643350219E+03  0.00000000000E+00 0. -1.
         21   -1    0    0  501  502  0.00000000000E+00 -0.00000000000E+00 -0.29903501522E+02  0.29903501522E+02  0.00000000000E+00 0.  1.
         23    2    1    2    0    0 -0.30400824801E+02  0.30959912465E+02  0.25460000217E+03  0.27421638197E+03  0.92145193621E+02 0.  0.
         23    2    1    2    0    0  0.68155317130E+01 -0.34490444852E+02  0.15656355746E+03  0.18375059849E+03  0.89532634626E+02 0.  0.
        -11    1    4    4    0    0 -0.85536444195E+01 -0.56885880709E+02  0.58701389122E+02  0.82188936857E+02  0.00000000000E+00 0.  1.
         11    1    4    4    0    0  0.15369176133E+02  0.22395435857E+02  0.97862168338E+02  0.10156166163E+03  0.00000000000E+00 0. -1.
        -13    1    3    3    0    0 -0.44650736435E+02  0.52304583938E+02  0.13072547851E+03  0.14771123348E+03  0.00000000000E+00 0. -1.
         13    1    3    3    0    0  0.14249911634E+02 -0.21344671473E+02  0.12387452366E+03  0.12650514849E+03  0.00000000000E+00 0.  1.
          2    1    1    2  501    0  0.23585293088E+02  0.35305323877E+01  0.15366441039E+02  0.28370023250E+02  0.00000000000E+00 0. -1.
<scales pt_clust_5="13000.00000" pt_clust_6="13000.00000" pt_clust_7="13000.00000" pt_clust_8="13000.00000" pt_clust_9="23.84808"></scales>
<clustering>
<clus scale="   23.848">  2  9  1 -1</clus>
<clus scale="   89.533">  5  6 -1 -1</clus>
<clus scale="   92.145">  7  8 -1 -1</clus>
<clus scale="   97.413">  2  5  1 -1</clus>
<clus scale="   23.848">  2  5  1 -1</clus>
</clustering>
</event>
<event>
 9    1  0.1464797E-005  0.2473822E+03  0.7546771E-02  0.1114997E+00
         21   -1    0    0  501  502  0.00000000000E+00  0.00000000000E+00  0.18179466851E+03  0.18179466851E+03  0.00000000000E+00 0.  1.
          1   -1    0    0  502    0 -0.00000000000E+00 -0.00000000000E+00 -0.58044014868E+03  0.58044014868E+03  0.00000000000E+00 0. -1.
         23    2    1    2    0    0  0.23165477460E+03  0.53874967985E+02 -0.40196151458E+03  0.47600408203E+03  0.91871541511E+02 0.  0.
         23    2    1    2    0    0 -0.20878464028E+03 -0.16922171155E+02 -0.31284065157E+02  0.23068148560E+03  0.91421382450E+02 0.  0.
        -13    1    4    4    0    0 -0.12739527432E+03  0.22744197919E+02 -0.49087589356E+02  0.13840681301E+03  0.00000000000E+00 0. -1.
         13    1    4    4    0    0 -0.81389365964E+02 -0.39666369073E+02  0.17803524199E+02  0.92274672589E+02  0.00000000000E+00 0.  1.
        -13    1    3    3    0    0  0.14588646013E+02 -0.17032016331E+02 -0.15997446309E+02  0.27546986427E+02  0.00000000000E+00 0.  1.
         13    1    3    3    0    0  0.21706612859E+03  0.70906984316E+02 -0.38596406827E+03  0.44845709561E+03  0.00000000000E+00 0. -1.
          1    1    1    2  501    0 -0.22870134317E+02 -0.36952796831E+02  0.34600099563E+02  0.55549249564E+02  0.00000000000E+00 0. -1.
<scales pt_clust_5="13000.00000" pt_clust_6="13000.00000" pt_clust_7="13000.00000" pt_clust_8="13000.00000" pt_clust_9="43.45748"></scales>
<clustering>
<clus scale="   43.457">  1  9  2 -1</clus>
<clus scale="   91.421">  5  6 -1 -1</clus>
<clus scale="   91.872">  7  8 -1 -1</clus>
<clus scale="  247.215">  1  5  2 -1</clus>
<clus scale="   43.457">  1  5  2 -1</clus>
</clustering>
</event>
<event>
 9    1  0.1464797E-005  0.1180584E+03  0.7546771E-02  0.1246430E+00
          1   -1    0    0  502    0 -0.00000000000E+00  0.00000000000E+00  0.65601670205E+03  0.65601670205E+03  0.00000000000E+00 0. -1.
         21   -1    0    0  501  502  0.00000000000E+00 -0.00000000000E+00 -0.44445868351E+02  0.44445868351E+02  0.00000000000E+00 0.  1.
         23    2    1    2    0    0  0.65316100698E+02  0.18101536820E+02  0.39519374149E+03  0.41130648613E+03  0.91657370541E+02 0.  0.
         23    2    1    2    0    0 -0.85947206372E+02 -0.18273384498E+02  0.23125510430E+03  0.26371935302E+03  0.91368129166E+02 0.  0.
        -13    1    3    3    0    0  0.87472743256E+02  0.44510789747E+01  0.31816564938E+03  0.33000102025E+03  0.00000000000E+00 0. -1.
         13    1    3    3    0    0 -0.22156642559E+02  0.13650457846E+02  0.77028092104E+02  0.81305465881E+02  0.00000000000E+00 0.  1.
        -13    1    4    4    0    0 -0.65305150844E+02  0.83596027260E+01  0.21763392766E+03  0.22737451958E+03  0.00000000000E+00 0. -1.
         13    1    4    4    0    0 -0.20642055528E+02 -0.26632987224E+02  0.13621176643E+02  0.36344833443E+02  0.00000000000E+00 0.  1.
          1    1    1    2  501    0  0.20631105674E+02  0.17184767740E+00 -0.14878012092E+02  0.25436731252E+02  0.00000000000E+00 0. -1.
<scales pt_clust_5="13000.00000" pt_clust_6="13000.00000" pt_clust_7="13000.00000" pt_clust_8="13000.00000" pt_clust_9="20.63182"></scales>
<clustering>
<clus scale="   20.632">  2  9  1 -1</clus>
<clus scale="   91.368">  7  8 -1 -1</clus>
<clus scale="   91.657">  5  6 -1 -1</clus>
<clus scale="  117.834">  2  7  1 -1</clus>
<clus scale="   20.632">  2  5  1 -1</clus>
</clustering>
</event>
<event>
 9    1  0.1464797E-005  0.1158250E+03  0.7546771E-02  0.1254149E+00
         -3   -1    0    0    0  501 -0.00000000000E+00  0.00000000000E+00  0.74234317832E+03  0.74234317832E+03  0.00000000000E+00 0.  1.
         21   -1    0    0  501  502  0.00000000000E+00 -0.00000000000E+00 -0.41883537650E+02  0.41883537650E+02  0.00000000000E+00 0.  1.
         23    2    1    2    0    0 -0.56691409990E+02  0.19887434264E+02  0.35145294589E+03  0.36742738701E+03  0.88737171153E+02 0.  0.
         23    2    1    2    0    0  0.61207229706E+02  0.50277866140E+00  0.36954682187E+03  0.38750683449E+03  0.99247747913E+02 0.  0.
        -11    1    4    4    0    0  0.70813916402E+02  0.34562242286E+02  0.28856805884E+03  0.29913322104E+03  0.00000000000E+00 0. -1.
         11    1    4    4    0    0 -0.96066866955E+01 -0.34059463625E+02  0.80978763035E+02  0.88373613450E+02  0.00000000000E+00 0.  1.
        -11    1    3    3    0    0 -0.75526352999E+02 -0.48461626841E+01  0.26285427250E+03  0.27353260110E+03  0.00000000000E+00 0.  1.
         11    1    3    3    0    0  0.18834943009E+02  0.24733596948E+02  0.88598673386E+02  0.93894785914E+02  0.00000000000E+00 0. -1.
         -3    1    1    2    0  502 -0.45158197164E+01 -0.20390212926E+02 -0.20540127095E+02  0.29292494464E+02  0.00000000000E+00 0.  1.
<scales pt_clust_5="13000.00000" pt_clust_6="13000.00000" pt_clust_7="13000.00000" pt_clust_8="13000.00000" pt_clust_9="20.88429"></scales>
<clustering>
<clus scale="   20.884">  2  9  1 -1</clus>
<clus scale="   88.737">  7  8 -1 -1</clus>
<clus scale="   99.248">  5  6 -1 -1</clus>
<clus scale="  106.956">  1  7  2 -1</clus>
<clus scale="   20.884">  2  5  1 -1</clus>
</clustering>
</event>
<event>
 9    1  0.1464797E-005  0.2558550E+03  0.7546771E-02  0.1109735E+00
          2   -1    0    0  502    0 -0.00000000000E+00  0.00000000000E+00  0.33955023435E+03  0.33955023435E+03  0.00000000000E+00 0. -1.
         21   -1    0    0  501  502  0.00000000000E+00 -0.00000000000E+00 -0.87831709533E+03  0.87831709533E+03  0.00000000000E+00 0.  1.
         23    2    1    2    0    0 -0.17927766919E+03 -0.16227039663E+03  0.26240600486E+03  0.36873896001E+03  0.92948076634E+02 0.  0.
         23    2    1    2    0    0  0.12347881638E+03  0.16041743736E+03 -0.58238264136E+03  0.62332733389E+03  0.91578665174E+02 0.  0.
        -13    1    3    3    0    0 -0.16390719167E+03 -0.14920536729E+03  0.26802265815E+03  0.34779872685E+03  0.00000000000E+00 0. -1.
         13    1    3    3    0    0 -0.15370477514E+02 -0.13065029338E+02 -0.56166532970E+01  0.20940233162E+02  0.00000000000E+00 0.  1.
        -13    1    4    4    0    0  0.65581833248E+02  0.13461426648E+03 -0.48091952465E+03  0.50369193638E+03  0.00000000000E+00 0.  1.
         13    1    4    4    0    0  0.57896983136E+02  0.25803170876E+02 -0.10146311671E+03  0.11963539751E+03  0.00000000000E+00 0. -1.
          2    1    1    2  501    0  0.55798852804E+02  0.18529592742E+01 -0.21879022448E+03  0.22580103578E+03  0.00000000000E+00 0. -1.
<scales pt_clust_5="13000.00000" pt_clust_6="13000.00000" pt_clust_7="13000.00000" pt_clust_8="13000.00000" pt_clust_9="55.82961"></scales>
<clustering>
<clus scale="   55.830">  2  9  1 -1</clus>
<clus scale="   91.579">  7  8 -1 -1</clus>
<clus scale="   92.948">  5  6 -1 -1</clus>
<clus scale="  255.361">  2  7  1 -1</clus>
<clus scale="   55.830">  2  5  1 -1</clus>
</clustering>
</event>
<event>
 9    1  0.1464797E-005  0.9885615E+02  0.7546771E-02  0.1284466E+00
         21   -1    0    0  501  502  0.00000000000E+00  0.00000000000E+00  0.12427126726E+03  0.12427126726E+03  0.00000000000E+00 0.  1.
          1   -1    0    0  502    0 -0.00000000000E+00 -0.00000000000E+00 -0.12040452688E+03  0.12040452688E+03  0.00000000000E+00 0. -1.
         23    2    1    2    0    0  0.29251686863E+02  0.25455184040E+02 -0.32120273998E+02  0.10767188225E+03  0.95172972248E+02 0.  0.
         23    2    1    2    0    0 -0.10538994074E+01 -0.14578058650E+02  0.41106828324E+01  0.93077523625E+02  0.91830807428E+02 0.  0.
        -11    1    4    4    0    0 -0.32584624057E+02 -0.39086552116E+02 -0.76200587687E+01  0.51454655542E+02  0.00000000000E+00 0. -1.
         11    1    4    4    0    0  0.31530724650E+02  0.24508493466E+02  0.11730741601E+02  0.41622868083E+02  0.00000000000E+00 0.  1.
        -13    1    3    3    0    0  0.35123199345E+02 -0.24236108532E+01 -0.58868349012E+02  0.68592970027E+02  0.00000000000E+00 0.  1.
         13    1    3    3    0    0 -0.58715124821E+01  0.27878794893E+02  0.26748075014E+02  0.39078912222E+02  0.00000000000E+00 0. -1.
          1    1    1    2  501    0 -0.28197787456E+02 -0.10877125389E+02  0.31876331545E+02  0.43926388275E+02  0.00000000000E+00 0. -1.
<scales pt_clust_5="13000.00000" pt_clust_6="13000.00000" pt_clust_7="13000.00000" pt_clust_8="13000.00000" pt_clust_9="30.22296"></scales>
<clustering>
<clus scale="   30.223">  1  9  2 -1</clus>
<clus scale="   91.831">  5  6 -1 -1</clus>
<clus scale="   95.173">  7  8 -1 -1</clus>
<clus scale="   95.643">  1  5  2 -1</clus>
<clus scale="   30.223">  1  5  2 -1</clus>
</clustering>
</event>
<event>
 9    1  0.1464797E-005  0.1494024E+03  0.7546771E-02  0.1201575E+00
         21   -1    0    0  501  502  0.00000000000E+00  0.00000000000E+00  0.43577972336E+02  0.43577972336E+02  0.00000000000E+00 0.  1.
          1   -1    0    0  502    0 -0.00000000000E+00 -0.00000000000E+00 -0.90549576419E+03  0.90549576419E+03  0.00000000000E+00 0. -1.
         23    2    1    2    0    0 -0.11740365844E+03  0.57218634670E+02 -0.54987109562E+03  0.57299739139E+03  0.94393842870E+02 0.  0.
         23    2    1    2    0    0  0.10126609708E+03 -0.19600314286E+01 -0.27584865466E+03  0.30807463683E+03  0.92513985117E+02 0.  0.
        -13    1    4    4    0    0  0.35937935572E+02 -0.42733032582E+02 -0.79359523467E+02  0.97033918048E+02  0.00000000000E+00 0.  1.
         13    1    4    4    0    0  0.65328161504E+02  0.40773001153E+02 -0.19648913119E+03  0.21104071878E+03  0.00000000000E+00 0. -1.
        -13    1    3    3    0    0 -0.96645681629E+02  0.39390844947E+02 -0.52729328937E+03  0.53752231531E+03  0.00000000000E+00 0. -1.
         13    1    3    3    0    0 -0.20757976806E+02  0.17827789723E+02 -0.22577806247E+02  0.35475076074E+02  0.00000000000E+00 0.  1.
          1    1    1    2  501    0  0.16137561360E+02 -0.55258603242E+02 -0.36198041581E+02  0.68001708311E+02  0.00000000000E+00 0. -1.
<scales pt_clust_5="13000.00000" pt_clust_6="13000.00000" pt_clust_7="13000.00000" pt_clust_8="13000.00000" pt_clust_9="57.56678"></scales>
<clustering>
<clus scale="   57.567">  1  9  2 -1</clus>
<clus scale="   92.514">  5  6 -1 -1</clus>
<clus scale="   94.394">  7  8 -1 -1</clus>
<clus scale="  148.222">  1  5  2 -1</clus>
<clus scale="   57.567">  1  5  2 -1</clus>
</clustering>
</event>
<event>
 9    1  0.1464797E-005  0.1093952E+03  0.7546771E-02  0.1262066E+00
          3   -1    0    0  502    0 -0.00000000000E+00  0.00000000000E+00  0.40047751634E+03  0.40047751634E+03  0.00000000000E+00 0. -1.
         21   -1    0    0  501  502  0.00000000000E+00 -0.00000000000E+00 -0.17439002056E+03  0.17439002056E+03  0.00000000000E+00 0. -1.
         23    2    1    2    0    0 -0.47404449133E+02  0.24143032990E+02  0.27107697499E+03  0.29165398113E+03  0.93537428343E+02 0.  0.
         23    2    1    2    0    0  0.45490552375E+02 -0.53640606571E+02  0.88725379771E+02  0.14627038011E+03  0.92607375798E+02 0.  0.
        -11    1    4    4    0    0  0.58062866596E+02 -0.35173578341E+02  0.15391000026E+02  0.69608619958E+02  0.00000000000E+00 0.  1.
         11    1    4    4    0    0 -0.12572314220E+02 -0.18467028230E+02  0.73334379745E+02  0.76661760149E+02  0.00000000000E+00 0. -1.
        -13    1    3    3    0    0  0.18686393379E+02  0.25101399531E+02  0.15454628230E+03  0.15768263991E+03  0.00000000000E+00 0.  1.
         13    1    3    3    0    0 -0.66090842512E+02 -0.95836654166E+00  0.11653069269E+03  0.13397134122E+03  0.00000000000E+00 0. -1.
          3    1    1    2  501    0  0.19138967582E+01  0.29497573582E+02 -0.13371485898E+03  0.13694317566E+03  0.00000000000E+00 0. -1.
<scales pt_clust_5="13000.00000" pt_clust_6="13000.00000" pt_clust_7="13000.00000" pt_clust_8="13000.00000" pt_clust_9="29.55960"></scales>
<clustering>
<clus scale="   29.560">  2  9  1 -1</clus>
<clus scale="   92.607">  5  6 -1 -1</clus>
<clus scale="   93.537">  7  8 -1 -1</clus>
<clus scale="  108.601">  2  5  1 -1</clus>
<clus scale="   29.560">  2  5  1 -1</clus>
</clustering>
</event>
<event>
 9    1  0.1464797E-005  0.1073707E+03  0.7546771E-02  0.1266248E+00
         21   -1    0    0  501  502  0.00000000000E+00  0.00000000000E+00  0.11545631747E+03  0.11545631747E+03  0.00000000000E+00 0. -1.
          1   -1    0    0  502    0 -0.00000000000E+00 -0.00000000000E+00 -0.38162434614E+03  0.38162434614E+03  0.00000000000E+00 0. -1.
         23    2    1    2    0    0  0.26507414554E+02  0.38337651483E+02 -0.17847695962E+03  0.20525179932E+03  0.90010318634E+02 0.  0.
         23    2    1    2    0    0 -0.11901313386E+02 -0.70210397815E+02 -0.16796838396E+03  0.20422944968E+03  0.91788609778E+02 0.  0.
        -13    1    4    4    0    0  0.20308850573E+02  0.11701229491E+02 -0.15250540317E+02  0.27963318171E+02  0.00000000000E+00 0.  1.
         13    1    4    4    0    0 -0.32210163959E+02 -0.81911627305E+02 -0.15271784364E+03  0.17626613151E+03  0.00000000000E+00 0. -1.
        -13    1    3    3    0    0  0.49876586025E+02  0.40973084967E+02 -0.74159490129E+02  0.98316313506E+02  0.00000000000E+00 0.  1.
         13    1    3    3    0    0 -0.23369171471E+02 -0.26354334835E+01 -0.10431746949E+03  0.10693548581E+03  0.00000000000E+00 0. -1.
          1    1    1    2  501    0 -0.14606101168E+02  0.31872746331E+02  0.80277314911E+02  0.87599414607E+02  0.00000000000E+00 0. -1.
<scales pt_clust_5="13000.00000" pt_clust_6="13000.00000" pt_clust_7="13000.00000" pt_clust_8="13000.00000" pt_clust_9="35.06009"></scales>
<clustering>
<clus scale="   35.060">  1  9  2 -1</clus>
<clus scale="   90.010">  7  8 -1 -1</clus>
<clus scale="   91.789">  5  6 -1 -1</clus>
<clus scale="  105.855">  2  7  1 -1</clus>
<clus scale="   35.060">  1  5  2 -1</clus>
</clustering>
</event>
<event>
 9    1  0.1464797E-005  0.9195247E+02  0.7546771E-02  0.1298384E+00
         21   -1    0    0  501  502  0.00000000000E+00  0.00000000000E+00  0.23614941173E+03  0.23614941173E+03  0.00000000000E+00 0.  1.
         -4   -1    0    0    0  501 -0.00000000000E+00 -0.00000000000E+00 -0.97340303674E+02  0.97340303674E+02  0.00000000000E+00 0.  1.
         23    2    1    2    0    0 -0.26714340091E+02  0.19182515965E+02  0.14127963552E+01  0.96939709205E+02  0.91179418412E+02 0.  0.
         23    2    1    2    0    0 -0.26092117700E+02  0.18043852678E+01  0.83387986735E+01  0.95536483171E+02  0.91507538712E+02 0.  0.
        -11    1    4    4    0    0 -0.56516150629E+02  0.47502155669E+01 -0.13090672649E+02  0.58206576435E+02  0.00000000000E+00 0.  1.
         11    1    4    4    0    0  0.30424032929E+02 -0.29458302992E+01  0.21429471323E+02  0.37329906737E+02  0.00000000000E+00 0. -1.
        -13    1    3    3    0    0  0.17314828666E+02 -0.19973223079E+02 -0.21142398845E+02  0.33848692158E+02  0.00000000000E+00 0. -1.
         13    1    3    3    0    0 -0.44029168757E+02  0.39155739044E+02  0.22555195200E+02  0.63091017047E+02  0.00000000000E+00 0.  1.
         -4    1    1    2    0  502  0.52806457791E+02 -0.20986901233E+02  0.12905751302E+03  0.14101352302E+03  0.00000000000E+00 0.  1.
<scales pt_clust_5="13000.00000" pt_clust_6="13000.00000" pt_clust_7="13000.00000" pt_clust_8="13000.00000" pt_clust_9="56.82404"></scales>
<clustering>
<clus scale="   56.824">  1  9  2 -1</clus>
<clus scale="   91.179">  7  8 -1 -1</clus>
<clus scale="   91.508">  5  6 -1 -1</clus>
<clus scale="   91.626">  2  7  1 -1</clus>
<clus scale="   56.824">  1  5  2 -1</clus>
</clustering>
</event>
<event>
 9    1  0.1464797E-005  0.1158111E+03  0.7546771E-02  0.1250244E+00
         21   -1    0    0  501  502  0.00000000000E+00  0.00000000000E+00  0.46212650819E+02  0.46212650819E+02  0.00000000000E+00 0.  1.
          1   -1    0    0  502    0 -0.00000000000E+00 -0.00000000000E+00 -0.72976278491E+03  0.72976278491E+03  0.00000000000E+00 0. -1.
         23    2    1    2    0    0 -0.50519602040E+02  0.13914827257E+02 -0.29166222606E+03  0.30963971157E+03  0.89800023758E+02 0.  0.
         23    2    1    2    0    0  0.10270480879E+03 -0.87936146741E+02 -0.24942858902E+03  0.29752485627E+03  0.89584459742E+02 0.  0.
        -11    1    4    4    0    0  0.10348654232E+02 -0.47905767717E+02 -0.33731361283E+02  0.59496739061E+02  0.00000000000E+00 0.  1.
         11    1    4    4    0    0  0.92356154558E+02 -0.40030379024E+02 -0.21569722774E+03  0.23802811721E+03  0.00000000000E+00 0. -1.
        -13    1    3    3    0    0 -0.34098223564E+02 -0.31848997758E+02 -0.81354871537E+02  0.93785194093E+02  0.00000000000E+00 0. -1.
         13    1    3    3    0    0 -0.16421378477E+02  0.45763825016E+02 -0.21030735452E+03  0.21585451748E+03  0.00000000000E+00 0.  1.
          1    1    1    2  501    0 -0.52185206749E+02  0.74021319484E+02 -0.14245931902E+03  0.16881086788E+03  0.00000000000E+00 0. -1.
<scales pt_clust_5="13000.00000" pt_clust_6="13000.00000" pt_clust_7="13000.00000" pt_clust_8="13000.00000" pt_clust_9="90.56739"></scales>
<clustering>
<clus scale="   89.584">  5  6 -1 -1</clus>
<clus scale="   89.800">  7  8 -1 -1</clus>
<clus scale="   90.567">  1  9  2 -1</clus>
<clus scale="  115.644">  1  5  2 -1</clus>
<clus scale="   90.567">  1  5  2 -1</clus>
</clustering>
</event>
<event>
 9    1  0.1464797E-005  0.1206284E+03  0.7546771E-02  0.1242634E+00
          1   -1    0    0  502    0 -0.00000000000E+00  0.00000000000E+00  0.11919189042E+04  0.11919189042E+04  0.00000000000E+00 0. -1.
         21   -1    0    0  501  502  0.00000000000E+00 -0.00000000000E+00 -0.31418894317E+02  0.31418894317E+02  0.00000000000E+00 0.  1.
         23    2    1    2    0    0  0.60878934876E+02 -0.64720812759E+02  0.50843572343E+03  0.52440132532E+03  0.92708342809E+02 0.  0.
         23    2    1    2    0    0 -0.84681770189E+02 -0.28846334987E+02  0.20399302258E+03  0.24058154127E+03  0.90902208414E+02 0.  0.
        -11    1    4    4    0    0 -0.17828505919E+02  0.32314759680E+02  0.56957810340E+02  0.67869665354E+02  0.00000000000E+00 0. -1.
         11    1    4    4    0    0 -0.66853264270E+02 -0.61161094667E+02  0.14703521224E+03  0.17271187591E+03  0.00000000000E+00 0.  1.
        -13    1    3    3    0    0  0.34319830615E+02 -0.84473414922E+02  0.42435953889E+03  0.43404449870E+03  0.00000000000E+00 0. -1.
         13    1    3    3    0    0  0.26559104261E+02  0.19752602163E+02  0.84076184533E+02  0.90356826621E+02  0.00000000000E+00 0.  1.
          1    1    1    2  501    0  0.23802835313E+02  0.93567147746E+02  0.44807126385E+03  0.45835493189E+03  0.00000000000E+00 0. -1.
<scales pt_clust_5="13000.00000" pt_clust_6="13000.00000" pt_clust_7="13000.00000" pt_clust_8="13000.00000" pt_clust_9="96.54737"></scales>
<clustering>
<clus scale="   90.902">  5  6 -1 -1</clus>
<clus scale="   92.708">  7  8 -1 -1</clus>
<clus scale="   96.547">  2  9  1 -1</clus>
<clus scale="  119.246">  2  5  1 -1</clus>
<clus scale="   96.547">  2  5  1 -1</clus>
</clustering>
</event>
<event>
 9    1  0.1464797E-005  0.1256358E+03  0.7546771E-02  0.1236198E+00
         21   -1    0    0  501  502  0.00000000000E+00  0.00000000000E+00  0.20154808301E+03  0.20154808301E+03  0.00000000000E+00 0. -1.
          3   -1    0    0  502    0 -0.00000000000E+00 -0.00000000000E+00 -0.46938588307E+03  0.46938588307E+03  0.00000000000E+00 0. -1.
         23    2    1    2    0    0  0.21470103696E+02  0.80579546164E+02 -0.36281268984E+03  0.38512747053E+03  0.98671637434E+02 0.  0.
         23    2    1    2    0    0 -0.16262557311E+02 -0.59340256579E+02 -0.62413411568E+02  0.12690620176E+03  0.91782423596E+02 0.  0.
        -13    1    4    4    0    0  0.45765293056E+01 -0.66084632377E+02 -0.61477510184E+01  0.66527573979E+02  0.00000000000E+00 0.  1.
         13    1    4    4    0    0 -0.20839086616E+02  0.67443757985E+01 -0.56265660550E+02  0.60378627784E+02  0.00000000000E+00 0. -1.
        -13    1    3    3    0    0 -0.49555737247E+01  0.69173772884E+02 -0.34358380046E+03  0.35051304755E+03  0.00000000000E+00 0. -1.
         13    1    3    3    0    0  0.26425677420E+02  0.11405773280E+02 -0.19228889383E+02  0.34614422979E+02  0.00000000000E+00 0.  1.
          3    1    1    2  501    0 -0.52075463849E+01 -0.21239289586E+02  0.15738830135E+03  0.15890029378E+03  0.00000000000E+00 0. -1.
<scales pt_clust_5="13000.00000" pt_clust_6="13000.00000" pt_clust_7="13000.00000" pt_clust_8="13000.00000" pt_clust_9="21.86838"></scales>
<clustering>
<clus scale="   21.868">  1  9  2 -1</clus>
<clus scale="   91.782">  5  6 -1 -1</clus>
<clus scale="   98.672">  7  8 -1 -1</clus>
<clus scale="  120.301">  1  5  2 -1</clus>
<clus scale="   21.868">  1  5  2 -1</clus>
</clustering>
</event>
<event>
 9    1  0.1464797E-005  0.9733925E+02  0.7546771E-02  0.1286237E+00
          1   -1    0    0  502    0 -0.00000000000E+00  0.00000000000E+00  0.23724690075E+03  0.23724690075E+03  0.00000000000E+00 0. -1.
         21   -1    0    0  501  502  0.00000000000E+00 -0.00000000000E+00 -0.82736089048E+02  0.82736089048E+02  0.00000000000E+00 0.  1.
         23    2    1    2    0    0 -0.27218156479E+02  0.69595778910E+01  0.15238126499E+03  0.17961342814E+03  0.90838702552E+02 0.  0.
         23    2    1    2    0    0  0.57597518861E+02 -0.68804070456E+01 -0.76587970162E+01  0.10845211189E+03  0.91314780956E+02 0.  0.
        -11    1    4    4    0    0  0.40311637303E+02  0.20243350211E+02 -0.41834229651E+02  0.61521736812E+02  0.00000000000E+00 0.  1.
         11    1    4    4    0    0  0.17285881558E+02 -0.27123757256E+02  0.34175432635E+02  0.46930375076E+02  0.00000000000E+00 0. -1.
        -13    1    3    3    0    0 -0.59977819990E+02  0.13790458730E+02  0.10211903111E+03  0.11923008076E+03  0.00000000000E+00 0. -1.
         13    1    3    3    0    0  0.32759663510E+02 -0.68308808387E+01  0.50262233880E+02  0.60383347381E+02  0.00000000000E+00 0.  1.
          1    1    1    2  501    0 -0.30379362382E+02 -0.79170845435E-01  0.97883437221E+01  0.31917449766E+02  0.00000000000E+00 0. -1.
<scales pt_clust_5="13000.00000" pt_clust_6="13000.00000" pt_clust_7="13000.00000" pt_clust_8="13000.00000" pt_clust_9="30.37947"></scales>
<clustering>
<clus scale="   30.379">  2  9  1 -1</clus>
<clus scale="   90.839">  7  8 -1 -1</clus>
<clus scale="   91.315">  5  6 -1 -1</clus>
<clus scale="   96.893">  1  7  2 -1</clus>
<clus scale="   30.379">  2  5  1 -1</clus>
</clustering>
</event>
<event>
 9    1  0.1464797E-005  0.1135817E+03  0.7546771E-02  0.1257071E+00
         21   -1    0    0  501  502  0.00000000000E+00  0.00000000000E+00  0.32781513877E+03  0.32781513877E+03  0.00000000000E+00 0. -1.
         -3   -1    0    0    0  501 -0.00000000000E+00 -0.00000000000E+00 -0.10257756358E+03  0.10257756358E+03  0.00000000000E+00 0.  1.
         23    2    1    2    0    0  0.18407597032E+02  0.24350301174E+02  0.24387273022E+02  0.10656496982E+03  0.99144222780E+02 0.  0.
         23    2    1    2    0    0 -0.10801987171E+03 -0.34919555603E+01  0.56214960943E+02  0.15240774454E+03  0.91583362711E+02 0.  0.
        -11    1    3    3    0    0  0.24904158987E+02  0.50598956740E+02 -0.15398231462E+02  0.58460046957E+02  0.00000000000E+00 0.  1.
         11    1    3    3    0    0 -0.64965619545E+01 -0.26248655566E+02  0.39785504484E+02  0.48104922859E+02  0.00000000000E+00 0. -1.
        -11    1    4    4    0    0 -0.73657169292E+02  0.23073678329E+02 -0.50008116611E+01  0.77348441077E+02  0.00000000000E+00 0.  1.
         11    1    4    4    0    0 -0.34362702414E+02 -0.26565633889E+02  0.61215772604E+02  0.75059303465E+02  0.00000000000E+00 0. -1.
         -3    1    1    2    0  502  0.89612274673E+02 -0.20858345614E+02  0.14463534122E+03  0.17141998800E+03  0.00000000000E+00 0.  1.
<scales pt_clust_5="13000.00000" pt_clust_6="13000.00000" pt_clust_7="13000.00000" pt_clust_8="13000.00000" pt_clust_9="92.00777"></scales>
<clustering>
<clus scale="   91.583">  7  8 -1 -1</clus>
<clus scale="   92.008">  1  9  2 -1</clus>
<clus scale="   99.144">  5  6 -1 -1</clus>
<clus scale="  107.046">  1  7  2 -1</clus>
<clus scale="   92.008">  1  5  2 -1</clus>
</clustering>
</event>
<event>
 9    1  0.1464797E-005  0.1334964E+03  0.7546771E-02  0.1225434E+00
          2   -1    0    0  502    0 -0.00000000000E+00  0.00000000000E+00  0.81638210205E+03  0.81638210205E+03  0.00000000000E+00 0. -1.
         21   -1    0    0  501  502  0.00000000000E+00 -0.00000000000E+00 -0.60478102342E+02  0.60478102342E+02  0.00000000000E+00 0. -1.
         23    2    1    2    0    0 -0.71796188292E+02  0.41414398204E+02  0.35182963058E+03  0.37008814472E+03  0.79443696267E+02 0.  0.
         23    2    1    2    0    0  0.10335673507E+03 -0.51145433312E+02  0.43634244624E+03  0.46059858291E+03  0.91966592596E+02 0.  0.
        -11    1    4    4    0    0  0.32628115411E+02  0.19770945075E+02  0.59559678526E+02  0.70730753500E+02  0.00000000000E+00 0. -1.
         11    1    4    4    0    0  0.70728619664E+02 -0.70916378387E+02  0.37678276771E+03  0.38986782941E+03  0.00000000000E+00 0.  1.
        -13    1    3    3    0    0 -0.48892575948E+02 -0.17182850859E+02  0.15246658681E+03  0.16103351961E+03  0.00000000000E+00 0.  1.
         13    1    3    3    0    0 -0.22903612344E+02  0.58597249064E+02  0.19936304377E+03  0.20905462511E+03  0.00000000000E+00 0. -1.
          2    1    1    2  501    0 -0.31560546783E+02  0.97310351075E+01 -0.32268077101E+02  0.46173476773E+02  0.00000000000E+00 0. -1.
<scales pt_clust_5="13000.00000" pt_clust_6="13000.00000" pt_clust_7="13000.00000" pt_clust_8="13000.00000" pt_clust_9="33.02667"></scales>
<clustering>
<clus scale="   33.027">  2  9  1 -1</clus>
<clus scale="   79.444">  7  8 -1 -1</clus>
<clus scale="   91.967">  5  6 -1 -1</clus>
<clus scale="  125.199">  1  7  2 -1</clus>
<clus scale="   33.027">  2  5  1 -1</clus>
</clustering>
</event>
<event>
 9    1  0.1464797E-005  0.1004088E+03  0.7546771E-02  0.1282354E+00
          2   -1    0    0  502    0 -0.00000000000E+00  0.00000000000E+00  0.10018647390E+03  0.10018647390E+03  0.00000000000E+00 0. -1.
         21   -1    0    0  501  502  0.00000000000E+00 -0.00000000000E+00 -0.18342593531E+03  0.18342593531E+03  0.00000000000E+00 0.  1.
         23    2    1    2    0    0  0.46206304148E+02 -0.51313904769E+02 -0.25684345406E+01  0.10984935731E+03  0.85394057641E+02 0.  0.
         23    2    1    2    0    0 -0.69885634001E+01  0.45495382432E+01 -0.38104843688E+02  0.99353260091E+02  0.91375887747E+02 0.  0.
        -13    1    3    3    0    0 -0.18491537770E+02 -0.13458512935E+02 -0.22710967667E+02  0.32231298328E+02  0.00000000000E+00 0. -1.
         13    1    3    3    0    0  0.64697841919E+02 -0.37855391834E+02  0.20142533126E+02  0.77618058985E+02  0.00000000000E+00 0.  1.
        -13    1    4    4    0    0  0.31490520851E+02 -0.27233971931E+02 -0.20714826535E+02  0.46502109296E+02  0.00000000000E+00 0.  1.
         13    1    4    4    0    0 -0.38479084251E+02  0.31783510174E+02 -0.17390017152E+02  0.52851150795E+02  0.00000000000E+00 0. -1.
          2    1    1    2  501    0 -0.39217740748E+02  0.46764366526E+02 -0.42566183176E+02  0.74409791803E+02  0.00000000000E+00 0. -1.
<scales pt_clust_5="13000.00000" pt_clust_6="13000.00000" pt_clust_7="13000.00000" pt_clust_8="13000.00000" pt_clust_9="61.03226"></scales>
<clustering>
<clus scale="   61.032">  2  9  1 -1</clus>
<clus scale="   85.394">  5  6 -1 -1</clus>
<clus scale="   91.376">  7  8 -1 -1</clus>
<clus scale="   94.998">  1  5  2 -1</clus>
<clus scale="   61.032">  2  5  1 -1</clus>
</clustering>
</event>
<event>
 9    1  0.1464797E-005  0.2942871E+03  0.7546771E-02  0.1100541E+00
         21   -1    0    0  501  502  0.00000000000E+00  0.00000000000E+00  0.31489242068E+03  0.31489242068E+03  0.00000000000E+00 0. -1.
          2   -1    0    0  502    0 -0.00000000000E+00 -0.00000000000E+00 -0.10515361312E+04  0.10515361312E+04  0.00000000000E+00 0. -1.
         23    2    1    2    0    0 -0.19142951430E+03 -0.15024057416E+02 -0.24525376081E+03  0.32453840030E+03  0.91130592198E+02 0.  0.
         23    2    1    2    0    0  0.64345103308E+01  0.24064872794E+03 -0.65763883635E+03  0.70608018191E+03  0.90039830211E+02 0.  0.
        -11    1    3    3    0    0 -0.88276250679E+02  0.36330511085E+02 -0.90014294338E+02  0.13120661437E+03  0.00000000000E+00 0. -1.
         11    1    3    3    0    0 -0.10315326362E+03 -0.51354568500E+02 -0.15523946647E+03  0.19333178593E+03  0.00000000000E+00 0.  1.
        -11    1    4    4    0    0  0.19194977474E+02  0.11461999934E+03 -0.43153729197E+03  0.44691232447E+03  0.00000000000E+00 0. -1.
         11    1    4    4    0    0 -0.12760467143E+02  0.12602872860E+03 -0.22610154438E+03  0.25916785743E+03  0.00000000000E+00 0.  1.
          2    1    1    2  501    0  0.18499500397E+03 -0.22562467053E+03  0.16624888662E+03  0.33580996969E+03  0.00000000000E+00 0. -1.
<scales pt_clust_5="13000.00000" pt_clust_6="13000.00000" pt_clust_7="13000.00000" pt_clust_8="13000.00000" pt_clust_9="280.17448"></scales>
<clustering>
<clus scale="   90.040">  7  8 -1 -1</clus>
<clus scale="   91.131">  5  6 -1 -1</clus>
<clus scale="  212.546">  2  5  1 -1</clus>
<clus scale="  280.174">  1  9  2 -1</clus>
<clus scale="  280.174">  1  5  2 -1</clus>
</clustering>
</event>
<event>
 9    1  0.1464797E-005  0.1149372E+03  0.7546771E-02  0.1252809E+00
         21   -1    0    0  501  502  0.00000000000E+00  0.00000000000E+00  0.29512868421E+03  0.29512868421E+03  0.00000000000E+00 0.  1.
         -1   -1    0    0    0  501 -0.00000000000E+00 -0.00000000000E+00 -0.91377221081E+02  0.91377221081E+02  0.00000000000E+00 0.  1.
         23    2    1    2    0    0  0.32264311853E+01 -0.83158508265E+02 -0.53968660338E+01  0.12584853042E+03  0.94249557513E+02 0.  0.
         23    2    1    2    0    0  0.86236116447E+01  0.31427385389E+02  0.99373307056E+02  0.13872670577E+03  0.91148217246E+02 0.  0.
        -11    1    3    3    0    0 -0.30485567755E+02 -0.72992948205E+02  0.20997617811E+02  0.81842777829E+02  0.00000000000E+00 0.  1.
         11    1    3    3    0    0  0.33711998941E+02 -0.10165560061E+02 -0.26394483845E+02  0.44005752594E+02  0.00000000000E+00 0. -1.
        -13    1    4    4    0    0  0.35871529675E+02 -0.18062502919E+02  0.37620700703E+02  0.55030335037E+02  0.00000000000E+00 0.  1.
         13    1    4    4    0    0 -0.27247918030E+02  0.49489888308E+02  0.61752606353E+02  0.83696370729E+02  0.00000000000E+00 0. -1.
         -1    1    1    2    0  502 -0.11850042830E+02  0.51731122877E+02  0.10977502211E+03  0.12193066910E+03  0.00000000000E+00 0.  1.
<scales pt_clust_5="13000.00000" pt_clust_6="13000.00000" pt_clust_7="13000.00000" pt_clust_8="13000.00000" pt_clust_9="53.07101"></scales>
<clustering>
<clus scale="   53.071">  1  9  2 -1</clus>
<clus scale="   91.148">  7  8 -1 -1</clus>
<clus scale="   94.250">  5  6 -1 -1</clus>
<clus scale="  112.408">  1  7  2 -1</clus>
<clus scale="   53.071">  1  5  2 -1</clus>
</clustering>
</event>
<event>
 9    1  0.1464797E-005  0.1048953E+03  0.7546771E-02  0.1270747E+00
         21   -1    0    0  501  502  0.00000000000E+00  0.00000000000E+00  0.59468305483E+02  0.59468305483E+02  0.00000000000E+00 0.  1.
          3   -1    0    0  502    0 -0.00000000000E+00 -0.00000000000E+00 -0.31491126649E+03  0.31491126649E+03  0.00000000000E+00 0. -1.
         23    2    1    2    0    0 -0.36137491277E+02 -0.42710531994E+02 -0.15834655013E+03  0.19086072702E+03  0.90686709947E+02 0.  0.
         23    2    1    2    0    0 -0.51531514485E+01  0.53634789079E+02 -0.91816600933E+02  0.14048243057E+03  0.91661221481E+02 0.  0.
        -11    1    4    4    0    0 -0.36682522521E+02 -0.47059472033E+01 -0.17609965139E+02  0.40961741538E+02  0.00000000000E+00 0.  1.
         11    1    4    4    0    0  0.31529371073E+02  0.58340736283E+02 -0.74206635794E+02  0.99520689036E+02  0.00000000000E+00 0. -1.
        -13    1    3    3    0    0 -0.61565599699E+02 -0.88750363937E+01 -0.75453053066E+02  0.97786770855E+02  0.00000000000E+00 0.  1.
         13    1    3    3    0    0  0.25428108422E+02 -0.33835495600E+02 -0.82893497062E+02  0.93073956162E+02  0.00000000000E+00 0. -1.
          3    1    1    2  501    0  0.41290642726E+02 -0.10924257086E+02 -0.52798099412E+01  0.43036414379E+02  0.00000000000E+00 0. -1.
<scales pt_clust_5="13000.00000" pt_clust_6="13000.00000" pt_clust_7="13000.00000" pt_clust_8="13000.00000" pt_clust_9="42.71132"></scales>
<clustering>
<clus scale="   42.711">  1  9  2 -1</clus>
<clus scale="   90.687">  7  8 -1 -1</clus>
<clus scale="   91.661">  5  6 -1 -1</clus>
<clus scale="  104.045">  2  7  1 -1</clus>
<clus scale="   42.711">  1  5  2 -1</clus>
</clustering>
</event>
<event>
 9    1  0.1464797E-005  0.9681873E+02  0.7546771E-02  0.1287671E+00
          1   -1    0    0  502    0 -0.00000000000E+00  0.00000000000E+00  0.37734598463E+03  0.37734598463E+03  0.00000000000E+00 0. -1.
         21   -1    0    0  501  502  0.00000000000E+00 -0.00000000000E+00 -0.44423667017E+02  0.44423667017E+02  0.00000000000E+00 0.  1.
         23    2    1    2    0    0  0.34422620321E+02  0.11009347835E+02  0.23739046269E+03  0.25727728594E+03  0.92364752765E+02 0.  0.
         23    2    1    2    0    0 -0.91286241293E+01  0.62402807549E+01  0.38448686499E+02  0.99717184914E+02  0.91339709827E+02 0.  0.
        -13    1    3    3    0    0 -0.31145167338E+02 -0.15663143963E+00  0.98025207421E+02  0.10285420396E+03  0.00000000000E+00 0. -1.
         13    1    3    3    0    0  0.65567787659E+02  0.11165979274E+02  0.13936525527E+03  0.15442308198E+03  0.00000000000E+00 0.  1.
        -13    1    4    4    0    0  0.27737122804E+02  0.34904537992E+02  0.25031285802E+02  0.51129639377E+02  0.00000000000E+00 0.  1.
         13    1    4    4    0    0 -0.36865746933E+02 -0.28664257237E+02  0.13417400697E+02  0.48587545537E+02  0.00000000000E+00 0. -1.
          1    1    1    2  501    0 -0.25293996192E+02 -0.17249628590E+02  0.57083168421E+02  0.64775180793E+02  0.00000000000E+00 0. -1.
<scales pt_clust_5="13000.00000" pt_clust_6="13000.00000" pt_clust_7="13000.00000" pt_clust_8="13000.00000" pt_clust_9="30.61596"></scales>
<clustering>
<clus scale="   30.616">  2  9  1 -1</clus>
<clus scale="   91.340">  7  8 -1 -1</clus>
<clus scale="   92.365">  5  6 -1 -1</clus>
<clus scale="   95.841">  2  7  1 -1</clus>
<clus scale="   30.616">  2  5  1 -1</clus>
</clustering>
</event>
<event>
 9    1  0.1464797E-005  0.9198451E+02  0.7546771E-02  0.1299813E+00
         21   -1    0    0  501  502  0.00000000000E+00  0.00000000000E+00  0.15336735457E+03  0.15336735457E+03  0.00000000000E+00 0. -1.
          3   -1    0    0  502    0 -0.00000000000E+00 -0.00000000000E+00 -0.14224602163E+03  0.14224602163E+03  0.00000000000E+00 0. -1.
         23    2    1    2    0    0 -0.38125635623E+01  0.16896458715E+02 -0.54142392133E+02  0.10747181920E+03  0.91207276789E+02 0.  0.
         23    2    1    2    0    0  0.16624783284E+02  0.49461495088E+01 -0.25773537297E+02  0.93647982352E+02  0.88344901152E+02 0.  0.
        -11    1    3    3    0    0  0.40317991814E+02  0.21745430025E+02 -0.14765899328E+02  0.48129367063E+02  0.00000000000E+00 0. -1.
         11    1    3    3    0    0 -0.44130555376E+02 -0.48489713098E+01 -0.39376492805E+02  0.59342452142E+02  0.00000000000E+00 0.  1.
        -13    1    4    4    0    0  0.14461304133E+02 -0.40875205231E+02 -0.18760276036E+02  0.47242562132E+02  0.00000000000E+00 0.  1.
         13    1    4    4    0    0  0.21634791516E+01  0.45821354740E+02 -0.70132612617E+01  0.46405420219E+02  0.00000000000E+00 0. -1.
          3    1    1    2  501    0 -0.12812219722E+02 -0.21842608224E+02  0.91037262373E+02  0.94493574642E+02  0.00000000000E+00 0. -1.
<scales pt_clust_5="13000.00000" pt_clust_6="13000.00000" pt_clust_7="13000.00000" pt_clust_8="13000.00000" pt_clust_9="25.32296"></scales>
<clustering>
<clus scale="   25.323">  1  9  2 -1</clus>
<clus scale="   88.345">  7  8 -1 -1</clus>
<clus scale="   89.147">  1  7  2 -1</clus>
<clus scale="   91.207">  5  6 -1 -1</clus>
<clus scale="   25.323">  1  5  2 -1</clus>
</clustering>
</event>
<event>
 9    1  0.1464797E-005  0.9803163E+02  0.7546771E-02  0.1284705E+00
         21   -1    0    0  501  502  0.00000000000E+00  0.00000000000E+00  0.40029776667E+02  0.40029776667E+02  0.00000000000E+00 0. -1.
          1   -1    0    0  502    0 -0.00000000000E+00 -0.00000000000E+00 -0.30684040282E+03  0.30684040282E+03  0.00000000000E+00 0. -1.
         23    2    1    2    0    0  0.19609646337E+02 -0.37671484890E+02 -0.16107898828E+03  0.18977177015E+03  0.90902174217E+02 0.  0.
         23    2    1    2    0    0 -0.25950011229E+00  0.30615259401E+02 -0.89184025549E+02  0.13067792579E+03  0.90474131263E+02 0.  0.
        -13    1    4    4    0    0  0.10665760036E+02  0.53058910017E+02 -0.20971143994E+02  0.58041323639E+02  0.00000000000E+00 0. -1.
         13    1    4    4    0    0 -0.10925260148E+02 -0.22443650616E+02 -0.68212881555E+02  0.72636602153E+02  0.00000000000E+00 0.  1.
        -13    1    3    3    0    0  0.39132122428E+02 -0.44635012878E+02 -0.15804351149E+03  0.16882345484E+03  0.00000000000E+00 0. -1.
         13    1    3    3    0    0 -0.19522476091E+02  0.69635279876E+01 -0.30354767829E+01  0.20948315303E+02  0.00000000000E+00 0.  1.
          1    1    1    2  501    0 -0.19350146225E+02  0.70562254889E+01 -0.16547612327E+02  0.26420483546E+02  0.00000000000E+00 0. -1.
<scales pt_clust_5="13000.00000" pt_clust_6="13000.00000" pt_clust_7="13000.00000" pt_clust_8="13000.00000" pt_clust_9="20.59656"></scales>
<clustering>
<clus scale="   20.597">  1  9  2 -1</clus>
<clus scale="   90.474">  5  6 -1 -1</clus>
<clus scale="   90.902">  7  8 -1 -1</clus>
<clus scale="   97.635">  1  5  2 -1</clus>
<clus scale="   20.597">  1  5  2 -1</clus>
</clustering>
</event>
<event>
 9    1  0.1464797E-005  0.1050324E+03  0.7546771E-02  0.1271455E+00
         21   -1    0    0  501  502  0.00000000000E+00  0.00000000000E+00  0.40129799908E+02  0.40129799908E+02  0.00000000000E+00 0. -1.
          2   -1    0    0  502    0 -0.00000000000E+00 -0.00000000000E+00 -0.71314078295E+03  0.71314078295E+03  0.00000000000E+00 0. -1.
         23    2    1    2    0    0  0.28056538892E+02  0.12341429107E+02 -0.29466912158E+03  0.30952981040E+03  0.89662322435E+02 0.  0.
         23    2    1    2    0    0 -0.57763077549E+02 -0.41861245253E+02 -0.38402535633E+03  0.40147731190E+03  0.92841912334E+02 0.  0.
        -11    1    3    3    0    0  0.12042221903E+02 -0.36618844169E+02 -0.17583817995E+03  0.18001394497E+03  0.00000000000E+00 0. -1.
         11    1    3    3    0    0  0.16014316989E+02  0.48960273276E+02 -0.11883094163E+03  0.12951586543E+03  0.00000000000E+00 0.  1.
        -13    1    4    4    0    0 -0.60798338351E+02 -0.98754305041E+01 -0.34713327858E+03  0.35255563415E+03  0.00000000000E+00 0.  1.
         13    1    4    4    0    0  0.30352608020E+01 -0.31985814749E+02 -0.36892077749E+02  0.48921677750E+02  0.00000000000E+00 0. -1.
          2    1    1    2  501    0  0.29706538657E+02  0.29519816146E+02  0.56834948699E+01  0.42263460556E+02  0.00000000000E+00 0. -1.
<scales pt_clust_5="13000.00000" pt_clust_6="13000.00000" pt_clust_7="13000.00000" pt_clust_8="13000.00000" pt_clust_9="41.87957"></scales>
<clustering>
<clus scale="   41.880">  1  9  2 -1</clus>
<clus scale="   89.662">  5  6 -1 -1</clus>
<clus scale="   92.842">  7  8 -1 -1</clus>
<clus scale="  102.233">  2  5  1 -1</clus>
<clus scale="   41.880">  1  5  2 -1</clus>
</clustering>
</event>
<event>
 9    1  0.1464797E-005  0.4025987E+03  0.7546771E-02  0.1097509E+00
          1   -1    0    0  502    0 -0.00000000000E+00  0.00000000000E+00  0.23847851091E+03  0.23847851091E+03  0.00000000000E+00 0. -1.
         21   -1    0    0  501  502  0.00000000000E+00 -0.00000000000E+00 -0.99612279116E+03  0.99612279116E+03  0.00000000000E+00 0. -1.
         23    2    1    2    0    0 -0.30410530653E+01 -0.37240694932E+02  0.43934827647E+02  0.99989519750E+02  0.81679358571E+02 0.  0.
         23    2    1    2    0    0  0.14703697453E+03  0.38562199039E+03 -0.37149861806E+03  0.56270831130E+03  0.91133029346E+02 0.  0.
        -11    1    4    4    0    0  0.37876557305E+02  0.16875968918E+03 -0.20550224529E+03  0.26859940265E+03  0.00000000000E+00 0.  1.
         11    1    4    4    0    0  0.10916041723E+03  0.21686230121E+03 -0.16599637276E+03  0.29410890865E+03  0.00000000000E+00 0. -1.
        -11    1    3    3    0    0 -0.18799308400E+02 -0.58677000869E+02  0.39028232125E+02  0.72935638272E+02  0.00000000000E+00 0. -1.
         11    1    3    3    0    0  0.15758255335E+02  0.21436305937E+02  0.49065955220E+01  0.27053881478E+02  0.00000000000E+00 0.  1.
          1    1    1    2  501    0 -0.14399592146E+03 -0.34838129546E+03 -0.43008048984E+03  0.57190347102E+03  0.00000000000E+00 0. -1.
<scales pt_clust_5="13000.00000" pt_clust_6="13000.00000" pt_clust_7="13000.00000" pt_clust_8="13000.00000" pt_clust_9="392.14857"></scales>
<clustering>
<clus scale="   81.679">  7  8 -1 -1</clus>
<clus scale="   89.820">  1  7  2 -1</clus>
<clus scale="   91.133">  5  6 -1 -1</clus>
<clus scale="  392.149">  2  9  1 -1</clus>
<clus scale="  392.149">  2  5  1 -1</clus>
</clustering>
</event>
<event>
 9    1  0.1464797E-005  0.1113726E+03  0.7546771E-02  0.1259406E+00
          3   -1    0    0  502    0 -0.00000000000E+00  0.00000000000E+00  0.53012606797E+02  0.53012606797E+02  0.00000000000E+00 0. -1.
         21   -1    0    0  501  502  0.00000000000E+00 -0.00000000000E+00 -0.29560183842E+03  0.29560183842E+03  0.00000000000E+00 0.  1.
         23    2    1    2    0    0 -0.26535295344E+02 -0.49817761765E+02 -0.70795019786E+02  0.12623517294E+03  0.87962791984E+02 0.  0.
         23    2    1    2    0    0  0.43668177289E+02  0.60265655888E+02 -0.12731729090E+03  0.17358490139E+03  0.91559633237E+02 0.  0.
        -11    1    3    3    0    0 -0.51930762020E+02 -0.57735253072E+02 -0.48764435768E+02  0.91695876064E+02  0.00000000000E+00 0. -1.
         11    1    3    3    0    0  0.25395466676E+02  0.79174913074E+01 -0.22030584018E+02  0.34539296873E+02  0.00000000000E+00 0.  1.
        -11    1    4    4    0    0  0.10979516671E+02  0.40735611131E+02 -0.12874321788E+03  0.13547972524E+03  0.00000000000E+00 0.  1.
         11    1    4    4    0    0  0.32688660618E+02  0.19530044757E+02  0.14259269791E+01  0.38105176144E+02  0.00000000000E+00 0. -1.
          3    1    1    2  501    0 -0.17132881945E+02 -0.10447894123E+02 -0.44476920931E+02  0.48794370893E+02  0.00000000000E+00 0. -1.
<scales pt_clust_5="13000.00000" pt_clust_6="13000.00000" pt_clust_7="13000.00000" pt_clust_8="13000.00000" pt_clust_9="20.06724"></scales>
<clustering>
<clus scale="   20.067">  2  9  1 -1</clus>
<clus scale="   87.963">  5  6 -1 -1</clus>
<clus scale="   91.560">  7  8 -1 -1</clus>
<clus scale="  108.435">  1  5  2 -1</clus>
<clus scale="   20.067">  2  5  1 -1</clus>
</clustering>
</event>
<event>
 9    1  0.1464797E-005  0.1299370E+03  0.7546771E-02  0.1229743E+00
          2   -1    0    0  502    0 -0.00000000000E+00  0.00000000000E+00  0.72519159458E+03  0.72519159458E+03  0.00000000000E+00 0. -1.
         21   -1    0    0  501  502  0.00000000000E+00 -0.00000000000E+00 -0.62012649699E+02  0.62012649699E+02  0.00000000000E+00 0. -1.
         23    2    1    2    0    0  0.67090031511E+02  0.55334228555E+02  0.57174735630E+03  0.58670607012E+03  0.98823196195E+02 0.  0.
         23    2    1    2    0    0 -0.82870016383E+02 -0.11656037890E+02  0.91809539841E+02  0.15405535867E+03  0.91108501775E+02 0.  0.
        -13    1    4    4    0    0 -0.52821241954E+02 -0.47857282429E+02  0.76548184862E+02  0.10459458728E+03  0.00000000000E+00 0.  1.
         13    1    4    4    0    0 -0.30048774430E+02  0.36201244539E+02  0.15261354980E+02  0.49460771392E+02  0.00000000000E+00 0. -1.
        -13    1    3    3    0    0  0.16850001160E+02 -0.22882306442E+02  0.57670679301E+02  0.64291754823E+02  0.00000000000E+00 0.  1.
         13    1    3    3    0    0  0.50240030351E+02  0.78216534998E+02  0.51407667700E+03  0.52241431530E+03  0.00000000000E+00 0. -1.
          2    1    1    2  501    0  0.15779984872E+02 -0.43678190665E+02 -0.37795126350E+00  0.46442815478E+02  0.00000000000E+00 0. -1.
<scales pt_clust_5="13000.00000" pt_clust_6="13000.00000" pt_clust_7="13000.00000" pt_clust_8="13000.00000" pt_clust_9="46.44128"></scales>
<clustering>
<clus scale="   46.441">  2  9  1 -1</clus>
<clus scale="   91.109">  5  6 -1 -1</clus>
<clus scale="   98.823">  7  8 -1 -1</clus>
<clus scale="  124.171">  2  5  1 -1</clus>
<clus scale="   46.441">  2  5  1 -1</clus>
</clustering>
</event>
<event>
 9    1  0.1464797E-005  0.1045950E+03  0.7546771E-02  0.1271820E+00
         21   -1    0    0  501  502  0.00000000000E+00  0.00000000000E+00  0.56309208741E+03  0.56309208741E+03  0.00000000000E+00 0. -1.
          3   -1    0    0  502    0 -0.00000000000E+00 -0.00000000000E+00 -0.78353548782E+02  0.78353548782E+02  0.00000000000E+00 0. -1.
         23    2    1    2    0    0  0.34111018864E+02 -0.13110313160E+02 -0.41741986349E+01  0.99468992797E+02  0.92418692237E+02 0.  0.
         23    2    1    2    0    0 -0.10337646187E+03  0.24267294255E+02  0.19448992261E+03  0.23931020388E+03  0.90373941172E+02 0.  0.
        -11    1    4    4    0    0 -0.27730524019E+02 -0.10717162731E+02  0.13155802371E+03  0.13487532444E+03  0.00000000000E+00 0.  1.
         11    1    4    4    0    0 -0.75645937855E+02  0.34984456986E+02  0.62931898899E+02  0.10443487944E+03  0.00000000000E+00 0. -1.
        -11    1    3    3    0    0  0.70605972819E+01  0.39154753174E+02 -0.76542353388E+01  0.40515849352E+02  0.00000000000E+00 0.  1.
         11    1    3    3    0    0  0.27050421582E+02 -0.52265066334E+02  0.34800367039E+01  0.58953143445E+02  0.00000000000E+00 0. -1.
          3    1    1    2  501    0  0.69265443010E+02 -0.11156981094E+02  0.29442281465E+03  0.30266643951E+03  0.00000000000E+00 0. -1.
<scales pt_clust_5="13000.00000" pt_clust_6="13000.00000" pt_clust_7="13000.00000" pt_clust_8="13000.00000" pt_clust_9="70.15825"></scales>
<clustering>
<clus scale="   70.158">  1  9  2 -1</clus>
<clus scale="   90.374">  5  6 -1 -1</clus>
<clus scale="   92.419">  7  8 -1 -1</clus>
<clus scale="  102.793">  1  5  2 -1</clus>
<clus scale="   70.158">  1  5  2 -1</clus>
</clustering>
</event>
<event>
 9    1  0.1464797E-005  0.2089838E+03  0.7546771E-02  0.1143861E+00
          2   -1    0    0  502    0 -0.00000000000E+00  0.00000000000E+00  0.16862436858E+04  0.16862436858E+04  0.00000000000E+00 0. -1.
         21   -1    0    0  501  502  0.00000000000E+00 -0.00000000000E+00 -0.57810570320E+02  0.57810570320E+02  0.00000000000E+00 0.  1.
         23    2    1    2    0    0 -0.17795208978E+03  0.35497606213E+02  0.11449434234E+04  0.11640278060E+04  0.10553797395E+03 0.  0.
         23    2    1    2    0    0  0.16817113985E+03 -0.63719718833E+02  0.50475001580E+03  0.54336371716E+03  0.90165491321E+02 0.  0.
        -11    1    4    4    0    0  0.12608440610E+03 -0.28729899531E+01  0.34450973525E+03  0.36686849035E+03  0.00000000000E+00 0. -1.
         11    1    4    4    0    0  0.42086733748E+02 -0.60846728880E+02  0.16024028055E+03  0.17649522681E+03  0.00000000000E+00 0.  1.
        -11    1    3    3    0    0 -0.16182164638E+03 -0.69416397437E+01  0.96166622837E+03  0.97521093430E+03  0.00000000000E+00 0.  1.
         11    1    3    3    0    0 -0.16130443393E+02  0.42439245957E+02  0.18327719506E+03  0.18881687167E+03  0.00000000000E+00 0. -1.
          2    1    1    2  501    0  0.97809499295E+01  0.28222112619E+02 -0.21260323763E+02  0.36662732969E+02  0.00000000000E+00 0. -1.
<scales pt_clust_5="13000.00000" pt_clust_6="13000.00000" pt_clust_7="13000.00000" pt_clust_8="13000.00000" pt_clust_9="29.86896"></scales>
<clustering>
<clus scale="   29.869">  2  9  1 -1</clus>
<clus scale="   90.165">  5  6 -1 -1</clus>
<clus scale="  105.538">  7  8 -1 -1</clus>
<clus scale="  201.658">  2  5  1 -1</clus>
<clus scale="   29.869">  2  5  1 -1</clus>
</clustering>
</event>
<event>
 9    1  0.1464797E-005  0.1783577E+03  0.7546771E-02  0.1169425E+00
         21   -1    0    0  501  502  0.00000000000E+00  0.00000000000E+00  0.71837594494E+02  0.71837594494E+02  0.00000000000E+00 0.  1.
          2   -1    0    0  502    0 -0.00000000000E+00 -0.00000000000E+00 -0.87158188893E+03  0.87158188893E+03  0.00000000000E+00 0. -1.
         23    2    1    2    0    0  0.15970503704E+03 -0.29761138154E+02 -0.60402824621E+03  0.63201257566E+03  0.90544736873E+02 0.  0.
         23    2    1    2    0    0 -0.11102100669E+03  0.59427496265E+02 -0.63628907258E+02  0.16754155257E+03  0.90356199353E+02 0.  0.
        -13    1    3    3    0    0  0.85947778391E+02  0.15585370135E+02 -0.19127585782E+03  0.21027690829E+03  0.00000000000E+00 0.  1.
         13    1    3    3    0    0  0.73757258646E+02 -0.45346508288E+02 -0.41275238839E+03  0.42173566737E+03  0.00000000000E+00 0. -1.
        -13    1    4    4    0    0 -0.43747771458E+02 -0.22267451138E+02 -0.17810636989E+02  0.52219973934E+02  0.00000000000E+00 0. -1.
         13    1    4    4    0    0 -0.67273235229E+02  0.81694947402E+02 -0.45818270269E+02  0.11532157864E+03  0.00000000000E+00 0.  1.
          2    1    1    2  501    0 -0.48684030350E+02 -0.29666358111E+02 -0.13208714097E+03  0.14386535519E+03  0.00000000000E+00 0. -1.
<scales pt_clust_5="13000.00000" pt_clust_6="13000.00000" pt_clust_7="13000.00000" pt_clust_8="13000.00000" pt_clust_9="57.01080"></scales>
<clustering>
<clus scale="   57.011">  1  9  2 -1</clus>
<clus scale="   90.356">  7  8 -1 -1</clus>
<clus scale="   90.545">  5  6 -1 -1</clus>
<clus scale="  178.262">  1  7  2 -1</clus>
<clus scale="   57.011">  1  5  2 -1</clus>
</clustering>
</event>
<event>
 9    1  0.1464797E-005  0.9685538E+02  0.7546771E-02  0.1291833E+00
          1   -1    0    0  502    0 -0.00000000000E+00  0.00000000000E+00  0.87588379797E+03  0.87588379797E+03  0.00000000000E+00 0. -1.
         21   -1    0    0  501  502  0.00000000000E+00 -0.00000000000E+00 -0.16969638206E+02  0.16969638206E+02  0.00000000000E+00 0.  1.
         23    2    1    2    0    0 -0.35916559509E+02 -0.16384284781E+02  0.52757145391E+03  0.53733771508E+03  0.94030511184E+02 0.  0.
         23    2    1    2    0    0  0.13619430897E+01  0.91700330181E-01  0.27044185752E+03  0.28362425323E+03  0.85452065057E+02 0.  0.
        -11    1    3    3    0    0 -0.21145881330E+02 -0.55650343541E+02  0.33512110876E+03  0.34036784009E+03  0.00000000000E+00 0. -1.
         11    1    3    3    0    0 -0.14770678179E+02  0.39266058760E+02  0.19245034516E+03  0.19696987499E+03  0.00000000000E+00 0.  1.
        -11    1    4    4    0    0  0.38655356619E+02 -0.41620331493E+01  0.20062165074E+03  0.20435411878E+03  0.00000000000E+00 0. -1.
         11    1    4    4    0    0 -0.37293413529E+02  0.42537334795E+01  0.69820206775E+02  0.79270134447E+02  0.00000000000E+00 0.  1.
          1    1    1    2  501    0  0.34554616420E+02  0.16292584451E+02  0.60900848330E+02  0.71891467862E+02  0.00000000000E+00 0. -1.
<scales pt_clust_5="13000.00000" pt_clust_6="13000.00000" pt_clust_7="13000.00000" pt_clust_8="13000.00000" pt_clust_9="38.20301"></scales>
<clustering>
<clus scale="   38.203">  2  9  1 -1</clus>
<clus scale="   85.452">  7  8 -1 -1</clus>
<clus scale="   88.551">  2  7  1 -1</clus>
<clus scale="   94.031">  5  6 -1 -1</clus>
<clus scale="   38.203">  2  5  1 -1</clus>
</clustering>
</event>
<event>
 9    1  0.1464797E-005  0.2106863E+03  0.7546771E-02  0.1155978E+00
         21   -1    0    0  501  502  0.00000000000E+00  0.00000000000E+00  0.13132414975E+04  0.13132414975E+04  0.00000000000E+00 0.  1.
         -1   -1    0    0    0  501 -0.00000000000E+00 -0.00000000000E+00 -0.15065221395E+03  0.15065221395E+03  0.00000000000E+00 0.  1.
         23    2    1    2    0    0 -0.80394281632E+02  0.85810527335E+02  0.40229245909E+03  0.42854362290E+03  0.89351703766E+02 0.  0.
         23    2    1    2    0    0  0.40584473931E+02 -0.26555196387E+03  0.33664326011E+02  0.28575913838E+03  0.91433326967E+02 0.  0.
        -11    1    4    4    0    0  0.39611460711E+02 -0.96748603011E+02 -0.24205190737E+02  0.10730913877E+03  0.00000000000E+00 0.  1.
         11    1    4    4    0    0  0.97301321988E+00 -0.16880336086E+03  0.57869516748E+02  0.17844999961E+03  0.00000000000E+00 0. -1.
        -11    1    3    3    0    0 -0.41049426021E+02 -0.81227948711E+01  0.76397118236E+02  0.87106571784E+02  0.00000000000E+00 0.  1.
         11    1    3    3    0    0 -0.39344855611E+02  0.93933322206E+02  0.32589534085E+03  0.34143705111E+03  0.00000000000E+00 0. -1.
         -1    1    1    2    0  502  0.39809807702E+02  0.17974143653E+03  0.72663249846E+03  0.74959095019E+03  0.00000000000E+00 0.  1.
<scales pt_clust_5="13000.00000" pt_clust_6="13000.00000" pt_clust_7="13000.00000" pt_clust_8="13000.00000" pt_clust_9="189.81217"></scales>
<clustering>
<clus scale="   89.352">  7  8 -1 -1</clus>
<clus scale="   91.433">  5  6 -1 -1</clus>
<clus scale="  147.684">  2  7  1 -1</clus>
<clus scale="  189.812">  1  9  2 -1</clus>
<clus scale="  189.812">  1  5  2 -1</clus>
</clustering>
</event>
<event>
 9    1  0.1464797E-005  0.1900213E+03  0.7546771E-02  0.1190649E+00
         21   -1    0    0  501  502  0.00000000000E+00  0.00000000000E+00  0.89437466280E+03  0.89437466280E+03  0.00000000000E+00 0. -1.
          1   -1    0    0  502    0 -0.00000000000E+00 -0.00000000000E+00 -0.57683086183E+02  0.57683086183E+02  0.00000000000E+00 0. -1.
         23    2    1    2    0    0 -0.14507863607E+02 -0.14063436611E+01  0.24309652733E+03  0.25973991042E+03  0.90313030939E+02 0.  0.
         23    2    1    2    0    0 -0.73691399657E+02  0.14524039103E+03  0.30040785610E+03  0.35404860633E+03  0.92630135871E+02 0.  0.
        -11    1    4    4    0    0 -0.12702382627E+02  0.26721439376E+02  0.50598823443E+01  0.30016466416E+02  0.00000000000E+00 0.  1.
         11    1    4    4    0    0 -0.60989017031E+02  0.11851895165E+03  0.29534797375E+03  0.32403213992E+03  0.00000000000E+00 0. -1.
        -13    1    3    3    0    0 -0.50587619576E+02  0.50720617742E+01  0.17702241134E+03  0.18417862846E+03  0.00000000000E+00 0.  1.
         13    1    3    3    0    0  0.36079755969E+02 -0.64784054352E+01  0.66074115987E+02  0.75561281959E+02  0.00000000000E+00 0. -1.
          1    1    1    2  501    0  0.88199263264E+02 -0.14383404737E+03  0.29318719319E+03  0.33826923223E+03  0.00000000000E+00 0. -1.
<scales pt_clust_5="13000.00000" pt_clust_6="13000.00000" pt_clust_7="13000.00000" pt_clust_8="13000.00000" pt_clust_9="165.91486"></scales>
<clustering>
<clus scale="   90.313">  7  8 -1 -1</clus>
<clus scale="   91.482">  2  7  1 -1</clus>
<clus scale="   92.630">  5  6 -1 -1</clus>
<clus scale="  165.915">  1  9  2 -1</clus>
<clus scale="  165.915">  1  5  2 -1</clus>
</clustering>
</event>
<event>
 9    1  0.1464797E-005  0.2140394E+03  0.7546771E-02  0.1138926E+00
         21   -1    0    0  501  502  0.00000000000E+00  0.00000000000E+00  0.55715425455E+02  0.55715425455E+02  0.00000000000E+00 0. -1.
          1   -1    0    0  502    0 -0.00000000000E+00 -0.00000000000E+00 -0.90691198890E+03  0.90691198890E+03  0.00000000000E+00 0. -1.
         23    2    1    2    0    0 -0.65515578534E+02  0.19125357189E+03 -0.45598476276E+03  0.50788541157E+03  0.95683162694E+02 0.  0.
         23    2    1    2    0    0  0.50605379741E+02 -0.17341860170E+03 -0.35762734623E+03  0.41054934043E+03  0.89546224261E+02 0.  0.
        -11    1    3    3    0    0 -0.56242008103E+01  0.51829091283E+02 -0.41937340612E+02  0.66907599535E+02  0.00000000000E+00 0.  1.
         11    1    3    3    0    0 -0.59891377724E+02  0.13942448061E+03 -0.41404742215E+03  0.44097781203E+03  0.00000000000E+00 0. -1.
        -11    1    4    4    0    0  0.27970087674E+02 -0.80581432779E+02 -0.26128308637E+03  0.27485367805E+03  0.00000000000E+00 0.  1.
         11    1    4    4    0    0  0.22635292068E+02 -0.92837168925E+02 -0.96344259857E+02  0.13569566238E+03  0.00000000000E+00 0. -1.
          1    1    1    2  501    0  0.14910198793E+02 -0.17834970187E+02 -0.37584454463E+02  0.44192662365E+02  0.00000000000E+00 0. -1.
<scales pt_clust_5="13000.00000" pt_clust_6="13000.00000" pt_clust_7="13000.00000" pt_clust_8="13000.00000" pt_clust_9="23.24651"></scales>
<clustering>
<clus scale="   23.247">  1  9  2 -1</clus>
<clus scale="   89.546">  7  8 -1 -1</clus>
<clus scale="   95.683">  5  6 -1 -1</clus>
<clus scale="  211.367">  1  7  2 -1</clus>
<clus scale="   23.247">  1  5  2 -1</clus>
</clustering>
</event>
<event>
 9    1  0.1464797E-005  0.1050952E+03  0.7546771E-02  0.1270529E+00
         -4   -1    0    0    0  501 -0.00000000000E+00  0.00000000000E+00  0.31622615866E+03  0.31622615866E+03  0.00000000000E+00 0.  1.
         21   -1    0    0  501  502  0.00000000000E+00 -0.00000000000E+00 -0.23320235638E+03  0.23320235638E+03  0.00000000000E+00 0.  1.
         23    2    1    2    0    0 -0.57526029541E+02 -0.16245731317E+02  0.26993555093E+03  0.29051079670E+03  0.89208483262E+02 0.  0.
         23    2    1    2    0    0 -0.20454420565E+02  0.28013681898E+02 -0.78202500518E+02  0.12461531371E+03  0.90610129837E+02 0.  0.
        -11    1    4    4    0    0 -0.17092407018E+02  0.51730795630E+02 -0.14235900500E+02  0.56310624728E+02  0.00000000000E+00 0.  1.
         11    1    4    4    0    0 -0.33620135467E+01 -0.23717113732E+02 -0.63966600017E+02  0.68304688980E+02  0.00000000000E+00 0. -1.
        -13    1    3    3    0    0 -0.54628364576E+02 -0.42247458034E+02  0.12121840517E+03  0.13950988380E+03  0.00000000000E+00 0.  1.
         13    1    3    3    0    0 -0.28976649645E+01  0.26001726717E+02  0.14871714576E+03  0.15100091290E+03  0.00000000000E+00 0. -1.
         -4    1    1    2    0  502  0.77980450106E+02 -0.11767950582E+02 -0.10870924814E+03  0.13430240463E+03  0.00000000000E+00 0.  1.
<scales pt_clust_5="13000.00000" pt_clust_6="13000.00000" pt_clust_7="13000.00000" pt_clust_8="13000.00000" pt_clust_9="78.86340"></scales>
<clustering>
<clus scale="   78.863">  2  9  1 -1</clus>
<clus scale="   89.208">  7  8 -1 -1</clus>
<clus scale="   90.610">  5  6 -1 -1</clus>
<clus scale="  103.889">  1  7  2 -1</clus>
<clus scale="   78.863">  2  5  1 -1</clus>
</clustering>
</event>
<event>
 9    1  0.1464797E-005  0.1450592E+03  0.7546771E-02  0.1224229E+00
         -3   -1    0    0    0  501 -0.00000000000E+00  0.00000000000E+00  0.24507047684E+03  0.24507047684E+03  0.00000000000E+00 0.  1.
         21   -1    0    0  501  502  0.00000000000E+00 -0.00000000000E+00 -0.25990172993E+03  0.25990172993E+03  0.00000000000E+00 0.  1.
         23    2    1    2    0    0 -0.12381391940E+02 -0.42631073958E+02  0.44800036097E+02  0.10963395111E+03  0.89676377425E+02 0.  0.
         23    2    1    2    0    0  0.22017004393E+02 -0.73417217900E+02  0.12759290407E+03  0.17485481044E+03  0.91757393157E+02 0.  0.
        -13    1    3    3    0    0 -0.20545514789E+01 -0.65292166339E+02  0.88794975662E+01  0.65925212507E+02  0.00000000000E+00 0.  1.
         13    1    3    3    0    0 -0.10326840461E+02  0.22661092381E+02  0.35920538530E+02  0.43708738601E+02  0.00000000000E+00 0. -1.
        -13    1    4    4    0    0 -0.24118537340E+02 -0.68430086798E+02  0.69157748557E+02  0.10023559651E+03  0.00000000000E+00 0.  1.
         13    1    4    4    0    0  0.46135541733E+02 -0.49871311016E+01  0.58435155516E+02  0.74619213932E+02  0.00000000000E+00 0. -1.
         -3    1    1    2    0  502 -0.96356124526E+01  0.11604829186E+03 -0.18722419327E+03  0.22048344522E+03  0.00000000000E+00 0.  1.
<scales pt_clust_5="13000.00000" pt_clust_6="13000.00000" pt_clust_7="13000.00000" pt_clust_8="13000.00000" pt_clust_9="112.35106"></scales>
<clustering>
<clus scale="   89.676">  5  6 -1 -1</clus>
<clus scale="   91.757">  7  8 -1 -1</clus>
<clus scale="  100.063">  1  5  2 -1</clus>
<clus scale="  112.351">  2  9  1 -1</clus>
<clus scale="  112.351">  2  5  1 -1</clus>
</clustering>
</event>
<event>
 9    1  0.1464797E-005  0.2226717E+03  0.7546771E-02  0.1132439E+00
         21   -1    0    0  501  502  0.00000000000E+00  0.00000000000E+00  0.82373381264E+02  0.82373381264E+02  0.00000000000E+00 0.  1.
          4   -1    0    0  502    0 -0.00000000000E+00 -0.00000000000E+00 -0.96081007051E+03  0.96081007051E+03  0.00000000000E+00 0. -1.
         23    2    1    2    0    0  0.63443785577E+02 -0.17215988066E+03 -0.49858873128E+03  0.53984170305E+03  0.95782059684E+02 0.  0.
         23    2    1    2    0    0 -0.10105123245E+03  0.21116597977E+03 -0.37224443151E+03  0.44862786161E+03  0.88874174162E+02 0.  0.
        -11    1    4    4    0    0 -0.78962136242E+02  0.71840227076E+02 -0.12904357141E+03  0.16747620878E+03  0.00000000000E+00 0.  1.
         11    1    4    4    0    0 -0.22089096207E+02  0.13932575269E+03 -0.24320086010E+03  0.28115165283E+03  0.00000000000E+00 0. -1.
        -13    1    3    3    0    0  0.80157686640E+02 -0.11264375084E+03 -0.40252879249E+03  0.42560932569E+03  0.00000000000E+00 0.  1.
         13    1    3    3    0    0 -0.16713901064E+02 -0.59516129820E+02 -0.96059938795E+02  0.11423237737E+03  0.00000000000E+00 0. -1.
          4    1    1    2  501    0  0.37607446873E+02 -0.39006099104E+02 -0.76035264513E+01  0.54713887105E+02  0.00000000000E+00 0. -1.
<scales pt_clust_5="13000.00000" pt_clust_6="13000.00000" pt_clust_7="13000.00000" pt_clust_8="13000.00000" pt_clust_9="54.18298"></scales>
<clustering>
<clus scale="   54.183">  1  9  2 -1</clus>
<clus scale="   88.874">  5  6 -1 -1</clus>
<clus scale="   95.782">  7  8 -1 -1</clus>
<clus scale="  219.789">  1  5  2 -1</clus>
<clus scale="   54.183">  1  5  2 -1</clus>
</clustering>
</event>
<event>
 9    1  0.1464797E-005  0.1020541E+03  0.7546771E-02  0.1278012E+00
          3   -1    0    0  502    0 -0.00000000000E+00  0.00000000000E+00  0.14589296068E+03  0.14589296068E+03  0.00000000000E+00 0. -1.
         21   -1    0    0  501  502  0.00000000000E+00 -0.00000000000E+00 -0.33042659110E+03  0.33042659110E+03  0.00000000000E+00 0. -1.
         23    2    1    2    0    0 -0.18779391869E+02 -0.25493945938E+02  0.94668709386E+02  0.13506871920E+03  0.90987842767E+02 0.  0.
         23    2    1    2    0    0  0.32800436668E+02  0.61991447116E+02 -0.91248380663E+02  0.14927336503E+03  0.95065568813E+02 0.  0.
        -11    1    3    3    0    0  0.32600046093E+02 -0.20588985806E+02  0.64890452346E+02  0.75481389411E+02  0.00000000000E+00 0. -1.
         11    1    3    3    0    0 -0.51379437962E+02 -0.49049601323E+01  0.29778257040E+02  0.59587329790E+02  0.00000000000E+00 0.  1.
        -13    1    4    4    0    0 -0.13334079959E+02 -0.19163640543E+02 -0.28271913751E+02  0.36665295776E+02  0.00000000000E+00 0.  1.
         13    1    4    4    0    0  0.46134516626E+02  0.81155087658E+02 -0.62976466912E+02  0.11260806926E+03  0.00000000000E+00 0. -1.
          3    1    1    2  501    0 -0.14021044799E+02 -0.36497501177E+02 -0.18795395914E+03  0.19197746755E+03  0.00000000000E+00 0. -1.
<scales pt_clust_5="13000.00000" pt_clust_6="13000.00000" pt_clust_7="13000.00000" pt_clust_8="13000.00000" pt_clust_9="39.09805"></scales>
<clustering>
<clus scale="   39.098">  2  9  1 -1</clus>
<clus scale="   90.988">  5  6 -1 -1</clus>
<clus scale="   95.066">  7  8 -1 -1</clus>
<clus scale="   98.267">  1  5  2 -1</clus>
<clus scale="   39.098">  2  5  1 -1</clus>
</clustering>
</event>
<event>
 9    1  0.1464797E-005  0.1108601E+03  0.7546771E-02  0.1259511E+00
          2   -1    0    0  502    0 -0.00000000000E+00  0.00000000000E+00  0.41275210342E+03  0.41275210342E+03  0.00000000000E+00 0. -1.
         21   -1    0    0  501  502  0.00000000000E+00 -0.00000000000E+00 -0.68548203388E+02  0.68548203388E+02  0.00000000000E+00 0. -1.
         23    2    1    2    0    0  0.54302945675E+02  0.48176475683E+02  0.29070502405E+03  0.31295201454E+03  0.90331443469E+02 0.  0.
         23    2    1    2    0    0 -0.52239839848E+02  0.79334223094E+01  0.36270963844E+02  0.10961688658E+03  0.88928842045E+02 0.  0.
        -11    1    3    3    0    0  0.67658616810E+02  0.26632634565E+01  0.18803751253E+03  0.19985716780E+03  0.00000000000E+00 0. -1.
         11    1    3    3    0    0 -0.13355671135E+02  0.45513212226E+02  0.10266751152E+03  0.11309484674E+03  0.00000000000E+00 0.  1.
        -11    1    4    4    0    0  0.24264216493E+02 -0.66580054154E+01  0.47956192179E+01  0.25614043059E+02  0.00000000000E+00 0.  1.
         11    1    4    4    0    0 -0.76504056341E+02  0.14591427725E+02  0.31475344626E+02  0.84002843517E+02  0.00000000000E+00 0. -1.
          2    1    1    2  501    0 -0.20631058272E+01 -0.56109897992E+02  0.17227912144E+02  0.58731405697E+02  0.00000000000E+00 0. -1.
<scales pt_clust_5="13000.00000" pt_clust_6="13000.00000" pt_clust_7="13000.00000" pt_clust_8="13000.00000" pt_clust_9="56.14781"></scales>
<clustering>
<clus scale="   56.148">  2  9  1 -1</clus>
<clus scale="   88.929">  7  8 -1 -1</clus>
<clus scale="   90.331">  5  6 -1 -1</clus>
<clus scale="  109.720">  2  7  1 -1</clus>
<clus scale="   56.148">  2  5  1 -1</clus>
</clustering>
</event>
<event>
 9    1  0.1464797E-005  0.1449312E+03  0.7546771E-02  0.1207605E+00
          1   -1    0    0  502    0 -0.00000000000E+00  0.00000000000E+00  0.87637508979E+03  0.87637508979E+03  0.00000000000E+00 0. -1.
         21   -1    0    0  501  502  0.00000000000E+00 -0.00000000000E+00 -0.74518845144E+02  0.74518845144E+02  0.00000000000E+00 0. -1.
         23    2    1    2    0    0  0.12088956274E+03 -0.72927134829E+02  0.63445757897E+03  0.65656245321E+03  0.92764120660E+02 0.  0.
         23    2    1    2    0    0 -0.36877661750E+02  0.61609382375E+02  0.17516212442E+03  0.20920591377E+03  0.89048675397E+02 0.  0.
        -11    1    3    3    0    0  0.20923417900E+02  0.20527585461E+02  0.72922294102E+02  0.78592825109E+02  0.00000000000E+00 0.  1.
         11    1    3    3    0    0  0.99966144843E+02 -0.93454720290E+02  0.56153528486E+03  0.57796962810E+03  0.00000000000E+00 0. -1.
        -11    1    4    4    0    0 -0.46011557694E+02  0.75977290404E+01  0.33782694045E+02  0.57585235477E+02  0.00000000000E+00 0.  1.
         11    1    4    4    0    0  0.91338959443E+01  0.54011653335E+02  0.14137943038E+03  0.15162067829E+03  0.00000000000E+00 0. -1.
          1    1    1    2  501    0 -0.84011900994E+02  0.11317752454E+02 -0.77634587384E+01  0.85125567962E+02  0.00000000000E+00 0. -1.
<scales pt_clust_5="13000.00000" pt_clust_6="13000.00000" pt_clust_7="13000.00000" pt_clust_8="13000.00000" pt_clust_9="84.77081"></scales>
<clustering>
<clus scale="   84.771">  2  9  1 -1</clus>
<clus scale="   89.049">  7  8 -1 -1</clus>
<clus scale="   92.764">  5  6 -1 -1</clus>
<clus scale="  142.582">  2  7  1 -1</clus>
<clus scale="   84.771">  2  5  1 -1</clus>
</clustering>
</event>
<event>
 9    1  0.1464797E-005  0.1365577E+03  0.7546771E-02  0.1218206E+00
          2   -1    0    0  502    0 -0.00000000000E+00  0.00000000000E+00  0.39379579707E+03  0.39379579707E+03  0.00000000000E+00 0. -1.
         21   -1    0    0  501  502  0.00000000000E+00 -0.00000000000E+00 -0.21013162800E+03  0.21013162800E+03  0.00000000000E+00 0. -1.
         23    2    1    2    0    0 -0.10744939434E+03 -0.24567607841E+02  0.31734690421E+03  0.34813387927E+03  0.91319223498E+02 0.  0.
         23    2    1    2    0    0  0.59734864126E+02  0.32626331719E+02 -0.90952538233E+00  0.11447707594E+03  0.92040437672E+02 0.  0.
        -13    1    4    4    0    0 -0.24371168316E+02  0.37058487404E+00 -0.10764793756E+01  0.24397745512E+02  0.00000000000E+00 0. -1.
         13    1    4    4    0    0  0.84106032442E+02  0.32255746845E+02  0.16695399323E+00  0.90079330433E+02  0.00000000000E+00 0.  1.
        -13    1    3    3    0    0 -0.67781673424E+02 -0.53175174848E+02  0.14196339730E+03  0.16605890716E+03  0.00000000000E+00 0. -1.
         13    1    3    3    0    0 -0.39667720918E+02  0.28607567007E+02  0.17538350691E+03  0.18207497211E+03  0.00000000000E+00 0.  1.
          2    1    1    2  501    0  0.47714530216E+02 -0.80587238782E+01 -0.13277320976E+03  0.14131646986E+03  0.00000000000E+00 0. -1.
<scales pt_clust_5="13000.00000" pt_clust_6="13000.00000" pt_clust_7="13000.00000" pt_clust_8="13000.00000" pt_clust_9="48.39028"></scales>
<clustering>
<clus scale="   48.390">  2  9  1 -1</clus>
<clus scale="   91.319">  7  8 -1 -1</clus>
<clus scale="   92.040">  5  6 -1 -1</clus>
<clus scale="  136.073">  1  7  2 -1</clus>
<clus scale="   48.390">  2  5  1 -1</clus>
</clustering>
</event>
<event>
 9    1  0.1464797E-005  0.1028302E+03  0.7546771E-02  0.1275960E+00
         21   -1    0    0  501  502  0.00000000000E+00  0.00000000000E+00  0.43114535576E+03  0.43114535576E+03  0.00000000000E+00 0. -1.
          1   -1    0    0  502    0 -0.00000000000E+00 -0.00000000000E+00 -0.39022830904E+02  0.39022830904E+02  0.00000000000E+00 0. -1.
         23    2    1    2    0    0  0.25968227142E+02 -0.22618571101E+02  0.12770227428E+03  0.16094805763E+03  0.91708548227E+02 0.  0.
         23    2    1    2    0    0 -0.52358393395E+02 -0.75467316278E+01  0.13248581943E+03  0.17133220177E+03  0.94888758539E+02 0.  0.
        -11    1    4    4    0    0  0.37241860033E+01  0.35897493421E+02  0.59209397557E+02  0.69341562964E+02  0.00000000000E+00 0.  1.
         11    1    4    4    0    0 -0.56082579398E+02 -0.43444225048E+02  0.73276421874E+02  0.10199063881E+03  0.00000000000E+00 0. -1.
        -13    1    3    3    0    0 -0.26854993060E+02 -0.26934065066E+02  0.84162424212E+02  0.92357718477E+02  0.00000000000E+00 0. -1.
         13    1    3    3    0    0  0.52823220201E+02  0.43154939642E+01  0.43539850069E+02  0.68590339150E+02  0.00000000000E+00 0.  1.
          1    1    1    2  501    0  0.26390166253E+02  0.30165302729E+02  0.13193443114E+03  0.13788792726E+03  0.00000000000E+00 0. -1.
<scales pt_clust_5="13000.00000" pt_clust_6="13000.00000" pt_clust_7="13000.00000" pt_clust_8="13000.00000" pt_clust_9="40.07975"></scales>
<clustering>
<clus scale="   40.080">  1  9  2 -1</clus>
<clus scale="   91.709">  7  8 -1 -1</clus>
<clus scale="   94.889">  5  6 -1 -1</clus>
<clus scale="   99.903">  2  7  1 -1</clus>
<clus scale="   40.080">  1  5  2 -1</clus>
</clustering>
</event>
<event>
 9    1  0.1464797E-005  0.1054928E+03  0.7546771E-02  0.1270703E+00
          1   -1    0    0  502    0 -0.00000000000E+00  0.00000000000E+00  0.18692573669E+03  0.18692573669E+03  0.00000000000E+00 0. -1.
         21   -1    0    0  501  502  0.00000000000E+00 -0.00000000000E+00 -0.10727750205E+03  0.10727750205E+03  0.00000000000E+00 0.  1.
         23    2    1    2    0    0 -0.77266141462E+01 -0.49987281589E+02  0.11761968089E+03  0.15660640169E+03  0.90181743337E+02 0.  0.
         23    2    1    2    0    0 -0.18771955298E+02  0.42907461729E+02 -0.28312371435E+02  0.10851770780E+03  0.93707342041E+02 0.  0.
        -11    1    4    4    0    0  0.13371497910E+02  0.28877996732E+02 -0.55611838834E+02  0.64073491165E+02  0.00000000000E+00 0.  1.
         11    1    4    4    0    0 -0.32143453208E+02  0.14029464997E+02  0.27299467398E+02  0.44444216637E+02  0.00000000000E+00 0. -1.
        -13    1    3    3    0    0  0.20324621973E+02 -0.51320565613E+02  0.11601566960E+03  0.12847772689E+03  0.00000000000E+00 0. -1.
         13    1    3    3    0    0 -0.28051236120E+02  0.13332840239E+01  0.16040112914E+01  0.28128674806E+02  0.00000000000E+00 0.  1.
          1    1    1    2  501    0  0.26498569444E+02  0.70798198600E+01 -0.96590748165E+01  0.29079129254E+02  0.00000000000E+00 0. -1.
<scales pt_clust_5="13000.00000" pt_clust_6="13000.00000" pt_clust_7="13000.00000" pt_clust_8="13000.00000" pt_clust_9="27.42805"></scales>
<clustering>
<clus scale="   27.428">  2  9  1 -1</clus>
<clus scale="   90.182">  7  8 -1 -1</clus>
<clus scale="   93.707">  5  6 -1 -1</clus>
<clus scale="  102.374">  1  7  2 -1</clus>
<clus scale="   27.428">  2  5  1 -1</clus>
</clustering>
</event>
<event>
 9    1  0.1464797E-005  0.9480645E+02  0.7546771E-02  0.1294396E+00
          3   -1    0    0  502    0 -0.00000000000E+00  0.00000000000E+00  0.11091065282E+03  0.11091065282E+03  0.00000000000E+00 0. -1.
         21   -1    0    0  501  502  0.00000000000E+00 -0.00000000000E+00 -0.18943653005E+03  0.18943653005E+03  0.00000000000E+00 0. -1.
         23    2    1    2    0    0  0.54456239137E+01  0.21923575826E+02  0.25473962717E+02  0.95681913087E+02  0.89419280464E+02 0.  0.
         23    2    1    2    0    0 -0.10660747215E+02 -0.41683013371E+02  0.40013327972E+01  0.94747636079E+02  0.84320689890E+02 0.  0.
        -13    1    4    4    0    0 -0.20719500272E+02 -0.64718563676E+02  0.10560465326E+02  0.68770005116E+02  0.00000000000E+00 0. -1.
         13    1    4    4    0    0  0.10058753057E+02  0.23035550305E+02 -0.65591325284E+01  0.25977630963E+02  0.00000000000E+00 0.  1.
        -13    1    3    3    0    0 -0.39137758315E+02  0.12097023679E+02  0.28538939575E+02  0.49925676559E+02  0.00000000000E+00 0.  1.
         13    1    3    3    0    0  0.44583382229E+02  0.98265521471E+01 -0.30649768578E+01  0.45756236528E+02  0.00000000000E+00 0. -1.
          3    1    1    2  501    0  0.52151233017E+01  0.19759437545E+02 -0.10800117275E+03  0.10991763370E+03  0.00000000000E+00 0. -1.
<scales pt_clust_5="13000.00000" pt_clust_6="13000.00000" pt_clust_7="13000.00000" pt_clust_8="13000.00000" pt_clust_9="20.43607"></scales>
<clustering>
<clus scale="   20.436">  2  9  1 -1</clus>
<clus scale="   84.321">  5  6 -1 -1</clus>
<clus scale="   89.419">  7  8 -1 -1</clus>
<clus scale="   90.014">  2  5  1 -1</clus>
<clus scale="   20.436">  2  5  1 -1</clus>
</clustering>
</event>
<event>
 9    1  0.1464797E-005  0.1175743E+03  0.7546771E-02  0.1247316E+00
         -4   -1    0    0    0  501 -0.00000000000E+00  0.00000000000E+00  0.36457269565E+03  0.36457269565E+03  0.00000000000E+00 0.  1.
         21   -1    0    0  501  502  0.00000000000E+00 -0.00000000000E+00 -0.60259750870E+02  0.60259750870E+02  0.00000000000E+00 0. -1.
         23    2    1    2    0    0 -0.41423301123E+02 -0.63546053228E+02  0.21393155104E+03  0.24479180238E+03  0.91664209064E+02 0.  0.
         23    2    1    2    0    0  0.57016078912E+02  0.44490894832E+02  0.10016758425E+03  0.15354529917E+03  0.91172040590E+02 0.  0.
        -13    1    4    4    0    0 -0.67890923876E+00 -0.23926877527E+02  0.36746903898E+02  0.43855345535E+02  0.00000000000E+00 0. -1.
         13    1    4    4    0    0  0.57694988151E+02  0.68417772359E+02  0.63420680356E+02  0.10968995364E+03  0.00000000000E+00 0.  1.
        -13    1    3    3    0    0 -0.65792915915E+02 -0.53706852082E+02  0.11839862341E+03  0.14570987533E+03  0.00000000000E+00 0. -1.
         13    1    3    3    0    0  0.24369614791E+02 -0.98392011461E+01  0.95532927634E+02  0.99081927043E+02  0.00000000000E+00 0.  1.
         -4    1    1    2    0  502 -0.15592777789E+02  0.19055158396E+02 -0.97861905096E+01  0.26495344975E+02  0.00000000000E+00 0.  1.
<scales pt_clust_5="13000.00000" pt_clust_6="13000.00000" pt_clust_7="13000.00000" pt_clust_8="13000.00000" pt_clust_9="24.62182"></scales>
<clustering>
<clus scale="   24.622">  2  9  1 -1</clus>
<clus scale="   91.172">  5  6 -1 -1</clus>
<clus scale="   91.664">  7  8 -1 -1</clus>
<clus scale="  117.191">  2  5  1 -1</clus>
<clus scale="   24.622">  2  5  1 -1</clus>
</clustering>
</event>
<event>
 9    1  0.1464797E-005  0.1185283E+03  0.7546771E-02  0.1245796E+00
         21   -1    0    0  501  502  0.00000000000E+00  0.00000000000E+00  0.41691622393E+02  0.41691622393E+02  0.00000000000E+00 0. -1.
         -3   -1    0    0    0  501 -0.00000000000E+00 -0.00000000000E+00 -0.53250354912E+03  0.53250354912E+03  0.00000000000E+00 0.  1.
         23    2    1    2    0    0  0.42542956014E+02  0.65834870186E+02 -0.29378218127E+03  0.31697784211E+03  0.89570358481E+02 0.  0.
         23    2    1    2    0    0 -0.58954210799E+02 -0.51035225139E+02 -0.91626808970E+02  0.14952267867E+03  0.88777058623E+02 0.  0.
        -13    1    4    4    0    0 -0.72109017076E+02 -0.28644828144E+02 -0.95736893121E+02  0.12323063429E+03  0.00000000000E+00 0.  1.
         13    1    4    4    0    0  0.13154806278E+02 -0.22390396995E+02  0.41100841506E+01  0.26292044377E+02  0.00000000000E+00 0. -1.
        -13    1    3    3    0    0  0.53846464598E+01  0.76363890113E+02 -0.23009052944E+03  0.24249142226E+03  0.00000000000E+00 0. -1.
         13    1    3    3    0    0  0.37158309554E+02 -0.10529019928E+02 -0.63691651827E+02  0.74486419849E+02  0.00000000000E+00 0.  1.
         -3    1    1    2    0  502  0.16411254785E+02 -0.14799645047E+02 -0.10540293649E+03  0.10769465074E+03  0.00000000000E+00 0.  1.
<scales pt_clust_5="13000.00000" pt_clust_6="13000.00000" pt_clust_7="13000.00000" pt_clust_8="13000.00000" pt_clust_9="22.09885"></scales>
<clustering>
<clus scale="   22.099">  1  9  2 -1</clus>
<clus scale="   88.777">  5  6 -1 -1</clus>
<clus scale="   89.570">  7  8 -1 -1</clus>
<clus scale="  117.930">  1  5  2 -1</clus>
<clus scale="   22.099">  1  5  2 -1</clus>
</clustering>
</event>
<event>
 9    1  0.1464797E-005  0.1429071E+03  0.7546771E-02  0.1209550E+00
          3   -1    0    0  502    0 -0.00000000000E+00  0.00000000000E+00  0.38983933982E+03  0.38983933982E+03  0.00000000000E+00 0. -1.
         21   -1    0    0  501  502  0.00000000000E+00 -0.00000000000E+00 -0.10976684922E+03  0.10976684922E+03  0.00000000000E+00 0. -1.
         23    2    1    2    0    0  0.28273203591E+02  0.73537316435E+02  0.11544238266E+03  0.16704084069E+03  0.91479985771E+02 0.  0.
         23    2    1    2    0    0 -0.36674809110E+02 -0.16512270304E+03  0.13792571723E+03  0.23679690626E+03  0.91862520409E+02 0.  0.
        -11    1    3    3    0    0  0.55278432829E+02  0.75429506930E+02  0.92832771244E+02  0.13176964396E+03  0.00000000000E+00 0.  1.
         11    1    3    3    0    0 -0.27005229238E+02 -0.18921904953E+01  0.22609611412E+02  0.35271196737E+02  0.00000000000E+00 0. -1.
        -13    1    4    4    0    0 -0.56348578442E+02 -0.93169380462E+02  0.45458260728E+02  0.11799215744E+03  0.00000000000E+00 0.  1.
         13    1    4    4    0    0  0.19673769332E+02 -0.71953322582E+02  0.92467456505E+02  0.11880474882E+03  0.00000000000E+00 0. -1.
          3    1    1    2  501    0  0.84016055185E+01  0.91585386609E+02  0.26704390715E+02  0.95768442083E+02  0.00000000000E+00 0. -1.
<scales pt_clust_5="13000.00000" pt_clust_6="13000.00000" pt_clust_7="13000.00000" pt_clust_8="13000.00000" pt_clust_9="91.96994"></scales>
<clustering>
<clus scale="   91.480">  5  6 -1 -1</clus>
<clus scale="   91.863">  7  8 -1 -1</clus>
<clus scale="   91.970">  2  9  1 -1</clus>
<clus scale="  142.661">  1  5  2 -1</clus>
<clus scale="   91.970">  2  5  1 -1</clus>
</clustering>
</event>
<event>
 9    1  0.1464797E-005  0.2155675E+03  0.7546771E-02  0.1137410E+00
          1   -1    0    0  502    0 -0.00000000000E+00  0.00000000000E+00  0.11409396406E+04  0.11409396406E+04  0.00000000000E+00 0. -1.
         21   -1    0    0  501  502  0.00000000000E+00 -0.00000000000E+00 -0.68735986797E+02  0.68735986797E+02  0.00000000000E+00 0.  1.
         23    2    1    2    0    0 -0.51299632917E+02 -0.18977481312E+03  0.87618993835E+03  0.90279680121E+03  0.93204743251E+02 0.  0.
         23    2    1    2    0    0  0.73020523500E+02  0.17276568114E+03  0.17110123016E+03  0.26970706833E+03  0.91029084979E+02 0.  0.
        -11    1    3    3    0    0  0.86991098049E+01 -0.13426362279E+03  0.59118728577E+03  0.60630421553E+03  0.00000000000E+00 0.  1.
         11    1    3    3    0    0 -0.59998742722E+02 -0.55511190327E+02  0.28500265259E+03  0.29649258568E+03  0.00000000000E+00 0. -1.
        -13    1    4    4    0    0  0.64875790713E+02  0.10022098461E+03  0.15377454441E+03  0.19467851572E+03  0.00000000000E+00 0. -1.
         13    1    4    4    0    0  0.81447327872E+01  0.72544696533E+02  0.17326685755E+02  0.75028552609E+02  0.00000000000E+00 0.  1.
          1    1    1    2  501    0 -0.21720890582E+02  0.17009131978E+02  0.24912485259E+02  0.37171757829E+02  0.00000000000E+00 0. -1.
<scales pt_clust_5="13000.00000" pt_clust_6="13000.00000" pt_clust_7="13000.00000" pt_clust_8="13000.00000" pt_clust_9="27.58818"></scales>
<clustering>
<clus scale="   27.588">  2  9  1 -1</clus>
<clus scale="   91.029">  7  8 -1 -1</clus>
<clus scale="   93.205">  5  6 -1 -1</clus>
<clus scale="  214.636">  2  7  1 -1</clus>
<clus scale="   27.588">  2  5  1 -1</clus>
</clustering>
</event>
<event>
 9    1  0.1464797E-005  0.9926010E+02  0.7546771E-02  0.1282600E+00
         -1   -1    0    0    0  501 -0.00000000000E+00  0.00000000000E+00  0.19279091344E+03  0.19279091344E+03  0.00000000000E+00 0.  1.
         21   -1    0    0  501  502  0.00000000000E+00 -0.00000000000E+00 -0.14148999450E+03  0.14148999450E+03  0.00000000000E+00 0. -1.
         23    2    1    2    0    0  0.37702978454E+02  0.12430448400E+02  0.14417859848E+03  0.17439291792E+03  0.89718397939E+02 0.  0.
         23    2    1    2    0    0 -0.23682086809E+02 -0.36404441642E+02 -0.81758539332E+02  0.12997189011E+03  0.91225593215E+02 0.  0.
        -11    1    3    3    0    0  0.31228349025E+01  0.30202354236E+02  0.61328442069E+01  0.30976540757E+02  0.00000000000E+00 0. -1.
         11    1    3    3    0    0  0.34580143552E+02 -0.17771905836E+02  0.13804575428E+03  0.14341637716E+03  0.00000000000E+00 0.  1.
        -11    1    4    4    0    0  0.24969279734E+02  0.86040862120E+01 -0.23144777931E+01  0.26511356763E+02  0.00000000000E+00 0.  1.
         11    1    4    4    0    0 -0.48651366543E+02 -0.45008527854E+02 -0.79444061539E+02  0.10346053334E+03  0.00000000000E+00 0. -1.
         -1    1    1    2    0  502 -0.14020891645E+02  0.23973993242E+02 -0.11119140215E+02  0.29916099906E+02  0.00000000000E+00 0.  1.
<scales pt_clust_5="13000.00000" pt_clust_6="13000.00000" pt_clust_7="13000.00000" pt_clust_8="13000.00000" pt_clust_9="27.77297"></scales>
<clustering>
<clus scale="   27.773">  2  9  1 -1</clus>
<clus scale="   89.718">  5  6 -1 -1</clus>
<clus scale="   91.226">  7  8 -1 -1</clus>
<clus scale="   97.877">  1  5  2 -1</clus>
<clus scale="   27.773">  2  5  1 -1</clus>
</clustering>
</event>
<event>
 9    1  0.1464797E-005  0.1251096E+03  0.7546771E-02  0.1235459E+00
         21   -1    0    0  501  502  0.00000000000E+00  0.00000000000E+00  0.77814214126E+02  0.77814214126E+02  0.00000000000E+00 0.  1.
         -2   -1    0    0    0  501 -0.00000000000E+00 -0.00000000000E+00 -0.52050530343E+03  0.52050530343E+03  0.00000000000E+00 0.  1.
         23    2    1    2    0    0 -0.12322009933E+02 -0.74533524578E+02 -0.25045104719E+03  0.27650058997E+03  0.89553174161E+02 0.  0.
         23    2    1    2    0    0 -0.23636112952E+02  0.10140784620E+03 -0.22635813980E+03  0.26543399738E+03  0.91514929958E+02 0.  0.
        -13    1    4    4    0    0 -0.30663888884E+02  0.43120785473E+02 -0.18800154401E+03  0.19530554721E+03  0.00000000000E+00 0.  1.
         13    1    4    4    0    0  0.70277759323E+01  0.58287060724E+02 -0.38356595791E+02  0.70128450168E+02  0.00000000000E+00 0. -1.
        -13    1    3    3    0    0 -0.41015329257E+02 -0.23276988722E+02 -0.17288550483E+03  0.17920232481E+03  0.00000000000E+00 0.  1.
         13    1    3    3    0    0  0.28693319323E+02 -0.51256535856E+02 -0.77565542362E+02  0.97298265163E+02  0.00000000000E+00 0. -1.
         -2    1    1    2    0  502  0.35958122885E+02 -0.26874321618E+02  0.34118097689E+02  0.56384930201E+02  0.00000000000E+00 0.  1.
<scales pt_clust_5="13000.00000" pt_clust_6="13000.00000" pt_clust_7="13000.00000" pt_clust_8="13000.00000" pt_clust_9="44.89115"></scales>
<clustering>
<clus scale="   44.891">  1  9  2 -1</clus>
<clus scale="   89.553">  7  8 -1 -1</clus>
<clus scale="   91.515">  5  6 -1 -1</clus>
<clus scale="  123.682">  2  7  1 -1</clus>
<clus scale="   44.891">  1  5  2 -1</clus>
</clustering>
</event>
<event>
 9    1  0.1464797E-005  0.1092677E+03  0.7546771E-02  0.1263335E+00
         21   -1    0    0  501  502  0.00000000000E+00  0.00000000000E+00  0.25959936023E+02  0.25959936023E+02  0.00000000000E+00 0.  1.
          1   -1    0    0  502    0 -0.00000000000E+00 -0.00000000000E+00 -0.55531244683E+03  0.55531244683E+03  0.00000000000E+00 0. -1.
         23    2    1    2    0    0  0.51536795200E+02  0.53383603742E+01 -0.25406926717E+03  0.27631410697E+03  0.95465982605E+02 0.  0.
         23    2    1    2    0    0 -0.50081691051E+02 -0.27213179476E+02 -0.21324959824E+03  0.23916467286E+03  0.92063112475E+02 0.  0.
        -13    1    4    4    0    0  0.45026017236E+00 -0.45913642114E+02 -0.53125092083E+02  0.70217808818E+02  0.00000000000E+00 0.  1.
         13    1    4    4    0    0 -0.50531951224E+02  0.18700462638E+02 -0.16012450616E+03  0.16894686404E+03  0.00000000000E+00 0. -1.
        -13    1    3    3    0    0  0.67276493930E+02 -0.26912138335E+02 -0.16046618014E+03  0.17606755747E+03  0.00000000000E+00 0.  1.
         13    1    3    3    0    0 -0.15739698730E+02  0.32250498709E+02 -0.93603087038E+02  0.10024654950E+03  0.00000000000E+00 0. -1.
          1    1    1    2  501    0 -0.14551041488E+01  0.21874819102E+02 -0.62033645394E+02  0.65793603030E+02  0.00000000000E+00 0. -1.
<scales pt_clust_5="13000.00000" pt_clust_6="13000.00000" pt_clust_7="13000.00000" pt_clust_8="13000.00000" pt_clust_9="21.92317"></scales>
<clustering>
<clus scale="   21.923">  1  9  2 -1</clus>
<clus scale="   92.063">  5  6 -1 -1</clus>
<clus scale="   95.466">  7  8 -1 -1</clus>
<clus scale="  106.308">  1  5  2 -1</clus>
<clus scale="   21.923">  1  5  2 -1</clus>
</clustering>
</event>
<event>
 9    1  0.1464797E-005  0.9809599E+02  0.7546771E-02  0.1284743E+00
          1   -1    0    0  502    0 -0.00000000000E+00  0.00000000000E+00  0.50478479162E+03  0.50478479162E+03  0.00000000000E+00 0. -1.
         21   -1    0    0  501  502  0.00000000000E+00 -0.00000000000E+00 -0.38093664735E+02  0.38093664735E+02  0.00000000000E+00 0.  1.
         23    2    1    2    0    0  0.26590866116E+01  0.34272890659E+02  0.33565320040E+03  0.34973065782E+03  0.92015000447E+02 0.  0.
         23    2    1    2    0    0 -0.37633471162E+02 -0.25061613769E+02  0.11493652434E+03  0.15355852792E+03  0.91243927100E+02 0.  0.
        -11    1    4    4    0    0  0.20905527425E+02  0.16886757956E+02  0.49149104276E+02  0.56016409403E+02  0.00000000000E+00 0. -1.
         11    1    4    4    0    0 -0.58538998587E+02 -0.41948371725E+02  0.65787420067E+02  0.97542118518E+02  0.00000000000E+00 0.  1.
        -13    1    3    3    0    0  0.31973373667E+02  0.49062235594E+02  0.27056401460E+03  0.27682898255E+03  0.00000000000E+00 0. -1.
         13    1    3    3    0    0 -0.29314287056E+02 -0.14789344934E+02  0.65089185805E+02  0.72901675275E+02  0.00000000000E+00 0.  1.
          1    1    1    2  501    0  0.34974384550E+02 -0.92112768905E+01  0.16101402144E+02  0.39589270613E+02  0.00000000000E+00 0. -1.
<scales pt_clust_5="13000.00000" pt_clust_6="13000.00000" pt_clust_7="13000.00000" pt_clust_8="13000.00000" pt_clust_9="36.16705"></scales>
<clustering>
<clus scale="   36.167">  2  9  1 -1</clus>
<clus scale="   91.244">  5  6 -1 -1</clus>
<clus scale="   92.015">  7  8 -1 -1</clus>
<clus scale="   97.373">  2  5  1 -1</clus>
<clus scale="   36.167">  2  5  1 -1</clus>
</clustering>
</event>
<event>
 9    1  0.1464797E-005  0.1006051E+03  0.7546771E-02  0.1279497E+00
         21   -1    0    0  501  502  0.00000000000E+00  0.00000000000E+00  0.88858094409E+02  0.88858094409E+02  0.00000000000E+00 0.  1.
          1   -1    0    0  502    0 -0.00000000000E+00 -0.00000000000E+00 -0.25172834862E+03  0.25172834862E+03  0.00000000000E+00 0. -1.
         23    2    1    2    0    0  0.26263178197E+02  0.63852311458E+01 -0.94775611239E+02  0.13494409970E+03  0.92178998975E+02 0.  0.
         23    2    1    2    0    0 -0.54211616142E+02 -0.58014074394E+01 -0.11149502508E+03  0.15401822881E+03  0.91202623500E+02 0.  0.
        -11    1    4    4    0    0 -0.59231012661E+01 -0.22692001244E+02  0.73937588812E+01  0.24590195596E+02  0.00000000000E+00 0.  1.
         11    1    4    4    0    0 -0.48288514876E+02  0.16890593805E+02 -0.11888878396E+03  0.12942803321E+03  0.00000000000E+00 0. -1.
        -11    1    3    3    0    0 -0.23366745691E+02  0.31678468719E+02 -0.29878487442E+02  0.49419168309E+02  0.00000000000E+00 0.  1.
         11    1    3    3    0    0  0.49629923888E+02 -0.25293237573E+02 -0.64897123798E+02  0.85524931390E+02  0.00000000000E+00 0. -1.
          1    1    1    2  501    0  0.27948437944E+02 -0.58382370642E+00  0.43400382108E+02  0.51624114528E+02  0.00000000000E+00 0. -1.
<scales pt_clust_5="13000.00000" pt_clust_6="13000.00000" pt_clust_7="13000.00000" pt_clust_8="13000.00000" pt_clust_9="27.95454"></scales>
<clustering>
<clus scale="   27.955">  1  9  2 -1</clus>
<clus scale="   91.203">  5  6 -1 -1</clus>
<clus scale="   92.179">  7  8 -1 -1</clus>
<clus scale="   99.711">  1  5  2 -1</clus>
<clus scale="   27.955">  1  5  2 -1</clus>
</clustering>
</event>
<event>
 9    1  0.1464797E-005  0.1034979E+03  0.7546771E-02  0.1274573E+00
          1   -1    0    0  502    0 -0.00000000000E+00  0.00000000000E+00  0.95781461053E+02  0.95781461053E+02  0.00000000000E+00 0. -1.
         21   -1    0    0  501  502  0.00000000000E+00 -0.00000000000E+00 -0.39736393928E+03  0.39736393928E+03  0.00000000000E+00 0. -1.
         23    2    1    2    0    0 -0.62288146486E+02 -0.33254271952E+02 -0.23893636248E+01  0.11581336218E+03  0.91768000988E+02 0.  0.
         23    2    1    2    0    0  0.80913897355E+01  0.30775071979E+02 -0.24315566787E+02  0.97151558519E+02  0.88513292174E+02 0.  0.
        -11    1    4    4    0    0 -0.26916349662E+02  0.36065176627E+02  0.11854571955E+02  0.46537272379E+02  0.00000000000E+00 0. -1.
         11    1    4    4    0    0  0.35007739397E+02 -0.52901046487E+01 -0.36170138742E+02  0.50614286140E+02  0.00000000000E+00 0.  1.
        -13    1    3    3    0    0  0.24980469572E+01  0.20155327123E+02 -0.21633453901E+02  0.29672946900E+02  0.00000000000E+00 0.  1.
         13    1    3    3    0    0 -0.64786193443E+02 -0.53409599075E+02  0.19244090276E+02  0.86140415281E+02  0.00000000000E+00 0. -1.
          1    1    1    2  501    0  0.54196756751E+02  0.24791999735E+01 -0.27487754781E+03  0.28018047963E+03  0.00000000000E+00 0. -1.
<scales pt_clust_5="13000.00000" pt_clust_6="13000.00000" pt_clust_7="13000.00000" pt_clust_8="13000.00000" pt_clust_9="54.25343"></scales>
<clustering>
<clus scale="   54.253">  2  9  1 -1</clus>
<clus scale="   88.513">  5  6 -1 -1</clus>
<clus scale="   91.768">  7  8 -1 -1</clus>
<clus scale="  100.623">  2  5  1 -1</clus>
<clus scale="   54.253">  2  5  1 -1</clus>
</clustering>
</event>
<event>
 9    1  0.1464797E-005  0.1121044E+03  0.7546771E-02  0.1259311E+00
         -3   -1    0    0    0  501 -0.00000000000E+00  0.00000000000E+00  0.22770338687E+03  0.22770338687E+03  0.00000000000E+00 0.  1.
         21   -1    0    0  501  502  0.00000000000E+00 -0.00000000000E+00 -0.93270459693E+02  0.93270459693E+02  0.00000000000E+00 0. -1.
         23    2    1    2    0    0 -0.43438269546E+01 -0.48104972031E+02  0.11699559695E+03  0.15562286836E+03  0.90540324085E+02 0.  0.
         23    2    1    2    0    0  0.23804281427E+02  0.71990883625E+02  0.37318072930E+02  0.12868369044E+03  0.97043920355E+02 0.  0.
        -11    1    4    4    0    0  0.60557518594E+02  0.33666298346E+02  0.28206196178E+02  0.74807902025E+02  0.00000000000E+00 0. -1.
         11    1    4    4    0    0 -0.36753237167E+02  0.38324585279E+02  0.91118767523E+01  0.53875788412E+02  0.00000000000E+00 0.  1.
        -13    1    3    3    0    0  0.12773266499E+02 -0.67013911397E+02  0.51929313250E+02  0.85736073110E+02  0.00000000000E+00 0. -1.
         13    1    3    3    0    0 -0.17117093454E+02  0.18908939366E+02  0.65066283701E+02  0.69886795254E+02  0.00000000000E+00 0.  1.
         -3    1    1    2    0  502 -0.19460454472E+02 -0.23885911595E+02 -0.19880742708E+02  0.36667287759E+02  0.00000000000E+00 0.  1.
<scales pt_clust_5="13000.00000" pt_clust_6="13000.00000" pt_clust_7="13000.00000" pt_clust_8="13000.00000" pt_clust_9="30.80984"></scales>
<clustering>
<clus scale="   30.810">  2  9  1 -1</clus>
<clus scale="   90.540">  7  8 -1 -1</clus>
<clus scale="   97.044">  5  6 -1 -1</clus>
<clus scale="  106.524">  1  7  2 -1</clus>
<clus scale="   30.810">  2  5  1 -1</clus>
</clustering>
</event>
<event>
 9    1  0.1464797E-005  0.9939322E+02  0.7546771E-02  0.1282640E+00
          1   -1    0    0  502    0 -0.00000000000E+00  0.00000000000E+00  0.78584153237E+03  0.78584153237E+03  0.00000000000E+00 0. -1.
         21   -1    0    0  501  502  0.00000000000E+00 -0.00000000000E+00 -0.18013030999E+02  0.18013030999E+02  0.00000000000E+00 0.  1.
         23    2    1    2    0    0 -0.38956849394E+00  0.33832134744E+02  0.38848453968E+03  0.39994086031E+03  0.88812662799E+02 0.  0.
         23    2    1    2    0    0 -0.28666240559E+02 -0.45143107806E+02  0.31877695708E+03  0.33579219251E+03  0.90983485617E+02 0.  0.
        -11    1    3    3    0    0 -0.39446662059E+02 -0.36352263747E+01  0.13238547438E+03  0.13818526638E+03  0.00000000000E+00 0.  1.
         11    1    3    3    0    0  0.39057093565E+02  0.37467361119E+02  0.25609906530E+03  0.26175559393E+03  0.00000000000E+00 0. -1.
        -11    1    4    4    0    0  0.14480550391E+02 -0.54307510863E+02  0.22856300902E+03  0.23537213337E+03  0.00000000000E+00 0.  1.
         11    1    4    4    0    0 -0.43146790951E+02  0.91644030565E+01  0.90213948067E+02  0.10042005914E+03  0.00000000000E+00 0. -1.
          1    1    1    2  501    0  0.29055809053E+02  0.11310973062E+02  0.60567004609E+02  0.68121510543E+02  0.00000000000E+00 0. -1.
<scales pt_clust_5="13000.00000" pt_clust_6="13000.00000" pt_clust_7="13000.00000" pt_clust_8="13000.00000" pt_clust_9="31.17977"></scales>
<clustering>
<clus scale="   31.180">  2  9  1 -1</clus>
<clus scale="   88.813">  5  6 -1 -1</clus>
<clus scale="   90.983">  7  8 -1 -1</clus>
<clus scale="   97.410">  1  5  2 -1</clus>
<clus scale="   31.180">  2  5  1 -1</clus>
</clustering>
</event>
<event>
 9    1  0.1464797E-005  0.1057393E+03  0.7546771E-02  0.1269326E+00
         21   -1    0    0  501  502  0.00000000000E+00  0.00000000000E+00  0.39557506894E+03  0.39557506894E+03  0.00000000000E+00 0.  1.
          1   -1    0    0  502    0 -0.00000000000E+00 -0.00000000000E+00 -0.16946387887E+03  0.16946387887E+03  0.00000000000E+00 0. -1.
         23    2    1    2    0    0 -0.92119868379E+01  0.49526315058E+02 -0.13295569334E+03  0.16830198310E+03  0.90059005864E+02 0.  0.
         23    2    1    2    0    0  0.22666639401E+02 -0.85179741692E+02  0.23812274552E+03  0.26993129057E+03  0.91602918920E+02 0.  0.
        -11    1    3    3    0    0 -0.46198758897E+02  0.24040481269E+02 -0.99462113948E+02  0.11227191178E+03  0.00000000000E+00 0. -1.
         11    1    3    3    0    0  0.36986772059E+02  0.25485833788E+02 -0.33493579396E+02  0.56030071319E+02  0.00000000000E+00 0.  1.
        -13    1    4    4    0    0 -0.24395570267E+02 -0.65304101327E+02  0.17722453603E+03  0.19044239462E+03  0.00000000000E+00 0.  1.
         13    1    4    4    0    0  0.47062209668E+02 -0.19875640365E+02  0.60898209493E+02  0.79488895943E+02  0.00000000000E+00 0. -1.
          1    1    1    2  501    0 -0.13454652564E+02  0.35653426634E+02  0.12094413790E+03  0.12680567415E+03  0.00000000000E+00 0. -1.
<scales pt_clust_5="13000.00000" pt_clust_6="13000.00000" pt_clust_7="13000.00000" pt_clust_8="13000.00000" pt_clust_9="38.10767"></scales>
<clustering>
<clus scale="   38.108">  1  9  2 -1</clus>
<clus scale="   90.059">  5  6 -1 -1</clus>
<clus scale="   91.603">  7  8 -1 -1</clus>
<clus scale="  104.405">  2  5  1 -1</clus>
<clus scale="   38.108">  1  5  2 -1</clus>
</clustering>
</event>
<event>
 9    1  0.1464797E-005  0.1070843E+03  0.7546771E-02  0.1267343E+00
          1   -1    0    0  502    0 -0.00000000000E+00  0.00000000000E+00  0.35950045878E+03  0.35950045878E+03  0.00000000000E+00 0. -1.
         21   -1    0    0  501  502  0.00000000000E+00 -0.00000000000E+00 -0.11100054076E+03  0.11100054076E+03  0.00000000000E+00 0. -1.
         23    2    1    2    0    0 -0.82398086251E+02 -0.28674101615E+01  0.22249498775E+03  0.25383716439E+03  0.90175494396E+02 0.  0.
         23    2    1    2    0    0  0.27446826901E+02  0.89694741551E+01  0.92452718858E+02  0.13022203567E+03  0.87043055874E+02 0.  0.
        -11    1    3    3    0    0 -0.27257595272E+02  0.40034915585E+02  0.61087259254E+02  0.77957836098E+02  0.00000000000E+00 0.  1.
         11    1    3    3    0    0 -0.55140490979E+02 -0.42902325747E+02  0.16140772850E+03  0.17587932829E+03  0.00000000000E+00 0. -1.
        -13    1    4    4    0    0  0.37636383537E+02 -0.18890696153E+02  0.91289449746E+02  0.10053417032E+03  0.00000000000E+00 0.  1.
         13    1    4    4    0    0 -0.10189556635E+02  0.27860170308E+02  0.11632691122E+01  0.29687865350E+02  0.00000000000E+00 0. -1.
          1    1    1    2  501    0  0.54951259350E+02 -0.61020639936E+01 -0.66447788592E+02  0.86441799483E+02  0.00000000000E+00 0. -1.
<scales pt_clust_5="13000.00000" pt_clust_6="13000.00000" pt_clust_7="13000.00000" pt_clust_8="13000.00000" pt_clust_9="55.28902"></scales>
<clustering>
<clus scale="   55.289">  2  9  1 -1</clus>
<clus scale="   87.043">  7  8 -1 -1</clus>
<clus scale="   90.175">  5  6 -1 -1</clus>
<clus scale="  104.460">  2  7  1 -1</clus>
<clus scale="   55.289">  2  5  1 -1</clus>
</clustering>
</event>
<event>
 9    1  0.1464797E-005  0.9918488E+02  0.7546771E-02  0.1283881E+00
         21   -1    0    0  501  502  0.00000000000E+00  0.00000000000E+00  0.16145575409E+03  0.16145575409E+03  0.00000000000E+00 0.  1.
          1   -1    0    0  502    0 -0.00000000000E+00 -0.00000000000E+00 -0.30079711275E+03  0.30079711275E+03  0.00000000000E+00 0. -1.
         23    2    1    2    0    0  0.29627572014E+02  0.70183641678E+00 -0.24868482473E+03  0.26610400849E+03  0.89938399413E+02 0.  0.
         23    2    1    2    0    0 -0.63992732054E+02 -0.16738320450E+02  0.48477404646E+02  0.12443546715E+03  0.93588918122E+02 0.  0.
        -13    1    3    3    0    0  0.59966946847E+02 -0.12907859152E+02 -0.16710346977E+03  0.17800622785E+03  0.00000000000E+00 0.  1.
         13    1    3    3    0    0 -0.30339374833E+02  0.13609695569E+02 -0.81581354951E+02  0.88097780644E+02  0.00000000000E+00 0. -1.
        -13    1    4    4    0    0 -0.66460011178E+02 -0.39727125299E+02  0.60605275790E+02  0.98326888611E+02  0.00000000000E+00 0.  1.
         13    1    4    4    0    0  0.24672791236E+01  0.22988804848E+02 -0.12127871144E+02  0.26108578535E+02  0.00000000000E+00 0. -1.
          1    1    1    2  501    0  0.34365160040E+02  0.16036484034E+02  0.60866061417E+02  0.71713391198E+02  0.00000000000E+00 0. -1.
<scales pt_clust_5="13000.00000" pt_clust_6="13000.00000" pt_clust_7="13000.00000" pt_clust_8="13000.00000" pt_clust_9="37.92272"></scales>
<clustering>
<clus scale="   37.923">  1  9  2 -1</clus>
<clus scale="   89.938">  5  6 -1 -1</clus>
<clus scale="   93.589">  7  8 -1 -1</clus>
<clus scale="   95.748">  2  5  1 -1</clus>
<clus scale="   37.923">  1  5  2 -1</clus>
</clustering>
</event>
<event>
 9    1  0.1464797E-005  0.1216153E+03  0.7546771E-02  0.1241713E+00
          1   -1    0    0  502    0 -0.00000000000E+00  0.00000000000E+00  0.43736655759E+03  0.43736655759E+03  0.00000000000E+00 0. -1.
         21   -1    0    0  501  502  0.00000000000E+00 -0.00000000000E+00 -0.20918329792E+03  0.20918329792E+03  0.00000000000E+00 0.  1.
         23    2    1    2    0    0  0.56361761122E+02 -0.45066535297E+02  0.34632024598E+03  0.36654488515E+03  0.95967699428E+02 0.  0.
         23    2    1    2    0    0 -0.46876628425E+02  0.81140432528E+02  0.23578962848E+02  0.13346247123E+03  0.92060174092E+02 0.  0.
        -11    1    3    3    0    0  0.45633610924E+02 -0.71507030058E+02  0.19644189951E+03  0.21397453512E+03  0.00000000000E+00 0. -1.
         11    1    3    3    0    0  0.10728150198E+02  0.26440494761E+02  0.14987834647E+03  0.15257035004E+03  0.00000000000E+00 0.  1.
        -13    1    4    4    0    0 -0.14712616020E+02  0.76614353999E+02 -0.18624964498E+02  0.80206668123E+02  0.00000000000E+00 0.  1.
         13    1    4    4    0    0 -0.32164012406E+02  0.45260785289E+01  0.42203927347E+02  0.53255803105E+02  0.00000000000E+00 0. -1.
          1    1    1    2  501    0 -0.94851326970E+01 -0.36073897231E+02 -0.14171594916E+03  0.14654249913E+03  0.00000000000E+00 0. -1.
<scales pt_clust_5="13000.00000" pt_clust_6="13000.00000" pt_clust_7="13000.00000" pt_clust_8="13000.00000" pt_clust_9="37.30005"></scales>
<clustering>
<clus scale="   37.300">  2  9  1 -1</clus>
<clus scale="   92.060">  7  8 -1 -1</clus>
<clus scale="   95.968">  5  6 -1 -1</clus>
<clus scale="  118.556">  2  7  1 -1</clus>
<clus scale="   37.300">  2  5  1 -1</clus>
</clustering>
</event>
<event>
 9    1  0.1464797E-005  0.9242872E+02  0.7546771E-02  0.1297916E+00
         21   -1    0    0  501  502  0.00000000000E+00  0.00000000000E+00  0.28989180687E+03  0.28989180687E+03  0.00000000000E+00 0.  1.
          3   -1    0    0  502    0 -0.00000000000E+00 -0.00000000000E+00 -0.60009287109E+02  0.60009287109E+02  0.00000000000E+00 0. -1.
         23    2    1    2    0    0  0.26922527225E+01 -0.68960185829E+01  0.97582052030E+01  0.92438277798E+02  0.91623192132E+02 0.  0.
         23    2    1    2    0    0  0.23961780778E+02  0.24332261581E+02  0.12989455180E+03  0.16177650494E+03  0.90182132773E+02 0.  0.
        -11    1    4    4    0    0  0.58537252430E+02  0.14877083155E+02  0.86338836870E+02  0.10536760545E+03  0.00000000000E+00 0.  1.
         11    1    4    4    0    0 -0.34575471653E+02  0.94551784257E+01  0.43555714930E+02  0.56408899494E+02  0.00000000000E+00 0. -1.
        -13    1    3    3    0    0 -0.29235890432E+02 -0.21476882341E+01 -0.29516887558E+02  0.41600438762E+02  0.00000000000E+00 0. -1.
         13    1    3    3    0    0  0.31928143154E+02 -0.47483303489E+01  0.39275092761E+02  0.50837839035E+02  0.00000000000E+00 0.  1.
          3    1    1    2  501    0 -0.26654033500E+02 -0.17436242998E+02  0.90229762760E+02  0.95686311243E+02  0.00000000000E+00 0. -1.
<scales pt_clust_5="13000.00000" pt_clust_6="13000.00000" pt_clust_7="13000.00000" pt_clust_8="13000.00000" pt_clust_9="31.85059"></scales>
<clustering>
<clus scale="   31.851">  1  9  2 -1</clus>
<clus scale="   90.182">  5  6 -1 -1</clus>
<clus scale="   91.000">  1  5  2 -1</clus>
<clus scale="   91.623">  7  8 -1 -1</clus>
<clus scale="   31.851">  1  5  2 -1</clus>
</clustering>
</event>
<event>
 9    1  0.1464797E-005  0.1043938E+03  0.7546771E-02  0.1271396E+00
          2   -1    0    0  502    0 -0.00000000000E+00  0.00000000000E+00  0.23545638162E+02  0.23545638162E+02  0.00000000000E+00 0. -1.
         21   -1    0    0  501  502  0.00000000000E+00 -0.00000000000E+00 -0.81644915019E+03  0.81644915019E+03  0.00000000000E+00 0. -1.
         23    2    1    2    0    0  0.44732696680E+02 -0.24243332795E+02 -0.23598694959E+03  0.25832679431E+03  0.91946391697E+02 0.  0.
         23    2    1    2    0    0 -0.53775123415E+02 -0.20129709190E+02 -0.26679191669E+03  0.28803039017E+03  0.92122797175E+02 0.  0.
        -11    1    4    4    0    0 -0.24938055780E+02  0.35868222008E+02 -0.83828853038E+02  0.94528898110E+02  0.00000000000E+00 0.  1.
         11    1    4    4    0    0 -0.28837067635E+02 -0.55997931198E+02 -0.18296306365E+03  0.19350149206E+03  0.00000000000E+00 0. -1.
        -11    1    3    3    0    0 -0.26359180922E+02 -0.21145424145E+02 -0.70011463539E+02  0.77740211011E+02  0.00000000000E+00 0.  1.
         11    1    3    3    0    0  0.71091877602E+02 -0.30979086497E+01 -0.16597548605E+03  0.18058658330E+03  0.00000000000E+00 0. -1.
          2    1    1    2  501    0  0.90424267353E+01  0.44373041985E+02 -0.29012464576E+03  0.29363760388E+03  0.00000000000E+00 0. -1.
<scales pt_clust_5="13000.00000" pt_clust_6="13000.00000" pt_clust_7="13000.00000" pt_clust_8="13000.00000" pt_clust_9="45.28501"></scales>
<clustering>
<clus scale="   45.285">  2  9  1 -1</clus>
<clus scale="   91.946">  7  8 -1 -1</clus>
<clus scale="   92.123">  5  6 -1 -1</clus>
<clus scale="  104.238">  1  7  2 -1</clus>
<clus scale="   45.285">  2  5  1 -1</clus>
</clustering>
</event>
<event>
 9    1  0.1464797E-005  0.1428002E+03  0.7546771E-02  0.1211164E+00
         21   -1    0    0  501  502  0.00000000000E+00  0.00000000000E+00  0.21874036680E+03  0.21874036680E+03  0.00000000000E+00 0.  1.
          1   -1    0    0  502    0 -0.00000000000E+00 -0.00000000000E+00 -0.17459315528E+03  0.17459315528E+03  0.00000000000E+00 0. -1.
         23    2    1    2    0    0  0.36843111740E+02  0.75950668707E+02 -0.66322524616E+01  0.12118942773E+03  0.86700470943E+02 0.  0.
         23    2    1    2    0    0 -0.10789492976E+03 -0.11655609255E+03  0.45937134139E+02  0.19016477106E+03  0.93945629401E+02 0.  0.
        -11    1    4    4    0    0 -0.77093087522E+01 -0.40533038983E+02 -0.22489168529E+02  0.46990673455E+02  0.00000000000E+00 0. -1.
         11    1    4    4    0    0 -0.10018562100E+03 -0.76023053568E+02  0.68426302668E+02  0.14317409761E+03  0.00000000000E+00 0.  1.
        -13    1    3    3    0    0  0.26904686634E+02  0.52236750325E+02 -0.45687278047E+02  0.74430286999E+02  0.00000000000E+00 0. -1.
         13    1    3    3    0    0  0.99384251059E+01  0.23713918382E+02  0.39055025586E+02  0.46759140734E+02  0.00000000000E+00 0.  1.
          1    1    1    2  501    0  0.71051818016E+02  0.40605423843E+02  0.48423298420E+01  0.81979323290E+02  0.00000000000E+00 0. -1.
<scales pt_clust_5="13000.00000" pt_clust_6="13000.00000" pt_clust_7="13000.00000" pt_clust_8="13000.00000" pt_clust_9="81.83623"></scales>
<clustering>
<clus scale="   81.836">  1  9  2 -1</clus>
<clus scale="   86.700">  7  8 -1 -1</clus>
<clus scale="   93.946">  5  6 -1 -1</clus>
<clus scale="  138.142">  2  7  1 -1</clus>
<clus scale="   81.836">  1  5  2 -1</clus>
</clustering>
</event>
<event>
 9    1  0.1464797E-005  0.2006548E+03  0.7546771E-02  0.1149299E+00
         21   -1    0    0  501  502  0.00000000000E+00  0.00000000000E+00  0.10696668959E+04  0.10696668959E+04  0.00000000000E+00 0.  1.
          2   -1    0    0  502    0 -0.00000000000E+00 -0.00000000000E+00 -0.85988639045E+02  0.85988639045E+02  0.00000000000E+00 0.  1.
         23    2    1    2    0    0  0.15761473445E+03  0.46096209091E+02  0.12449685515E+03  0.22520791756E+03  0.90839827068E+02 0.  0.
         23    2    1    2    0    0 -0.18698214188E+03 -0.10686799521E+03  0.37881488027E+03  0.44536241917E+03  0.91999353913E+02 0.  0.
        -13    1    3    3    0    0  0.40777883556E+02  0.47041163508E+02  0.77157977300E+02  0.99141617460E+02  0.00000000000E+00 0.  1.
         13    1    3    3    0    0  0.11683685089E+03 -0.94495441656E+00  0.47338877853E+02  0.12606630010E+03  0.00000000000E+00 0. -1.
        -13    1    4    4    0    0 -0.17345897099E+03 -0.59373330957E+02  0.31751834560E+03  0.36664847857E+03  0.00000000000E+00 0.  1.
         13    1    4    4    0    0 -0.13523170886E+02 -0.47494664251E+02  0.61296534669E+02  0.78713940605E+02  0.00000000000E+00 0. -1.
          2    1    1    2  501    0  0.29367407432E+02  0.60771786116E+02  0.48036652140E+03  0.48508519818E+03  0.00000000000E+00 0.  1.
<scales pt_clust_5="13000.00000" pt_clust_6="13000.00000" pt_clust_7="13000.00000" pt_clust_8="13000.00000" pt_clust_9="67.49559"></scales>
<clustering>
<clus scale="   67.496">  1  9  2 -1</clus>
<clus scale="   90.840">  5  6 -1 -1</clus>
<clus scale="   91.999">  7  8 -1 -1</clus>
<clus scale="  200.126">  2  5  1 -1</clus>
<clus scale="   67.496">  1  5  2 -1</clus>
</clustering>
</event>
<event>
 9    1  0.1464797E-005  0.2126720E+03  0.7546771E-02  0.1168892E+00
         21   -1    0    0  501  502  0.00000000000E+00  0.00000000000E+00  0.21751370318E+03  0.21751370318E+03  0.00000000000E+00 0. -1.
          1   -1    0    0  502    0 -0.00000000000E+00 -0.00000000000E+00 -0.77553604505E+03  0.77553604505E+03  0.00000000000E+00 0. -1.
         23    2    1    2    0    0  0.50320574297E+02 -0.25691800148E+02 -0.23829883301E+03  0.26099018736E+03  0.90207068987E+02 0.  0.
         23    2    1    2    0    0  0.14914614527E+03  0.69337129894E+02 -0.45350748377E+03  0.48794885040E+03  0.73299608046E+02 0.  0.
        -11    1    4    4    0    0  0.14232924433E+03  0.46398273979E+02 -0.42573928945E+03  0.45129187474E+03  0.00000000000E+00 0. -1.
         11    1    4    4    0    0  0.68169009401E+01  0.22938855914E+02 -0.27768194319E+02  0.36656975664E+02  0.00000000000E+00 0.  1.
        -11    1    3    3    0    0  0.14922260792E+02 -0.47213914027E+02 -0.59275825058E+02  0.77236332002E+02  0.00000000000E+00 0.  1.
         11    1    3    3    0    0  0.35398313505E+02  0.21522113879E+02 -0.17902300795E+03  0.18375385536E+03  0.00000000000E+00 0. -1.
          1    1    1    2  501    0 -0.19946671957E+03 -0.43645329746E+02  0.13378397491E+03  0.24411071047E+03  0.00000000000E+00 0. -1.
<scales pt_clust_5="13000.00000" pt_clust_6="13000.00000" pt_clust_7="13000.00000" pt_clust_8="13000.00000" pt_clust_9="199.64101"></scales>
<clustering>
<clus scale="   73.300">  5  6 -1 -1</clus>
<clus scale="   90.207">  7  8 -1 -1</clus>
<clus scale="  106.440">  2  7  1 -1</clus>
<clus scale="  199.641">  1  9  2 -1</clus>
<clus scale="  199.641">  1  5  2 -1</clus>
</clustering>
</event>
<event>
 9    1  0.1464797E-005  0.1130242E+03  0.7546771E-02  0.1258407E+00
         21   -1    0    0  501  502  0.00000000000E+00  0.00000000000E+00  0.52578917241E+03  0.52578917241E+03  0.00000000000E+00 0. -1.
          4   -1    0    0  502    0 -0.00000000000E+00 -0.00000000000E+00 -0.40945532756E+02  0.40945532756E+02  0.00000000000E+00 0. -1.
         23    2    1    2    0    0 -0.76866087961E+01  0.55517844365E+02  0.13990109373E+03  0.18054768210E+03  0.99417475753E+02 0.  0.
         23    2    1    2    0    0 -0.51025982912E+02 -0.44985848667E+02  0.21566854449E+03  0.24381476873E+03  0.91133653817E+02 0.  0.
        -11    1    3    3    0    0  0.21507711566E+02  0.10766394769E+02  0.12177064755E+03  0.12412327549E+03  0.00000000000E+00 0.  1.
         11    1    3    3    0    0 -0.29194320362E+02  0.44751449596E+02  0.18130446182E+02  0.56424406608E+02  0.00000000000E+00 0. -1.
        -13    1    4    4    0    0  0.23496014835E+02  0.44369094710E+01  0.54171736325E+02  0.59214237268E+02  0.00000000000E+00 0.  1.
         13    1    4    4    0    0 -0.74521997747E+02 -0.49422758138E+02  0.16149680816E+03  0.18460053147E+03  0.00000000000E+00 0. -1.
          4    1    1    2  501    0  0.58712591708E+02 -0.10531995698E+02  0.12927400144E+03  0.14237225434E+03  0.00000000000E+00 0. -1.
<scales pt_clust_5="13000.00000" pt_clust_6="13000.00000" pt_clust_7="13000.00000" pt_clust_8="13000.00000" pt_clust_9="59.64974"></scales>
<clustering>
<clus scale="   59.650">  1  9  2 -1</clus>
<clus scale="   91.134">  7  8 -1 -1</clus>
<clus scale="   99.417">  5  6 -1 -1</clus>
<clus scale="  105.811">  1  7  2 -1</clus>
<clus scale="   59.650">  1  5  2 -1</clus>
</clustering>
</event>
<event>
 9    1  0.1464797E-005  0.1133075E+03  0.7546771E-02  0.1254775E+00
         21   -1    0    0  501  502  0.00000000000E+00  0.00000000000E+00  0.18880407230E+03  0.18880407230E+03  0.00000000000E+00 0.  1.
          1   -1    0    0  502    0 -0.00000000000E+00 -0.00000000000E+00 -0.36525939823E+03  0.36525939823E+03  0.00000000000E+00 0. -1.
         23    2    1    2    0    0 -0.60191383209E+02 -0.20466107960E+02 -0.30904885939E+03  0.32876567129E+03  0.92378595693E+02 0.  0.
         23    2    1    2    0    0  0.81775007687E+02  0.17995883896E+02  0.40512704798E+02  0.13068895260E+03  0.91800432254E+02 0.  0.
        -11    1    4    4    0    0  0.30392911893E+02  0.52213469686E+02  0.32016003032E+02  0.68373971365E+02  0.00000000000E+00 0.  1.
         11    1    4    4    0    0  0.51382095794E+02 -0.34217585790E+02  0.84967017662E+01  0.62314981235E+02  0.00000000000E+00 0. -1.
        -13    1    3    3    0    0 -0.22894899584E+02  0.35547441852E+02 -0.15492027170E+03  0.16058669818E+03  0.00000000000E+00 0. -1.
         13    1    3    3    0    0 -0.37296483625E+02 -0.56013549812E+02 -0.15412858769E+03  0.16817897311E+03  0.00000000000E+00 0.  1.
          1    1    1    2  501    0 -0.21583624478E+02  0.24702240633E+01  0.92080828664E+02  0.94608846627E+02  0.00000000000E+00 0. -1.
<scales pt_clust_5="13000.00000" pt_clust_6="13000.00000" pt_clust_7="13000.00000" pt_clust_8="13000.00000" pt_clust_9="21.72452"></scales>
<clustering>
<clus scale="   21.725">  1  9  2 -1</clus>
<clus scale="   91.800">  5  6 -1 -1</clus>
<clus scale="   92.379">  7  8 -1 -1</clus>
<clus scale="  112.837">  1  5  2 -1</clus>
<clus scale="   21.725">  1  5  2 -1</clus>
</clustering>
</event>
<event>
 9    1  0.1464797E-005  0.1098612E+03  0.7546771E-02  0.1261093E+00
         21   -1    0    0  501  502  0.00000000000E+00  0.00000000000E+00  0.28630654758E+03  0.28630654758E+03  0.00000000000E+00 0. -1.
         -3   -1    0    0    0  501 -0.00000000000E+00 -0.00000000000E+00 -0.98174942467E+02  0.98174942467E+02  0.00000000000E+00 0.  1.
         23    2    1    2    0    0  0.34694220314E+02  0.26450372812E+02  0.11073482342E+02  0.10122325160E+03  0.90665393111E+02 0.  0.
         23    2    1    2    0    0 -0.11013414132E+03 -0.23602402068E+02  0.10045633036E+03  0.17570765863E+03  0.89972798800E+02 0.  0.
        -11    1    4    4    0    0 -0.79850597355E+02 -0.17186056584E+02  0.11536195080E+03  0.14135012604E+03  0.00000000000E+00 0. -1.
         11    1    4    4    0    0 -0.30283543965E+02 -0.64163454836E+01 -0.14905620447E+02  0.34357532585E+02  0.00000000000E+00 0.  1.
        -13    1    3    3    0    0  0.37054999785E+01 -0.33183103901E+02  0.26837639414E+01  0.33497040220E+02  0.00000000000E+00 0.  1.
         13    1    3    3    0    0  0.30988720335E+02  0.59633476713E+02  0.83897184008E+01  0.67726211379E+02  0.00000000000E+00 0. -1.
         -3    1    1    2    0  502  0.75439921006E+02 -0.28479707437E+01  0.76601792409E+02  0.10755057982E+03  0.00000000000E+00 0.  1.
<scales pt_clust_5="13000.00000" pt_clust_6="13000.00000" pt_clust_7="13000.00000" pt_clust_8="13000.00000" pt_clust_9="75.49366"></scales>
<clustering>
<clus scale="   75.494">  1  9  2 -1</clus>
<clus scale="   89.973">  5  6 -1 -1</clus>
<clus scale="   90.665">  7  8 -1 -1</clus>
<clus scale="  109.290">  1  5  2 -1</clus>
<clus scale="   75.494">  1  5  2 -1</clus>
</clustering>
</event>
<event>
 9    1  0.1464797E-005  0.1720308E+03  0.7546771E-02  0.1176079E+00
          1   -1    0    0  502    0 -0.00000000000E+00  0.00000000000E+00  0.61337195458E+03  0.61337195458E+03  0.00000000000E+00 0. -1.
         21   -1    0    0  501  502  0.00000000000E+00 -0.00000000000E+00 -0.19586294276E+03  0.19586294276E+03  0.00000000000E+00 0. -1.
         23    2    1    2    0    0  0.96771461727E+02  0.11454701329E+03  0.55760140096E+03  0.58394081496E+03  0.87073641051E+02 0.  0.
         23    2    1    2    0    0 -0.83827161768E+02 -0.99267597951E+02 -0.11396814011E+03  0.19237764543E+03  0.84494807215E+02 0.  0.
        -11    1    3    3    0    0  0.24400406288E+02 -0.11729120971E+02  0.68947260840E+02  0.74072105972E+02  0.00000000000E+00 0.  1.
         11    1    3    3    0    0  0.72371055439E+02  0.12627613426E+03  0.48865414012E+03  0.50986870899E+03  0.00000000000E+00 0. -1.
        -13    1    4    4    0    0 -0.98367326417E+02 -0.83103056531E+02 -0.11179098198E+03  0.17052704349E+03  0.00000000000E+00 0. -1.
         13    1    4    4    0    0  0.14540164649E+02 -0.16164541419E+02 -0.21771581362E+01  0.21850601934E+02  0.00000000000E+00 0.  1.
          1    1    1    2  501    0 -0.12944299960E+02 -0.15279415341E+02 -0.26124249021E+02  0.32916436950E+02  0.00000000000E+00 0. -1.
<scales pt_clust_5="13000.00000" pt_clust_6="13000.00000" pt_clust_7="13000.00000" pt_clust_8="13000.00000" pt_clust_9="20.02537"></scales>
<clustering>
<clus scale="   20.025">  2  9  1 -1</clus>
<clus scale="   84.495">  7  8 -1 -1</clus>
<clus scale="   87.074">  5  6 -1 -1</clus>
<clus scale="  170.740">  2  7  1 -1</clus>
<clus scale="   20.025">  2  5  1 -1</clus>
</clustering>
</event>
<event>
 9    1  0.1464797E-005  0.1251322E+03  0.7546771E-02  0.1236880E+00
          4   -1    0    0  502    0 -0.00000000000E+00  0.00000000000E+00  0.37705123801E+02  0.37705123801E+02  0.00000000000E+00 0. -1.
         21   -1    0    0  501  502  0.00000000000E+00 -0.00000000000E+00 -0.86432795761E+03  0.86432795761E+03  0.00000000000E+00 0.  1.
         23    2    1    2    0    0 -0.10922699376E+03  0.74036455588E+01 -0.22208937086E+03  0.26446806679E+03  0.92921039423E+02 0.  0.
         23    2    1    2    0    0  0.35714699790E+02  0.38569375674E+02 -0.44206859062E+03  0.45341178825E+03  0.85991129694E+02 0.  0.
        -11    1    3    3    0    0 -0.11641094004E+03  0.29552193811E+02 -0.18055922351E+03  0.21685587914E+03  0.00000000000E+00 0.  1.
         11    1    3    3    0    0  0.71839462868E+01 -0.22148548252E+02 -0.41530147346E+02  0.47612187647E+02  0.00000000000E+00 0. -1.
        -13    1    4    4    0    0  0.51582001573E+02  0.55004374382E+02 -0.37651027216E+03  0.38398719918E+03  0.00000000000E+00 0. -1.
         13    1    4    4    0    0 -0.15867301784E+02 -0.16434998708E+02 -0.65558318463E+02  0.69424589074E+02  0.00000000000E+00 0.  1.
          4    1    1    2  501    0  0.73512293967E+02 -0.45973021233E+02 -0.16246487233E+03  0.18415322638E+03  0.00000000000E+00 0. -1.
<scales pt_clust_5="13000.00000" pt_clust_6="13000.00000" pt_clust_7="13000.00000" pt_clust_8="13000.00000" pt_clust_9="86.70400"></scales>
<clustering>
<clus scale="   85.991">  7  8 -1 -1</clus>
<clus scale="   86.704">  2  9  1 -1</clus>
<clus scale="   92.921">  5  6 -1 -1</clus>
<clus scale="  120.076">  2  7  1 -1</clus>
<clus scale="   86.704">  2  5  1 -1</clus>
</clustering>
</event>
<event>
 9    1  0.1464797E-005  0.1587408E+03  0.7546771E-02  0.1190427E+00
         21   -1    0    0  501  502  0.00000000000E+00  0.00000000000E+00  0.11856601565E+03  0.11856601565E+03  0.00000000000E+00 0. -1.
          1   -1    0    0  502    0 -0.00000000000E+00 -0.00000000000E+00 -0.11068443598E+04  0.11068443598E+04  0.00000000000E+00 0. -1.
         23    2    1    2    0    0  0.12022226139E+03 -0.25082827653E+02 -0.79987784703E+03  0.81460183735E+03  0.93215035684E+02 0.  0.
         23    2    1    2    0    0 -0.14903238542E+03  0.10820218362E+02 -0.27071193226E+03  0.32244215523E+03  0.91412604015E+02 0.  0.
        -11    1    3    3    0    0  0.65250847534E+02  0.33549297956E+02 -0.41248965681E+03  0.41896413388E+03  0.00000000000E+00 0.  1.
         11    1    3    3    0    0  0.54971413854E+02 -0.58632125610E+02 -0.38738819022E+03  0.39563770348E+03  0.00000000000E+00 0. -1.
        -13    1    4    4    0    0 -0.99374635492E+02  0.41723305241E+02 -0.12281679553E+03  0.16340170636E+03  0.00000000000E+00 0. -1.
         13    1    4    4    0    0 -0.49657749932E+02 -0.30903086879E+02 -0.14789513673E+03  0.15904044887E+03  0.00000000000E+00 0.  1.
          1    1    1    2  501    0  0.28810124035E+02  0.14262609291E+02  0.82311435120E+02  0.88366382874E+02  0.00000000000E+00 0. -1.
<scales pt_clust_5="13000.00000" pt_clust_6="13000.00000" pt_clust_7="13000.00000" pt_clust_8="13000.00000" pt_clust_9="32.14724"></scales>
<clustering>
<clus scale="   32.147">  1  9  2 -1</clus>
<clus scale="   91.413">  7  8 -1 -1</clus>
<clus scale="   93.215">  5  6 -1 -1</clus>
<clus scale="  157.689">  1  7  2 -1</clus>
<clus scale="   32.147">  1  5  2 -1</clus>
</clustering>
</event>
<event>
 9    1  0.1464797E-005  0.1108337E+03  0.7546771E-02  0.1262800E+00
         -2   -1    0    0    0  501 -0.00000000000E+00  0.00000000000E+00  0.31118046608E+03  0.31118046608E+03  0.00000000000E+00 0.  1.
         21   -1    0    0  501  502  0.00000000000E+00 -0.00000000000E+00 -0.67935056726E+02  0.67935056726E+02  0.00000000000E+00 0. -1.
         23    2    1    2    0    0  0.48205976355E+02 -0.47237223633E+02  0.23423103500E+03  0.26025205081E+03  0.91168968103E+02 0.  0.
         23    2    1    2    0    0 -0.29104970807E+02  0.40577255632E+02  0.17234584143E+02  0.97028283979E+02  0.81387001425E+02 0.  0.
        -13    1    3    3    0    0 -0.22894391511E+01 -0.49440906980E+02  0.17750085196E+03  0.18427207401E+03  0.00000000000E+00 0.  1.
         13    1    3    3    0    0  0.50495415506E+02  0.22036833471E+01  0.56730183036E+02  0.75979976801E+02  0.00000000000E+00 0. -1.
        -13    1    4    4    0    0  0.15586946566E+02 -0.14919964635E+02 -0.54405589814E+01  0.22252144391E+02  0.00000000000E+00 0.  1.
         13    1    4    4    0    0 -0.44691917373E+02  0.55497220267E+02  0.22675143125E+02  0.74776139588E+02  0.00000000000E+00 0. -1.
         -2    1    1    2    0  502 -0.19101005548E+02  0.66599680007E+01 -0.82202097834E+01  0.21835188014E+02  0.00000000000E+00 0.  1.
<scales pt_clust_5="13000.00000" pt_clust_6="13000.00000" pt_clust_7="13000.00000" pt_clust_8="13000.00000" pt_clust_9="20.22878"></scales>
<clustering>
<clus scale="   20.229">  2  9  1 -1</clus>
<clus scale="   81.387">  7  8 -1 -1</clus>
<clus scale="   91.169">  5  6 -1 -1</clus>
<clus scale="  102.938">  2  7  1 -1</clus>
<clus scale="   20.229">  2  5  1 -1</clus>
</clustering>
</event>
<event>
 9    1  0.1464797E-005  0.1155622E+03  0.7546771E-02  0.1251275E+00
          3   -1    0    0  502    0 -0.00000000000E+00  0.00000000000E+00  0.53116133545E+02  0.53116133545E+02  0.00000000000E+00 0. -1.
         21   -1    0    0  501  502  0.00000000000E+00 -0.00000000000E+00 -0.40680193916E+03  0.40680193916E+03  0.00000000000E+00 0.  1.
         23    2    1    2    0    0  0.15436016436E+01 -0.68020471846E+02 -0.74532238181E+02  0.13575395328E+03  0.90801508840E+02 0.  0.
         23    2    1    2    0    0 -0.42536643213E+02  0.73830522923E+02 -0.20025065337E+03  0.23505824982E+03  0.88835491219E+02 0.  0.
        -13    1    3    3    0    0 -0.24123854001E+02 -0.20626067768E+02 -0.75443098446E+02  0.81847761769E+02  0.00000000000E+00 0.  1.
         13    1    3    3    0    0  0.25667455644E+02 -0.47394404077E+02  0.91086026548E+00  0.53906191514E+02  0.00000000000E+00 0. -1.
        -13    1    4    4    0    0  0.18006177408E+02  0.49057918565E+02 -0.55598867823E+02  0.76302921975E+02  0.00000000000E+00 0. -1.
         13    1    4    4    0    0 -0.60542820621E+02  0.24772604357E+02 -0.14465178555E+03  0.15875532784E+03  0.00000000000E+00 0.  1.
          3    1    1    2  501    0  0.40993041569E+02 -0.58100510770E+01 -0.78902914060E+02  0.89105869604E+02  0.00000000000E+00 0. -1.
<scales pt_clust_5="13000.00000" pt_clust_6="13000.00000" pt_clust_7="13000.00000" pt_clust_8="13000.00000" pt_clust_9="41.40273"></scales>
<clustering>
<clus scale="   41.403">  2  9  1 -1</clus>
<clus scale="   88.835">  7  8 -1 -1</clus>
<clus scale="   90.802">  5  6 -1 -1</clus>
<clus scale="  114.024">  2  7  1 -1</clus>
<clus scale="   41.403">  2  5  1 -1</clus>
</clustering>
</event>
<event>
 9    1  0.1464797E-005  0.1180786E+03  0.7546771E-02  0.1249067E+00
         21   -1    0    0  501  502  0.00000000000E+00  0.00000000000E+00  0.47804102414E+03  0.47804102414E+03  0.00000000000E+00 0. -1.
          3   -1    0    0  502    0 -0.00000000000E+00 -0.00000000000E+00 -0.58400813807E+02  0.58400813807E+02  0.00000000000E+00 0. -1.
         23    2    1    2    0    0  0.59053271796E+02  0.40427982145E+02  0.36180856095E+02  0.12154417820E+03  0.91335766582E+02 0.  0.
         23    2    1    2    0    0 -0.32236710365E+02 -0.33391758527E+02  0.18811594250E+03  0.21759665894E+03  0.99027688683E+02 0.  0.
        -11    1    4    4    0    0 -0.31848975209E+02 -0.66736075498E+02  0.14788567152E+03  0.16534277376E+03  0.00000000000E+00 0. -1.
         11    1    4    4    0    0 -0.38773515599E+00  0.33344316971E+02  0.40230270978E+02  0.52253885174E+02  0.00000000000E+00 0.  1.
        -13    1    3    3    0    0  0.45247276684E+02 -0.23044180390E+02  0.20223186218E+02  0.54656450287E+02  0.00000000000E+00 0.  1.
         13    1    3    3    0    0  0.13805995113E+02  0.63472162535E+02  0.15957669877E+02  0.66887727916E+02  0.00000000000E+00 0. -1.
          3    1    1    2  501    0 -0.26816561431E+02 -0.70362236176E+01  0.19534341174E+03  0.19730100081E+03  0.00000000000E+00 0. -1.
<scales pt_clust_5="13000.00000" pt_clust_6="13000.00000" pt_clust_7="13000.00000" pt_clust_8="13000.00000" pt_clust_9="27.72429"></scales>
<clustering>
<clus scale="   27.724">  1  9  2 -1</clus>
<clus scale="   91.336">  7  8 -1 -1</clus>
<clus scale="   99.028">  5  6 -1 -1</clus>
<clus scale="  111.706">  2  7  1 -1</clus>
<clus scale="   27.724">  1  5  2 -1</clus>
</clustering>
</event>
<event>
 9    1  0.1464797E-005  0.1708787E+03  0.7546771E-02  0.1177190E+00
          2   -1    0    0  502    0 -0.00000000000E+00  0.00000000000E+00  0.10625633746E+04  0.10625633746E+04  0.00000000000E+00 0. -1.
         21   -1    0    0  501  502  0.00000000000E+00 -0.00000000000E+00 -0.33786753003E+02  0.33786753003E+02  0.00000000000E+00 0. -1.
         23    2    1    2    0    0 -0.22745813402E+02  0.12952240461E+03  0.49401518391E+03  0.51956467089E+03  0.92752466166E+02 0.  0.
         23    2    1    2    0    0  0.41040169252E+02 -0.15524505366E+03  0.45983328594E+03  0.49548006911E+03  0.90931434840E+02 0.  0.
        -11    1    3    3    0    0  0.24293643301E+02  0.24227448652E+02  0.48788413158E+02  0.59644443425E+02  0.00000000000E+00 0.  1.
         11    1    3    3    0    0 -0.47039456703E+02  0.10529495596E+03  0.44522677075E+03  0.45992022746E+03  0.00000000000E+00 0. -1.
        -13    1    4    4    0    0  0.63899355087E+02 -0.13301036266E+03  0.32506635463E+03  0.35699162324E+03  0.00000000000E+00 0. -1.
         13    1    4    4    0    0 -0.22859185835E+02 -0.22234690994E+02  0.13476693132E+03  0.13848844586E+03  0.00000000000E+00 0.  1.
          2    1    1    2  501    0 -0.18294355851E+02  0.25722649043E+02  0.74928151716E+02  0.81305387579E+02  0.00000000000E+00 0. -1.
<scales pt_clust_5="13000.00000" pt_clust_6="13000.00000" pt_clust_7="13000.00000" pt_clust_8="13000.00000" pt_clust_9="31.56482"></scales>
<clustering>
<clus scale="   31.565">  2  9  1 -1</clus>
<clus scale="   90.931">  7  8 -1 -1</clus>
<clus scale="   92.752">  5  6 -1 -1</clus>
<clus scale="  169.897">  2  7  1 -1</clus>
<clus scale="   31.565">  2  5  1 -1</clus>
</clustering>
</event>
<event>
 9    1  0.1464797E-005  0.1056199E+03  0.7546771E-02  0.1269410E+00
          3   -1    0    0  502    0 -0.00000000000E+00  0.00000000000E+00  0.17464804979E+03  0.17464804979E+03  0.00000000000E+00 0. -1.
         21   -1    0    0  501  502  0.00000000000E+00 -0.00000000000E+00 -0.24382423137E+03  0.24382423137E+03  0.00000000000E+00 0.  1.
         23    2    1    2    0    0 -0.53812434896E+02 -0.13278528408E+02  0.18367775901E+02  0.10850375859E+03  0.91452681591E+02 0.  0.
         23    2    1    2    0    0  0.45158230393E+02 -0.13966274444E+02 -0.18347597772E+03  0.20986793794E+03  0.90259594404E+02 0.  0.
        -11    1    3    3    0    0  0.21220007212E+02 -0.21681047736E+02  0.12376936468E+02  0.32764997991E+02  0.00000000000E+00 0. -1.
         11    1    3    3    0    0 -0.75032442108E+02  0.84025193273E+01  0.59908394329E+01  0.75738760597E+02  0.00000000000E+00 0.  1.
        -11    1    4    4    0    0  0.13275646137E+02 -0.27435787276E+02 -0.86977576883E+01  0.31695680978E+02  0.00000000000E+00 0. -1.
         11    1    4    4    0    0  0.31882584256E+02  0.13469512832E+02 -0.17477822003E+03  0.17817225696E+03  0.00000000000E+00 0.  1.
          3    1    1    2  501    0  0.86542045025E+01  0.27244802852E+02  0.95932020234E+02  0.10010058463E+03  0.00000000000E+00 0. -1.
<scales pt_clust_5="13000.00000" pt_clust_6="13000.00000" pt_clust_7="13000.00000" pt_clust_8="13000.00000" pt_clust_9="28.58628"></scales>
<clustering>
<clus scale="   28.586">  2  9  1 -1</clus>
<clus scale="   90.260">  7  8 -1 -1</clus>
<clus scale="   91.453">  5  6 -1 -1</clus>
<clus scale="  104.589">  2  7  1 -1</clus>
<clus scale="   28.586">  2  5  1 -1</clus>
</clustering>
</event>
<event>
 9    1  0.1464797E-005  0.1847549E+03  0.7546771E-02  0.1163405E+00
          1   -1    0    0  502    0 -0.00000000000E+00  0.00000000000E+00  0.33619912071E+03  0.33619912071E+03  0.00000000000E+00 0. -1.
         21   -1    0    0  501  502  0.00000000000E+00 -0.00000000000E+00 -0.34537419778E+03  0.34537419778E+03  0.00000000000E+00 0. -1.
         23    2    1    2    0    0  0.13163391135E+03 -0.10965856703E+03  0.25087105021E+03  0.31753685471E+03  0.92416894163E+02 0.  0.
         23    2    1    2    0    0 -0.26994289837E+02  0.96603280678E+02 -0.20296587574E+03  0.24412797364E+03  0.91336932700E+02 0.  0.
        -11    1    3    3    0    0  0.67281703964E+02 -0.90000368640E+02  0.92782362258E+02  0.14572391976E+03  0.00000000000E+00 0. -1.
         11    1    3    3    0    0  0.64352207385E+02 -0.19658198394E+02  0.15808868795E+03  0.17181293495E+03  0.00000000000E+00 0.  1.
        -13    1    4    4    0    0 -0.43442161429E+02  0.55852879778E+02 -0.18233148726E+03  0.19558000106E+03  0.00000000000E+00 0. -1.
         13    1    4    4    0    0  0.16447871592E+02  0.40750400900E+02 -0.20634388488E+02  0.48547972581E+02  0.00000000000E+00 0.  1.
          1    1    1    2  501    0 -0.10463962151E+03  0.13055286356E+02 -0.57080251536E+02  0.11990849014E+03  0.00000000000E+00 0. -1.
<scales pt_clust_5="13000.00000" pt_clust_6="13000.00000" pt_clust_7="13000.00000" pt_clust_8="13000.00000" pt_clust_9="105.45089"></scales>
<clustering>
<clus scale="   91.337">  7  8 -1 -1</clus>
<clus scale="   92.417">  5  6 -1 -1</clus>
<clus scale="  105.451">  2  9  1 -1</clus>
<clus scale="  184.217">  2  7  1 -1</clus>
<clus scale="  105.451">  2  5  1 -1</clus>
</clustering>
</event>
<event>
 9    1  0.1464797E-005  0.1233622E+03  0.7546771E-02  0.1239557E+00
         21   -1    0    0  501  502  0.00000000000E+00  0.00000000000E+00  0.10311643724E+03  0.10311643724E+03  0.00000000000E+00 0.  1.
          1   -1    0    0  502    0 -0.00000000000E+00 -0.00000000000E+00 -0.33175739508E+03  0.33175739508E+03  0.00000000000E+00 0. -1.
         23    2    1    2    0    0 -0.36927385937E+02 -0.52759519311E+02 -0.18040058367E+03  0.21543905834E+03  0.98602325322E+02 0.  0.
         23    2    1    2    0    0  0.97546187048E+01  0.11085386152E+03 -0.55087791749E+02  0.15493516931E+03  0.92663426931E+02 0.  0.
        -11    1    3    3    0    0 -0.58353721518E+02 -0.99513471683E+01 -0.53426460731E+02  0.79740659841E+02  0.00000000000E+00 0. -1.
         11    1    3    3    0    0  0.21426335581E+02 -0.42808172143E+02 -0.12697412294E+03  0.13569839850E+03  0.00000000000E+00 0.  1.
        -13    1    4    4    0    0  0.23139995423E+02  0.99829865000E+00 -0.35739751165E+02  0.42588564213E+02  0.00000000000E+00 0. -1.
         13    1    4    4    0    0 -0.13385376718E+02  0.10985556287E+03 -0.19348040583E+02  0.11234660510E+03  0.00000000000E+00 0.  1.
          1    1    1    2  501    0  0.27172767233E+02 -0.58094342207E+02  0.68474175752E+01  0.64499604673E+02  0.00000000000E+00 0. -1.
<scales pt_clust_5="13000.00000" pt_clust_6="13000.00000" pt_clust_7="13000.00000" pt_clust_8="13000.00000" pt_clust_9="64.13511"></scales>
<clustering>
<clus scale="   64.135">  1  9  2 -1</clus>
<clus scale="   92.663">  7  8 -1 -1</clus>
<clus scale="   98.602">  5  6 -1 -1</clus>
<clus scale="  118.669">  1  7  2 -1</clus>
<clus scale="   64.135">  1  5  2 -1</clus>
</clustering>
</event>
<event>
 9    1  0.1464797E-005  0.1239190E+03  0.7546771E-02  0.1243012E+00
         21   -1    0    0  501  502  0.00000000000E+00  0.00000000000E+00  0.29540239105E+03  0.29540239105E+03  0.00000000000E+00 0.  1.
         -1   -1    0    0    0  501 -0.00000000000E+00 -0.00000000000E+00 -0.31309298307E+03  0.31309298307E+03  0.00000000000E+00 0.  1.
         23    2    1    2    0    0  0.71960328745E+02 -0.72055764935E+02 -0.23230301195E+03  0.26267108835E+03  0.68272169450E+02 0.  0.
         23    2    1    2    0    0 -0.44124096453E+02  0.10272068006E+02 -0.19033966356E+02  0.10254930789E+03  0.90008985131E+02 0.  0.
        -11    1    3    3    0    0  0.41255886503E+02 -0.13232911615E+02 -0.15427933505E+03  0.16024753147E+03  0.00000000000E+00 0.  1.
         11    1    3    3    0    0  0.30704442241E+02 -0.58822853320E+02 -0.78023676906E+02  0.10242355688E+03  0.00000000000E+00 0. -1.
        -13    1    4    4    0    0 -0.14476296648E+02 -0.39917860572E+02 -0.88391399437E+01  0.43371985800E+02  0.00000000000E+00 0.  1.
         13    1    4    4    0    0 -0.29647799805E+02  0.50189928578E+02 -0.10194826412E+02  0.59177322088E+02  0.00000000000E+00 0. -1.
         -1    1    1    2    0  502 -0.27836232291E+02  0.61783696930E+02  0.23364638629E+03  0.24327497787E+03  0.00000000000E+00 0.  1.
<scales pt_clust_5="13000.00000" pt_clust_6="13000.00000" pt_clust_7="13000.00000" pt_clust_8="13000.00000" pt_clust_9="67.76490"></scales>
<clustering>
<clus scale="   67.765">  1  9  2 -1</clus>
<clus scale="   68.272">  5  6 -1 -1</clus>
<clus scale="   90.009">  7  8 -1 -1</clus>
<clus scale="  109.158">  2  5  1 -1</clus>
<clus scale="   67.765">  1  5  2 -1</clus>
</clustering>
</event>
<event>
 9    1  0.1464797E-005  0.9778714E+02  0.7546771E-02  0.1298373E+00
          2   -1    0    0  502    0 -0.00000000000E+00  0.00000000000E+00  0.56322867328E+02  0.56322867328E+02  0.00000000000E+00 0. -1.
         21   -1    0    0  501  502  0.00000000000E+00 -0.00000000000E+00 -0.29338363212E+03  0.29338363212E+03  0.00000000000E+00 0.  1.
         23    2    1    2    0    0  0.19931103935E+02 -0.52910631724E+01 -0.63932356561E+01  0.76809430444E+02  0.73712759340E+02 0.  0.
         23    2    1    2    0    0 -0.16046732348E+02 -0.32385346583E+02 -0.13119254463E+03  0.16645519408E+03  0.95862086237E+02 0.  0.
        -13    1    4    4    0    0  0.23307903376E+02  0.22509967995E+02 -0.26474712672E+02  0.41843367814E+02  0.00000000000E+00 0. -1.
         13    1    4    4    0    0 -0.39354635724E+02 -0.54895314578E+02 -0.10471783196E+03  0.12461182627E+03  0.00000000000E+00 0.  1.
        -13    1    3    3    0    0  0.35603775375E+02 -0.24163146799E+02 -0.21395114974E+02  0.48054525583E+02  0.00000000000E+00 0. -1.
         13    1    3    3    0    0 -0.15672671441E+02  0.18872083627E+02  0.15001879318E+02  0.28754904862E+02  0.00000000000E+00 0.  1.
          2    1    1    2  501    0 -0.38843715864E+01  0.37676409755E+02 -0.99474984512E+02  0.10644187493E+03  0.00000000000E+00 0. -1.
<scales pt_clust_5="13000.00000" pt_clust_6="13000.00000" pt_clust_7="13000.00000" pt_clust_8="13000.00000" pt_clust_9="37.87612"></scales>
<clustering>
<clus scale="   37.876">  2  9  1 -1</clus>
<clus scale="   73.713">  7  8 -1 -1</clus>
<clus scale="   76.199">  1  7  2 -1</clus>
<clus scale="   95.862">  5  6 -1 -1</clus>
<clus scale="   37.876">  2  5  1 -1</clus>
</clustering>
</event>
<event>
 9    1  0.1464797E-005  0.2646540E+03  0.7546771E-02  0.1104474E+00
         21   -1    0    0  501  502  0.00000000000E+00  0.00000000000E+00  0.12273349819E+03  0.12273349819E+03  0.00000000000E+00 0. -1.
          1   -1    0    0  502    0 -0.00000000000E+00 -0.00000000000E+00 -0.14265949787E+04  0.14265949787E+04  0.00000000000E+00 0. -1.
         23    2    1    2    0    0  0.18896293271E+03  0.18233318634E+03 -0.11941289409E+04  0.12261206870E+04  0.92063189311E+02 0.  0.
         23    2    1    2    0    0 -0.15446308374E+03 -0.11117558765E+03 -0.11945881012E+03  0.24353192298E+03  0.93907053318E+02 0.  0.
        -11    1    3    3    0    0  0.29545099866E+02  0.25068504211E+02 -0.70997848257E+02  0.80882861513E+02  0.00000000000E+00 0.  1.
         11    1    3    3    0    0  0.15941783284E+03  0.15726468213E+03 -0.11231310926E+04  0.11452378255E+04  0.00000000000E+00 0. -1.
        -13    1    4    4    0    0 -0.13118380858E+03 -0.68752963036E+02 -0.12631595180E+03  0.19465837058E+03  0.00000000000E+00 0. -1.
         13    1    4    4    0    0 -0.23279275164E+02 -0.42422624618E+02  0.68571416733E+01  0.48873552393E+02  0.00000000000E+00 0.  1.
          1    1    1    2  501    0 -0.34499848962E+02 -0.71157598687E+02  0.97262705178E+01  0.79675866908E+02  0.00000000000E+00 0. -1.
<scales pt_clust_5="13000.00000" pt_clust_6="13000.00000" pt_clust_7="13000.00000" pt_clust_8="13000.00000" pt_clust_9="79.07998"></scales>
<clustering>
<clus scale="   79.080">  1  9  2 -1</clus>
<clus scale="   92.063">  5  6 -1 -1</clus>
<clus scale="   93.907">  7  8 -1 -1</clus>
<clus scale="  264.005">  2  5  1 -1</clus>
<clus scale="   79.080">  1  5  2 -1</clus>
</clustering>
</event>
<event>
 9    1  0.1464797E-005  0.3962890E+03  0.7546771E-02  0.1045388E+00
         21   -1    0    0  501  502  0.00000000000E+00  0.00000000000E+00  0.17740569833E+03  0.17740569833E+03  0.00000000000E+00 0.  1.
          2   -1    0    0  502    0 -0.00000000000E+00 -0.00000000000E+00 -0.16921667804E+04  0.16921667804E+04  0.00000000000E+00 0. -1.
         23    2    1    2    0    0  0.38549292809E+03  0.45624461306E+02 -0.13715944604E+04  0.14284194213E+04  0.91783931600E+02 0.  0.
         23    2    1    2    0    0 -0.35107555389E+03 -0.50330090610E+02 -0.15911132776E+03  0.40293091402E+03  0.10606481175E+03 0.  0.
        -11    1    4    4    0    0 -0.13131310819E+03 -0.54254358076E+02 -0.21732218132E+02  0.14373224084E+03  0.00000000000E+00 0.  1.
         11    1    4    4    0    0 -0.21976244570E+03  0.39242674658E+01 -0.13737910963E+03  0.25919867318E+03  0.00000000000E+00 0. -1.
        -11    1    3    3    0    0  0.68529893239E+02  0.44566683123E+02 -0.26447439829E+03  0.27681987440E+03  0.00000000000E+00 0. -1.
         11    1    3    3    0    0  0.31696303485E+03  0.10577781829E+01 -0.11071200621E+04  0.11515995469E+04  0.00000000000E+00 0.  1.
          2    1    1    2  501    0 -0.34417374206E+02  0.47056293036E+01  0.15944706141E+02  0.38222143429E+02  0.00000000000E+00 0. -1.
<scales pt_clust_5="13000.00000" pt_clust_6="13000.00000" pt_clust_7="13000.00000" pt_clust_8="13000.00000" pt_clust_9="34.73757"></scales>
<clustering>
<clus scale="   34.738">  1  9  2 -1</clus>
<clus scale="   91.784">  7  8 -1 -1</clus>
<clus scale="  106.065">  5  6 -1 -1</clus>
<clus scale="  392.708">  2  7  1 -1</clus>
<clus scale="   34.738">  1  5  2 -1</clus>
</clustering>
</event>
<event>
 9    1  0.1464797E-005  0.1069434E+03  0.7546771E-02  0.1269120E+00
         -1   -1    0    0    0  501 -0.00000000000E+00  0.00000000000E+00  0.13775743849E+03  0.13775743849E+03  0.00000000000E+00 0.  1.
         21   -1    0    0  501  502  0.00000000000E+00 -0.00000000000E+00 -0.30650723488E+03  0.30650723488E+03  0.00000000000E+00 0.  1.
         23    2    1    2    0    0  0.49321411777E+02 -0.28890898454E+02  0.68150541503E+02  0.12736227946E+03  0.91155736244E+02 0.  0.
         23    2    1    2    0    0 -0.16958411750E+02  0.26435778264E+01 -0.26422430343E+02  0.10233950061E+03  0.97368641391E+02 0.  0.
        -11    1    4    4    0    0 -0.60301045747E+01  0.49830562607E+02 -0.17006194061E+02  0.52996771292E+02  0.00000000000E+00 0. -1.
         11    1    4    4    0    0 -0.10928307175E+02 -0.47186984781E+02 -0.94162362820E+01  0.49342729314E+02  0.00000000000E+00 0.  1.
        -11    1    3    3    0    0  0.66224288875E+01  0.22261707844E+02 -0.94547518401E+01  0.25076533509E+02  0.00000000000E+00 0. -1.
         11    1    3    3    0    0  0.42698982889E+02 -0.51152606297E+02  0.77605293343E+02  0.10228574596E+03  0.00000000000E+00 0.  1.
         -1    1    1    2    0  502 -0.32363000027E+02  0.26247320627E+02 -0.21047790755E+03  0.21456289329E+03  0.00000000000E+00 0.  1.
<scales pt_clust_5="13000.00000" pt_clust_6="13000.00000" pt_clust_7="13000.00000" pt_clust_8="13000.00000" pt_clust_9="41.66876"></scales>
<clustering>
<clus scale="   41.669">  2  9  1 -1</clus>
<clus scale="   91.156">  7  8 -1 -1</clus>
<clus scale="   97.369">  5  6 -1 -1</clus>
<clus scale="  101.319">  1  7  2 -1</clus>
<clus scale="   41.669">  2  5  1 -1</clus>
</clustering>
</event>
<event>
 9    1  0.1464797E-005  0.1867060E+03  0.7546771E-02  0.1182007E+00
          1   -1    0    0  502    0 -0.00000000000E+00  0.00000000000E+00  0.56657028456E+03  0.56657028456E+03  0.00000000000E+00 0. -1.
         21   -1    0    0  501  502  0.00000000000E+00 -0.00000000000E+00 -0.10325779926E+03  0.10325779926E+03  0.00000000000E+00 0. -1.
         23    2    1    2    0    0  0.33318405052E+02 -0.63258209454E+02  0.65850770212E+02  0.13414794914E+03  0.92453399844E+02 0.  0.
         23    2    1    2    0    0 -0.12589842262E+03  0.15387664241E+03  0.17968379647E+03  0.28228324858E+03  0.88708127153E+02 0.  0.
        -11    1    4    4    0    0 -0.29913029118E+00  0.49386837842E+02  0.69341902785E+02  0.85131948837E+02  0.00000000000E+00 0.  1.
         11    1    4    4    0    0 -0.12559929233E+03  0.10448980456E+03  0.11034189368E+03  0.19715129975E+03  0.00000000000E+00 0. -1.
        -13    1    3    3    0    0  0.17147318756E+02 -0.36971939783E+02  0.87448650122E+02  0.96479123545E+02  0.00000000000E+00 0.  1.
         13    1    3    3    0    0  0.16171086296E+02 -0.26286269671E+02 -0.21597879910E+02  0.37668825596E+02  0.00000000000E+00 0. -1.
          1    1    1    2  501    0  0.92580017568E+02 -0.90618432951E+02  0.21777791862E+03  0.25339688609E+03  0.00000000000E+00 0. -1.
<scales pt_clust_5="13000.00000" pt_clust_6="13000.00000" pt_clust_7="13000.00000" pt_clust_8="13000.00000" pt_clust_9="164.28646"></scales>
<clustering>
<clus scale="   88.708">  5  6 -1 -1</clus>
<clus scale="   92.453">  7  8 -1 -1</clus>
<clus scale="  116.873">  1  7  2 -1</clus>
<clus scale="  164.286">  2  9  1 -1</clus>
<clus scale="  164.286">  2  5  1 -1</clus>
</clustering>
</event>
<event>
 9    1  0.1464797E-005  0.1464811E+03  0.7546771E-02  0.1206932E+00
         21   -1    0    0  501  502  0.00000000000E+00  0.00000000000E+00  0.37762656670E+03  0.37762656670E+03  0.00000000000E+00 0. -1.
          1   -1    0    0  502    0 -0.00000000000E+00 -0.00000000000E+00 -0.20802738319E+03  0.20802738319E+03  0.00000000000E+00 0. -1.
         23    2    1    2    0    0 -0.44353688515E+02  0.14418698244E+03 -0.92712159717E+02  0.20365399629E+03  0.10060949287E+03 0.  0.
         23    2    1    2    0    0  0.45146805925E+02 -0.44192413850E+02  0.10848004437E+02  0.11138333633E+03  0.91089872574E+02 0.  0.
        -11    1    4    4    0    0 -0.16512744930E+02  0.12218208637E+02  0.18260503650E+02  0.27484565869E+02  0.00000000000E+00 0.  1.
         11    1    4    4    0    0  0.61659550855E+02 -0.56410622486E+02 -0.74124992130E+01  0.83898770465E+02  0.00000000000E+00 0. -1.
        -13    1    3    3    0    0  0.31557313023E+02  0.40843446031E+02 -0.15144649244E+02  0.53790440504E+02  0.00000000000E+00 0.  1.
         13    1    3    3    0    0 -0.75911001538E+02  0.10334353640E+03 -0.77567510473E+02  0.14986355578E+03  0.00000000000E+00 0. -1.
          1    1    1    2  501    0 -0.79311741027E+00 -0.99994568586E+02  0.25146333879E+03  0.27061661726E+03  0.00000000000E+00 0. -1.
<scales pt_clust_5="13000.00000" pt_clust_6="13000.00000" pt_clust_7="13000.00000" pt_clust_8="13000.00000" pt_clust_9="99.99771"></scales>
<clustering>
<clus scale="   91.090">  5  6 -1 -1</clus>
<clus scale="   99.998">  1  9  2 -1</clus>
<clus scale="  100.609">  7  8 -1 -1</clus>
<clus scale="  140.114">  1  5  2 -1</clus>
<clus scale="   99.998">  1  5  2 -1</clus>
</clustering>
</event>
<event>
 9    1  0.1464797E-005  0.1005672E+03  0.7546771E-02  0.1281047E+00
         -1   -1    0    0    0  501 -0.00000000000E+00  0.00000000000E+00  0.40543940671E+03  0.40543940671E+03  0.00000000000E+00 0.  1.
         21   -1    0    0  501  502  0.00000000000E+00 -0.00000000000E+00 -0.37859874467E+02  0.37859874467E+02  0.00000000000E+00 0. -1.
         23    2    1    2    0    0 -0.35915720793E+02  0.88436718222E+00  0.22505116753E+03  0.24582488353E+03  0.92147296502E+02 0.  0.
         23    2    1    2    0    0  0.50562089528E+02  0.14708547489E+02  0.76451947169E+02  0.12802118994E+03  0.88157010954E+02 0.  0.
        -11    1    4    4    0    0  0.15867970798E+02 -0.18018041598E+02  0.76654785565E+02  0.80326822857E+02  0.00000000000E+00 0.  1.
         11    1    4    4    0    0  0.34694118730E+02  0.32726589088E+02 -0.20283839595E+00  0.47694367080E+02  0.00000000000E+00 0. -1.
        -13    1    3    3    0    0 -0.33415763641E+02 -0.33612215854E+02  0.56432254081E+02  0.73695275391E+02  0.00000000000E+00 0.  1.
         13    1    3    3    0    0 -0.24999571519E+01  0.34496583036E+02  0.16861891344E+03  0.17212960814E+03  0.00000000000E+00 0. -1.
         -1    1    1    2    0  502 -0.14646368735E+02 -0.15592914672E+02  0.66076417545E+02  0.69453207706E+02  0.00000000000E+00 0.  1.
<scales pt_clust_5="13000.00000" pt_clust_6="13000.00000" pt_clust_7="13000.00000" pt_clust_8="13000.00000" pt_clust_9="21.39289"></scales>
<clustering>
<clus scale="   21.393">  2  9  1 -1</clus>
<clus scale="   88.157">  5  6 -1 -1</clus>
<clus scale="   92.147">  7  8 -1 -1</clus>
<clus scale="   96.924">  2  5  1 -1</clus>
<clus scale="   21.393">  2  5  1 -1</clus>
</clustering>
</event>
<event>
 9    1  0.1464797E-005  0.1467569E+03  0.7546771E-02  0.1205476E+00
          2   -1    0    0  502    0 -0.00000000000E+00  0.00000000000E+00  0.78478963584E+03  0.78478963584E+03  0.00000000000E+00 0. -1.
         21   -1    0    0  501  502  0.00000000000E+00 -0.00000000000E+00 -0.49817012080E+02  0.49817012080E+02  0.00000000000E+00 0. -1.
         23    2    1    2    0    0  0.88554421224E+02  0.78901223858E+02  0.43686695989E+03  0.46168491766E+03  0.90735516239E+02 0.  0.
         23    2    1    2    0    0 -0.30738486829E+02 -0.11906108722E+03  0.23276568710E+03  0.27687585861E+03  0.85790319558E+02 0.  0.
        -11    1    3    3    0    0  0.66738508820E+02  0.24101798974E+01  0.24608677742E+03  0.25498733213E+03  0.00000000000E+00 0.  1.
         11    1    3    3    0    0  0.21815912404E+02  0.76491043961E+02  0.19078018247E+03  0.20669758553E+03  0.00000000000E+00 0. -1.
        -13    1    4    4    0    0 -0.99235493533E+01 -0.10036385631E+03  0.10309880631E+03  0.14422463156E+03  0.00000000000E+00 0. -1.
         13    1    4    4    0    0 -0.20814937475E+02 -0.18697230910E+02  0.12966688079E+03  0.13265122706E+03  0.00000000000E+00 0.  1.
          2    1    1    2  501    0 -0.57815934395E+02  0.40159863366E+02  0.65339976774E+02  0.96045871647E+02  0.00000000000E+00 0. -1.
<scales pt_clust_5="13000.00000" pt_clust_6="13000.00000" pt_clust_7="13000.00000" pt_clust_8="13000.00000" pt_clust_9="70.39529"></scales>
<clustering>
<clus scale="   70.395">  2  9  1 -1</clus>
<clus scale="   85.790">  7  8 -1 -1</clus>
<clus scale="   90.736">  5  6 -1 -1</clus>
<clus scale="  143.752">  2  7  1 -1</clus>
<clus scale="   70.395">  2  5  1 -1</clus>
</clustering>
</event>
<event>
 9    1  0.1464797E-005  0.9233592E+02  0.7546771E-02  0.1298309E+00
         -2   -1    0    0    0  501 -0.00000000000E+00  0.00000000000E+00  0.36770609448E+03  0.36770609448E+03  0.00000000000E+00 0.  1.
         21   -1    0    0  501  502  0.00000000000E+00 -0.00000000000E+00 -0.29774874951E+02  0.29774874951E+02  0.00000000000E+00 0. -1.
         23    2    1    2    0    0  0.22757934177E+02 -0.91862322931E+01  0.17648477823E+03  0.19933180252E+03  0.89353120346E+02 0.  0.
         23    2    1    2    0    0 -0.52811187961E+01 -0.53410165505E+01  0.13772343113E+03  0.16529705517E+03  0.91098607513E+02 0.  0.
        -11    1    4    4    0    0 -0.14115395265E+02 -0.23987847752E+02  0.14159392047E+03  0.14430349800E+03  0.00000000000E+00 0.  1.
         11    1    4    4    0    0  0.88342764693E+01  0.18646831202E+02 -0.38704893357E+01  0.20993557162E+02  0.00000000000E+00 0. -1.
        -13    1    3    3    0    0  0.54254226446E+02 -0.83609237268E+01  0.14385603924E+03  0.15397397883E+03  0.00000000000E+00 0.  1.
         13    1    3    3    0    0 -0.31496292269E+02 -0.82530856627E+00  0.32628738991E+02  0.45357823681E+02  0.00000000000E+00 0. -1.
         -2    1    1    2    0  502 -0.17476815381E+02  0.14527248844E+02  0.23723010168E+02  0.32852111748E+02  0.00000000000E+00 0.  1.
<scales pt_clust_5="13000.00000" pt_clust_6="13000.00000" pt_clust_7="13000.00000" pt_clust_8="13000.00000" pt_clust_9="22.72620"></scales>
<clustering>
<clus scale="   22.726">  2  9  1 -1</clus>
<clus scale="   89.353">  7  8 -1 -1</clus>
<clus scale="   90.614">  1  7  2 -1</clus>
<clus scale="   91.099">  5  6 -1 -1</clus>
<clus scale="   22.726">  2  5  1 -1</clus>
</clustering>
</event>
<event>
 9    1  0.1464797E-005  0.2145578E+03  0.7546771E-02  0.1172546E+00
         21   -1    0    0  501  502  0.00000000000E+00  0.00000000000E+00  0.11894620159E+03  0.11894620159E+03  0.00000000000E+00 0.  1.
         -1   -1    0    0    0  501 -0.00000000000E+00 -0.00000000000E+00 -0.83356457378E+03  0.83356457378E+03  0.00000000000E+00 0.  1.
         23    2    1    2    0    0  0.14800600707E+02  0.26374429125E+02 -0.52309988497E+02  0.10876386696E+03  0.90435477361E+02 0.  0.
         23    2    1    2    0    0  0.17745125568E+03  0.21702535841E+02 -0.60522226203E+03  0.63751646418E+03  0.90406346238E+02 0.  0.
        -11    1    3    3    0    0 -0.30771228506E+02  0.18622487696E+02 -0.51141136356E+02  0.62522646934E+02  0.00000000000E+00 0. -1.
         11    1    3    3    0    0  0.45571829213E+02  0.77519414290E+01 -0.11688521411E+01  0.46241220021E+02  0.00000000000E+00 0.  1.
        -13    1    4    4    0    0  0.25055827047E+02 -0.30229065565E+02 -0.11214266124E+03  0.11881736970E+03  0.00000000000E+00 0. -1.
         13    1    4    4    0    0  0.15239542863E+03  0.51931601406E+02 -0.49307960079E+03  0.51869909448E+03  0.00000000000E+00 0.  1.
         -1    1    1    2    0  502 -0.19225185639E+03 -0.48076964966E+02 -0.57086121659E+02  0.20623044424E+03  0.00000000000E+00 0.  1.
<scales pt_clust_5="13000.00000" pt_clust_6="13000.00000" pt_clust_7="13000.00000" pt_clust_8="13000.00000" pt_clust_9="194.58097"></scales>
<clustering>
<clus scale="   90.406">  7  8 -1 -1</clus>
<clus scale="   90.435">  5  6 -1 -1</clus>
<clus scale="   95.359">  2  5  1 -1</clus>
<clus scale="  194.581">  1  9  2 -1</clus>
<clus scale="  194.581">  1  5  2 -1</clus>
</clustering>
</event>
<event>
 9    1  0.1464797E-005  0.2519073E+03  0.7546771E-02  0.1135890E+00
          2   -1    0    0  502    0 -0.00000000000E+00  0.00000000000E+00  0.55678699139E+03  0.55678699139E+03  0.00000000000E+00 0. -1.
         21   -1    0    0  501  502  0.00000000000E+00 -0.00000000000E+00 -0.50938642194E+03  0.50938642194E+03  0.00000000000E+00 0. -1.
         23    2    1    2    0    0  0.20899156453E+02  0.10329986132E+03  0.98258861845E+02  0.17067837036E+03  0.91480413684E+02 0.  0.
         23    2    1    2    0    0  0.18996733547E+03 -0.20078968473E+03  0.33564593217E+03  0.44454664383E+03  0.92517245557E+02 0.  0.
        -11    1    4    4    0    0  0.40284300242E+02  0.14104484100E+00  0.57259763530E+02  0.70010893861E+02  0.00000000000E+00 0.  1.
         11    1    4    4    0    0  0.14968303523E+03 -0.20093072957E+03  0.27838616864E+03  0.37453574997E+03  0.00000000000E+00 0. -1.
        -11    1    3    3    0    0  0.43797970484E+02  0.76852061093E+02  0.10255427694E+03  0.13543220161E+03  0.00000000000E+00 0. -1.
         11    1    3    3    0    0 -0.22898814031E+02  0.26447800227E+02 -0.42954150960E+01  0.35246168753E+02  0.00000000000E+00 0.  1.
          2    1    1    2  501    0 -0.21086649193E+03  0.97489823407E+02 -0.38650422455E+03  0.45094839914E+03  0.00000000000E+00 0. -1.
<scales pt_clust_5="13000.00000" pt_clust_6="13000.00000" pt_clust_7="13000.00000" pt_clust_8="13000.00000" pt_clust_9="234.30295"></scales>
<clustering>
<clus scale="   91.480">  7  8 -1 -1</clus>
<clus scale="   92.517">  5  6 -1 -1</clus>
<clus scale="  139.558">  1  7  2 -1</clus>
<clus scale="  234.303">  2  9  1 -1</clus>
<clus scale="  234.303">  2  5  1 -1</clus>
</clustering>
</event>
<event>
 9    1  0.1464797E-005  0.1026842E+03  0.7546771E-02  0.1274812E+00
         -1   -1    0    0    0  501 -0.00000000000E+00  0.00000000000E+00  0.90273233346E+02  0.90273233346E+02  0.00000000000E+00 0.  1.
         21   -1    0    0  501  502  0.00000000000E+00 -0.00000000000E+00 -0.26163486219E+03  0.26163486219E+03  0.00000000000E+00 0. -1.
         23    2    1    2    0    0  0.27079174742E+02  0.13404956441E+02 -0.36009332215E+01  0.96617381265E+02  0.91700474811E+02 0.  0.
         23    2    1    2    0    0 -0.51560469049E+02 -0.66875886430E+02 -0.75328679810E+02  0.14573638222E+03  0.91835815157E+02 0.  0.
        -11    1    4    4    0    0 -0.26298568598E+02 -0.85941500912E+02 -0.40208117006E+02  0.98459377219E+02  0.00000000000E+00 0. -1.
         11    1    4    4    0    0 -0.25261900451E+02  0.19065614481E+02 -0.35120562804E+02  0.47277004999E+02  0.00000000000E+00 0.  1.
        -13    1    3    3    0    0  0.19524424252E+02 -0.38406626463E+02 -0.88878776058E+01  0.43991663607E+02  0.00000000000E+00 0. -1.
         13    1    3    3    0    0  0.75547504905E+01  0.51811582904E+02  0.52869443843E+01  0.52625717657E+02  0.00000000000E+00 0.  1.
         -1    1    1    2    0  502  0.24481294307E+02  0.53470929989E+02 -0.92432015816E+02  0.10955433206E+03  0.00000000000E+00 0.  1.
<scales pt_clust_5="13000.00000" pt_clust_6="13000.00000" pt_clust_7="13000.00000" pt_clust_8="13000.00000" pt_clust_9="58.80879"></scales>
<clustering>
<clus scale="   58.809">  2  9  1 -1</clus>
<clus scale="   91.700">  7  8 -1 -1</clus>
<clus scale="   91.836">  5  6 -1 -1</clus>
<clus scale="  102.563">  1  7  2 -1</clus>
<clus scale="   58.809">  2  5  1 -1</clus>
</clustering>
</event>
<event>
 9    1  0.1464797E-005  0.9483547E+02  0.7546771E-02  0.1294118E+00
          2   -1    0    0  502    0 -0.00000000000E+00  0.00000000000E+00  0.55965737572E+03  0.55965737572E+03  0.00000000000E+00 0. -1.
         21   -1    0    0  501  502  0.00000000000E+00 -0.00000000000E+00 -0.24765788855E+02  0.24765788855E+02  0.00000000000E+00 0.  1.
         23    2    1    2    0    0  0.47409958235E+01  0.26254792715E+01  0.28814109471E+03  0.30199173771E+03  0.90246047008E+02 0.  0.
         23    2    1    2    0    0  0.65197822539E+01  0.15632481513E+02  0.24205954251E+03  0.26047321056E+03  0.94692076012E+02 0.  0.
        -11    1    4    4    0    0  0.42968463603E+02  0.17801148833E+02  0.66460944380E+02  0.81118597695E+02  0.00000000000E+00 0.  1.
         11    1    4    4    0    0 -0.36448681349E+02 -0.21686673205E+01  0.17559859813E+03  0.17935461286E+03  0.00000000000E+00 0. -1.
        -11    1    3    3    0    0  0.37545633468E+02 -0.17099776503E+02  0.76487722497E+02  0.86904825192E+02  0.00000000000E+00 0.  1.
         11    1    3    3    0    0 -0.32804637645E+02  0.19725255774E+02  0.21165337221E+03  0.21508691252E+03  0.00000000000E+00 0. -1.
          2    1    1    2  501    0 -0.11260778077E+02 -0.18257960784E+02  0.46909496455E+01  0.21958216309E+02  0.00000000000E+00 0. -1.
<scales pt_clust_5="13000.00000" pt_clust_6="13000.00000" pt_clust_7="13000.00000" pt_clust_8="13000.00000" pt_clust_9="21.45130"></scales>
<clustering>
<clus scale="   21.451">  2  9  1 -1</clus>
<clus scale="   90.246">  7  8 -1 -1</clus>
<clus scale="   90.396">  1  7  2 -1</clus>
<clus scale="   94.692">  5  6 -1 -1</clus>
<clus scale="   21.451">  2  5  1 -1</clus>
</clustering>
</event>
<event>
 9    1  0.1464797E-005  0.9233841E+02  0.7546771E-02  0.1300589E+00
         21   -1    0    0  501  502  0.00000000000E+00  0.00000000000E+00  0.12689631385E+03  0.12689631385E+03  0.00000000000E+00 0.  1.
          1   -1    0    0  502    0 -0.00000000000E+00 -0.00000000000E+00 -0.88359008282E+02  0.88359008282E+02  0.00000000000E+00 0. -1.
         23    2    1    2    0    0  0.36633136489E+01 -0.19557649695E+02  0.18836229275E+02  0.89135856872E+02  0.84820256534E+02 0.  0.
         23    2    1    2    0    0 -0.26135954293E+02  0.41601323269E+01  0.26851640311E+02  0.97955060692E+02  0.90409006853E+02 0.  0.
        -13    1    4    4    0    0  0.13300573238E+02  0.19982876964E+02 -0.22451267934E+02  0.32867614030E+02  0.00000000000E+00 0. -1.
         13    1    4    4    0    0 -0.39436527531E+02 -0.15822744637E+02  0.49302908245E+02  0.65087446662E+02  0.00000000000E+00 0.  1.
        -13    1    3    3    0    0 -0.16229465661E+02 -0.32587761627E+02  0.42244794004E+02  0.55767198100E+02  0.00000000000E+00 0.  1.
         13    1    3    3    0    0  0.19892779310E+02  0.13030111931E+02 -0.23408564729E+02  0.33368658772E+02  0.00000000000E+00 0. -1.
          1    1    1    2  501    0  0.22472640644E+02  0.15397517368E+02 -0.71505640217E+01  0.28164404564E+02  0.00000000000E+00 0. -1.
<scales pt_clust_5="13000.00000" pt_clust_6="13000.00000" pt_clust_7="13000.00000" pt_clust_8="13000.00000" pt_clust_9="27.24158"></scales>
<clustering>
<clus scale="   27.242">  1  9  2 -1</clus>
<clus scale="   84.820">  7  8 -1 -1</clus>
<clus scale="   86.874">  2  7  1 -1</clus>
<clus scale="   90.409">  5  6 -1 -1</clus>
<clus scale="   27.242">  1  5  2 -1</clus>
</clustering>
</event>
<event>
 9    1  0.1464797E-005  0.1548087E+03  0.7546771E-02  0.1194886E+00
          1   -1    0    0  502    0 -0.00000000000E+00  0.00000000000E+00  0.25549685398E+03  0.25549685398E+03  0.00000000000E+00 0. -1.
         21   -1    0    0  501  502  0.00000000000E+00 -0.00000000000E+00 -0.18211549756E+03  0.18211549756E+03  0.00000000000E+00 0.  1.
         23    2    1    2    0    0  0.56993079499E+02  0.89090212186E+02  0.57974834532E+02  0.15302874229E+03  0.94188308773E+02 0.  0.
         23    2    1    2    0    0 -0.14542797426E+03 -0.83041072831E+02 -0.81912363157E+01  0.19285478668E+03  0.95293005615E+02 0.  0.
        -13    1    4    4    0    0 -0.65238866502E+02 -0.28273170178E+02 -0.50213349346E+02  0.87045173944E+02  0.00000000000E+00 0.  1.
         13    1    4    4    0    0 -0.80189107755E+02 -0.54767902653E+02  0.42022113031E+02  0.10580961273E+03  0.00000000000E+00 0. -1.
        -13    1    3    3    0    0 -0.11216467693E+02  0.66654648127E+02  0.41643480363E+02  0.79390369197E+02  0.00000000000E+00 0.  1.
         13    1    3    3    0    0  0.68209547192E+02  0.22435564059E+02  0.16331354169E+02  0.73638373093E+02  0.00000000000E+00 0. -1.
          1    1    1    2  501    0  0.88434894758E+02 -0.60491393553E+01  0.23597758201E+02  0.91728822570E+02  0.00000000000E+00 0. -1.
<scales pt_clust_5="13000.00000" pt_clust_6="13000.00000" pt_clust_7="13000.00000" pt_clust_8="13000.00000" pt_clust_9="88.64158"></scales>
<clustering>
<clus scale="   88.642">  2  9  1 -1</clus>
<clus scale="   94.188">  7  8 -1 -1</clus>
<clus scale="   95.293">  5  6 -1 -1</clus>
<clus scale="  154.131">  1  7  2 -1</clus>
<clus scale="   88.642">  2  5  1 -1</clus>
</clustering>
</event>
<event>
 9    1  0.1464797E-005  0.9741187E+02  0.7546771E-02  0.1286397E+00
         21   -1    0    0  501  502  0.00000000000E+00  0.00000000000E+00  0.58184079941E+02  0.58184079941E+02  0.00000000000E+00 0.  1.
         -1   -1    0    0    0  501 -0.00000000000E+00 -0.00000000000E+00 -0.31156602946E+03  0.31156602946E+03  0.00000000000E+00 0.  1.
         23    2    1    2    0    0  0.37312762070E+02  0.29044554760E+02 -0.19223558977E+03  0.21787056123E+03  0.90979289412E+02 0.  0.
         23    2    1    2    0    0 -0.11011943106E+02 -0.78510253663E+01 -0.72479974692E+02  0.11625161539E+03  0.89878750881E+02 0.  0.
        -11    1    4    4    0    0 -0.34467998099E+02 -0.32816460857E+02 -0.16026059340E+02  0.50217502667E+02  0.00000000000E+00 0. -1.
         11    1    4    4    0    0  0.23456054993E+02  0.24965435490E+02 -0.56453915352E+02  0.66034112727E+02  0.00000000000E+00 0.  1.
        -13    1    3    3    0    0  0.58511575200E+02  0.88982462991E+01 -0.17305810706E+03  0.18289858294E+03  0.00000000000E+00 0.  1.
         13    1    3    3    0    0 -0.21198813130E+02  0.20146308461E+02 -0.19177482701E+02  0.34971978289E+02  0.00000000000E+00 0. -1.
         -1    1    1    2    0  502 -0.26300818964E+02 -0.21193529394E+02  0.11333614942E+02  0.35627932778E+02  0.00000000000E+00 0.  1.
<scales pt_clust_5="13000.00000" pt_clust_6="13000.00000" pt_clust_7="13000.00000" pt_clust_8="13000.00000" pt_clust_9="33.77719"></scales>
<clustering>
<clus scale="   33.777">  1  9  2 -1</clus>
<clus scale="   89.879">  5  6 -1 -1</clus>
<clus scale="   90.979">  7  8 -1 -1</clus>
<clus scale="   96.385">  1  5  2 -1</clus>
<clus scale="   33.777">  1  5  2 -1</clus>
</clustering>
</event>
<event>
 9    1  0.1464797E-005  0.1420533E+03  0.7546771E-02  0.1210705E+00
         -3   -1    0    0    0  501 -0.00000000000E+00  0.00000000000E+00  0.69901029632E+03  0.69901029632E+03  0.00000000000E+00 0.  1.
         21   -1    0    0  501  502  0.00000000000E+00 -0.00000000000E+00 -0.49025615637E+02  0.49025615637E+02  0.00000000000E+00 0. -1.
         23    2    1    2    0    0 -0.30767562725E+01 -0.11526246376E+03  0.39222060181E+03  0.41890915023E+03  0.91394604262E+02 0.  0.
         23    2    1    2    0    0 -0.15266595879E+02  0.10054523717E+03  0.27009488659E+03  0.30257258793E+03  0.90865337364E+02 0.  0.
        -11    1    4    4    0    0 -0.51830605662E+02  0.39318967458E+02  0.13046380047E+03  0.14578475956E+03  0.00000000000E+00 0. -1.
         11    1    4    4    0    0  0.36564009783E+02  0.61226269708E+02  0.13963108612E+03  0.15678782837E+03  0.00000000000E+00 0.  1.
        -11    1    3    3    0    0 -0.75479764961E+01 -0.76756750186E+02  0.36096718722E+03  0.36911499685E+03  0.00000000000E+00 0.  1.
         11    1    3    3    0    0  0.44712202236E+01 -0.38505713574E+02  0.31253414582E+02  0.49794153384E+02  0.00000000000E+00 0. -1.
         -3    1    1    2    0  502  0.18343352152E+02  0.14717226595E+02 -0.12330807718E+02  0.26554173793E+02  0.00000000000E+00 0.  1.
<scales pt_clust_5="13000.00000" pt_clust_6="13000.00000" pt_clust_7="13000.00000" pt_clust_8="13000.00000" pt_clust_9="23.51755"></scales>
<clustering>
<clus scale="   23.518">  2  9  1 -1</clus>
<clus scale="   90.865">  5  6 -1 -1</clus>
<clus scale="   91.395">  7  8 -1 -1</clus>
<clus scale="  141.713">  2  5  1 -1</clus>
<clus scale="   23.518">  2  5  1 -1</clus>
</clustering>
</event>
<event>
 9    1  0.1464797E-005  0.9914660E+02  0.7546771E-02  0.1282208E+00
         21   -1    0    0  501  502  0.00000000000E+00  0.00000000000E+00  0.32161522802E+02  0.32161522802E+02  0.00000000000E+00 0.  1.
         -1   -1    0    0    0  501 -0.00000000000E+00 -0.00000000000E+00 -0.67467825408E+03  0.67467825408E+03  0.00000000000E+00 0.  1.
         23    2    1    2    0    0 -0.64596638707E+02 -0.28871997597E+02 -0.35044793639E+03  0.36904447895E+03  0.91508214649E+02 0.  0.
         23    2    1    2    0    0  0.19652846810E+01 -0.15537072716E+02 -0.16978379748E+03  0.19340529611E+03  0.91289691124E+02 0.  0.
        -11    1    3    3    0    0 -0.30749424648E+02 -0.52063462799E+02 -0.28831004039E+03  0.29458243441E+03  0.00000000000E+00 0.  1.
         11    1    3    3    0    0 -0.33847214060E+02  0.23191465202E+02 -0.62137895999E+02  0.74462044539E+02  0.00000000000E+00 0. -1.
        -11    1    4    4    0    0 -0.13258531216E+02 -0.41890100256E+02 -0.37807473090E+02  0.57965284188E+02  0.00000000000E+00 0.  1.
         11    1    4    4    0    0  0.15223815897E+02  0.26353027540E+02 -0.13197632439E+03  0.13544001192E+03  0.00000000000E+00 0. -1.
         -1    1    1    2    0  502  0.62631354026E+02  0.44409070313E+02 -0.12228499740E+03  0.14439000181E+03  0.00000000000E+00 0.  1.
<scales pt_clust_5="13000.00000" pt_clust_6="13000.00000" pt_clust_7="13000.00000" pt_clust_8="13000.00000" pt_clust_9="76.77794"></scales>
<clustering>
<clus scale="   76.778">  1  9  2 -1</clus>
<clus scale="   91.290">  7  8 -1 -1</clus>
<clus scale="   91.508">  5  6 -1 -1</clus>
<clus scale="   98.945">  1  7  2 -1</clus>
<clus scale="   76.778">  1  5  2 -1</clus>
</clustering>
</event>
<event>
 9    1  0.1464797E-005  0.2153307E+03  0.7546771E-02  0.1157102E+00
          2   -1    0    0  502    0 -0.00000000000E+00  0.00000000000E+00  0.10060802093E+04  0.10060802093E+04  0.00000000000E+00 0. -1.
         21   -1    0    0  501  502  0.00000000000E+00 -0.00000000000E+00 -0.23460047992E+03  0.23460047992E+03  0.00000000000E+00 0. -1.
         23    2    1    2    0    0 -0.17104832956E+02 -0.98190924604E+02 -0.54273913913E+01  0.13484787568E+03  0.90666752526E+02 0.  0.
         23    2    1    2    0    0  0.19756282842E+03  0.23739177974E+02  0.86437519681E+03  0.89191971195E+03  0.93710575504E+02 0.  0.
        -11    1    3    3    0    0 -0.53225722477E+02 -0.58159278350E+02  0.81133351510E+01  0.79254686919E+02  0.00000000000E+00 0.  1.
         11    1    3    3    0    0  0.36120889521E+02 -0.40031646255E+02 -0.13540726542E+02  0.55593188764E+02  0.00000000000E+00 0. -1.
        -11    1    4    4    0    0  0.24442748983E+02 -0.29001603984E+02  0.18537840642E+03  0.18921864226E+03  0.00000000000E+00 0.  1.
         11    1    4    4    0    0  0.17312007944E+03  0.52740781957E+02  0.67899679039E+03  0.70270106969E+03  0.00000000000E+00 0. -1.
          2    1    1    2  501    0 -0.18045799546E+03  0.74451746631E+02 -0.87468076037E+02  0.21391310158E+03  0.00000000000E+00 0. -1.
<scales pt_clust_5="13000.00000" pt_clust_6="13000.00000" pt_clust_7="13000.00000" pt_clust_8="13000.00000" pt_clust_9="193.87011"></scales>
<clustering>
<clus scale="   90.667">  5  6 -1 -1</clus>
<clus scale="   93.711">  7  8 -1 -1</clus>
<clus scale="  134.739">  1  5  2 -1</clus>
<clus scale="  193.870">  2  9  1 -1</clus>
<clus scale="  193.870">  2  5  1 -1</clus>
</clustering>
</event>
<event>
 9    1  0.1464797E-005  0.1420279E+03  0.7546771E-02  0.1215145E+00
         -2   -1    0    0    0  501 -0.00000000000E+00  0.00000000000E+00  0.11509372487E+03  0.11509372487E+03  0.00000000000E+00 0.  1.
         21   -1    0    0  501  502  0.00000000000E+00 -0.00000000000E+00 -0.36904129674E+03  0.36904129674E+03  0.00000000000E+00 0.  1.
         23    2    1    2    0    0  0.45113092944E+02  0.82351201933E+02 -0.32112997165E+02  0.13535853237E+03  0.92053115562E+02 0.  0.
         23    2    1    2    0    0 -0.91026956940E+02 -0.34679888852E+02 -0.23902567025E+03  0.28039395664E+03  0.10953948284E+03 0.  0.
        -11    1    3    3    0    0  0.32034245462E+02 -0.74030936063E+01  0.11347506561E+02  0.34781670207E+02  0.00000000000E+00 0. -1.
         11    1    3    3    0    0  0.13078847481E+02  0.89754295539E+02 -0.43460503725E+02  0.10057686217E+03  0.00000000000E+00 0.  1.
        -13    1    4    4    0    0 -0.10613652573E+03  0.27809067285E+01 -0.17520608022E+03  0.20486548290E+03  0.00000000000E+00 0.  1.
         13    1    4    4    0    0  0.15109568787E+02 -0.37460795580E+02 -0.63819590027E+02  0.75528473741E+02  0.00000000000E+00 0. -1.
         -2    1    1    2    0  502  0.45913863997E+02 -0.47671313081E+02  0.17191095547E+02  0.68382532595E+02  0.00000000000E+00 0.  1.
<scales pt_clust_5="13000.00000" pt_clust_6="13000.00000" pt_clust_7="13000.00000" pt_clust_8="13000.00000" pt_clust_9="66.18641"></scales>
<clustering>
<clus scale="   66.186">  2  9  1 -1</clus>
<clus scale="   92.053">  5  6 -1 -1</clus>
<clus scale="  109.539">  7  8 -1 -1</clus>
<clus scale="  129.023">  1  5  2 -1</clus>
<clus scale="   66.186">  2  5  1 -1</clus>
</clustering>
</event>
<event>
 9    1  0.1464797E-005  0.1068358E+03  0.7546771E-02  0.1271432E+00
          1   -1    0    0  502    0 -0.00000000000E+00  0.00000000000E+00  0.33291818325E+03  0.33291818325E+03  0.00000000000E+00 0. -1.
         21   -1    0    0  501  502  0.00000000000E+00 -0.00000000000E+00 -0.73092292030E+02  0.73092292030E+02  0.00000000000E+00 0. -1.
         23    2    1    2    0    0 -0.91332540238E+01 -0.29781437446E+02  0.24561701976E+03  0.26374191806E+03  0.90894051503E+02 0.  0.
         23    2    1    2    0    0  0.22983257969E+01  0.54981522472E+02  0.79702958595E+01  0.11542306682E+03  0.10114696547E+03 0.  0.
        -11    1    3    3    0    0  0.20078298385E+02  0.22960827208E+02  0.45800227984E+02  0.55027252662E+02  0.00000000000E+00 0. -1.
         11    1    3    3    0    0 -0.29211552408E+02 -0.52742264654E+02  0.19981679178E+03  0.20871466540E+03  0.00000000000E+00 0.  1.
        -13    1    4    4    0    0 -0.13108033365E+02 -0.23698933121E+02  0.20904344281E+02  0.34211863141E+02  0.00000000000E+00 0.  1.
         13    1    4    4    0    0  0.15406359162E+02  0.78680455593E+02 -0.12934048421E+02  0.81211203682E+02  0.00000000000E+00 0. -1.
          1    1    1    2  501    0  0.68349282269E+01 -0.25200085026E+02  0.62385755949E+01  0.26845490396E+02  0.00000000000E+00 0. -1.
<scales pt_clust_5="13000.00000" pt_clust_6="13000.00000" pt_clust_7="13000.00000" pt_clust_8="13000.00000" pt_clust_9="26.11054"></scales>
<clustering>
<clus scale="   26.111">  2  9  1 -1</clus>
<clus scale="   90.894">  5  6 -1 -1</clus>
<clus scale="   97.185">  1  5  2 -1</clus>
<clus scale="  101.147">  7  8 -1 -1</clus>
<clus scale="   26.111">  2  5  1 -1</clus>
</clustering>
</event>
<event>
 9    1  0.1464797E-005  0.1418295E+03  0.7546771E-02  0.1229383E+00
          1   -1    0    0  502    0 -0.00000000000E+00  0.00000000000E+00  0.60382724990E+03  0.60382724990E+03  0.00000000000E+00 0. -1.
         21   -1    0    0  501  502  0.00000000000E+00 -0.00000000000E+00 -0.78520186465E+02  0.78520186465E+02  0.00000000000E+00 0. -1.
         23    2    1    2    0    0 -0.10021072656E+01 -0.34122793611E+02  0.18749228318E+03  0.21072830104E+03  0.89931592580E+02 0.  0.
         23    2    1    2    0    0  0.24743239097E+02 -0.83688076574E+02  0.32984451154E+03  0.35117592192E+03  0.83133653239E+02 0.  0.
        -11    1    4    4    0    0 -0.30094829296E+02 -0.22610952736E+02  0.85708867936E+02  0.93610704393E+02  0.00000000000E+00 0.  1.
         11    1    4    4    0    0  0.54838068393E+02 -0.61077123837E+02  0.24413564360E+03  0.25756521752E+03  0.00000000000E+00 0. -1.
        -13    1    3    3    0    0 -0.14333614027E+02  0.14035402834E+02  0.38733386956E+01  0.20431538768E+02  0.00000000000E+00 0.  1.
         13    1    3    3    0    0  0.13331506761E+02 -0.48158196445E+02  0.18361894448E+03  0.19029676227E+03  0.00000000000E+00 0. -1.
          1    1    1    2  501    0 -0.23741131831E+02  0.11781087018E+03  0.79702687231E+01  0.12044321342E+03  0.00000000000E+00 0. -1.
<scales pt_clust_5="13000.00000" pt_clust_6="13000.00000" pt_clust_7="13000.00000" pt_clust_8="13000.00000" pt_clust_9="114.91038"></scales>
<clustering>
<clus scale="   83.134">  5  6 -1 -1</clus>
<clus scale="   89.932">  7  8 -1 -1</clus>
<clus scale="   96.193">  1  7  2 -1</clus>
<clus scale="  114.910">  2  9  1 -1</clus>
<clus scale="  114.910">  2  5  1 -1</clus>
</clustering>
</event>
<event>
 9    1  0.1464797E-005  0.9908476E+02  0.7546771E-02  0.1284092E+00
         21   -1    0    0  501  502  0.00000000000E+00  0.00000000000E+00  0.23690091851E+03  0.23690091851E+03  0.00000000000E+00 0. -1.
          1   -1    0    0  502    0 -0.00000000000E+00 -0.00000000000E+00 -0.19974834147E+03  0.19974834147E+03  0.00000000000E+00 0. -1.
         23    2    1    2    0    0  0.53577076397E+00  0.80236496570E+01 -0.83840462471E+02  0.12747800302E+03  0.95690919642E+02 0.  0.
         23    2    1    2    0    0  0.75622796126E+02  0.79329458022E+01 -0.43554010586E+02  0.12715347777E+03  0.92137485029E+02 0.  0.
        -11    1    4    4    0    0  0.60145797090E+02  0.30415904442E+02  0.89378263647E+01  0.67989182160E+02  0.00000000000E+00 0. -1.
         11    1    4    4    0    0  0.15476999036E+02 -0.22482958640E+02 -0.52491836951E+02  0.59164295608E+02  0.00000000000E+00 0.  1.
        -11    1    3    3    0    0 -0.19530947200E+02 -0.27589786914E+02  0.44147161053E+00  0.33806051791E+02  0.00000000000E+00 0.  1.
         11    1    3    3    0    0  0.20066717964E+02  0.35613436571E+02 -0.84281934081E+02  0.93671951227E+02  0.00000000000E+00 0. -1.
          1    1    1    2  501    0 -0.76158566890E+02 -0.15956595459E+02  0.16454705009E+03  0.18201777920E+03  0.00000000000E+00 0. -1.
<scales pt_clust_5="13000.00000" pt_clust_6="13000.00000" pt_clust_7="13000.00000" pt_clust_8="13000.00000" pt_clust_9="77.81221"></scales>
<clustering>
<clus scale="   77.812">  1  9  2 -1</clus>
<clus scale="   92.137">  5  6 -1 -1</clus>
<clus scale="   95.657">  1  5  2 -1</clus>
<clus scale="   95.691">  7  8 -1 -1</clus>
<clus scale="   77.812">  1  5  2 -1</clus>
</clustering>
</event>
<event>
 9    1  0.1464797E-005  0.1009439E+03  0.7546771E-02  0.1278439E+00
         -3   -1    0    0    0  501 -0.00000000000E+00  0.00000000000E+00  0.30102632252E+03  0.30102632252E+03  0.00000000000E+00 0.  1.
         21   -1    0    0  501  502  0.00000000000E+00 -0.00000000000E+00 -0.63205310030E+02  0.63205310030E+02  0.00000000000E+00 0. -1.
         23    2    1    2    0    0  0.38287882257E+02 -0.26563271520E+02  0.20581756374E+03  0.23068243069E+03  0.93176955114E+02 0.  0.
         23    2    1    2    0    0 -0.11404131985E+02  0.12955704158E+02  0.38872580743E+02  0.10264472172E+03  0.93418182746E+02 0.  0.
        -13    1    4    4    0    0  0.28126885566E+02 -0.26012702199E+02  0.80350043749E+01  0.39145161420E+02  0.00000000000E+00 0. -1.
         13    1    4    4    0    0 -0.39531017550E+02  0.38968406356E+02  0.30837576368E+02  0.63499560304E+02  0.00000000000E+00 0.  1.
        -13    1    3    3    0    0  0.56471640229E+02  0.63963006569E+01  0.72318925665E+02  0.91978181225E+02  0.00000000000E+00 0. -1.
         13    1    3    3    0    0 -0.18183757972E+02 -0.32959572177E+02  0.13349863807E+03  0.13870424946E+03  0.00000000000E+00 0.  1.
         -3    1    1    2    0  502 -0.26883750273E+02  0.13607567362E+02 -0.68691319904E+01  0.30904480137E+02  0.00000000000E+00 0.  1.
<scales pt_clust_5="13000.00000" pt_clust_6="13000.00000" pt_clust_7="13000.00000" pt_clust_8="13000.00000" pt_clust_9="30.13141"></scales>
<clustering>
<clus scale="   30.131">  2  9  1 -1</clus>
<clus scale="   93.177">  7  8 -1 -1</clus>
<clus scale="   93.418">  5  6 -1 -1</clus>
<clus scale="  100.721">  1  7  2 -1</clus>
<clus scale="   30.131">  2  5  1 -1</clus>
</clustering>
</event>
<event>
 9    1  0.1464797E-005  0.1055912E+03  0.7546771E-02  0.1270068E+00
         -4   -1    0    0    0  501 -0.00000000000E+00  0.00000000000E+00  0.18887506248E+03  0.18887506248E+03  0.00000000000E+00 0.  1.
         21   -1    0    0  501  502  0.00000000000E+00 -0.00000000000E+00 -0.18217179640E+03  0.18217179640E+03  0.00000000000E+00 0.  1.
         23    2    1    2    0    0 -0.73952070828E+01 -0.70713807016E+02  0.94197525639E+02  0.15132604405E+03  0.94716768210E+02 0.  0.
         23    2    1    2    0    0  0.23234164217E+01 -0.59939289348E+01  0.73340603173E+01  0.97646206231E+02  0.97157952338E+02 0.  0.
        -13    1    3    3    0    0  0.33524071256E+02  0.12924499103E+00  0.44094903814E+02  0.55391701547E+02  0.00000000000E+00 0. -1.
         13    1    3    3    0    0 -0.40919278339E+02 -0.70843052007E+02  0.50102621825E+02  0.95934342501E+02  0.00000000000E+00 0.  1.
        -13    1    4    4    0    0  0.33379071761E+02  0.33389749325E+02  0.31950493205E+01  0.47320673408E+02  0.00000000000E+00 0. -1.
         13    1    4    4    0    0 -0.31055655340E+02 -0.39383678260E+02  0.41390109968E+01  0.50325532823E+02  0.00000000000E+00 0.  1.
         -4    1    1    2    0  502  0.50717906611E+01  0.76707735951E+02 -0.94828319873E+02  0.12207460860E+03  0.00000000000E+00 0.  1.
<scales pt_clust_5="13000.00000" pt_clust_6="13000.00000" pt_clust_7="13000.00000" pt_clust_8="13000.00000" pt_clust_9="76.87522"></scales>
<clustering>
<clus scale="   76.875">  2  9  1 -1</clus>
<clus scale="   94.717">  5  6 -1 -1</clus>
<clus scale="   97.158">  7  8 -1 -1</clus>
<clus scale="  103.349">  1  5  2 -1</clus>
<clus scale="   76.875">  2  5  1 -1</clus>
</clustering>
</event>
<event>
 9    1  0.1464797E-005  0.9425379E+02  0.7546771E-02  0.1293064E+00
         21   -1    0    0  501  502  0.00000000000E+00  0.00000000000E+00  0.12867078544E+03  0.12867078544E+03  0.00000000000E+00 0. -1.
          3   -1    0    0  502    0 -0.00000000000E+00 -0.00000000000E+00 -0.17702253050E+03  0.17702253050E+03  0.00000000000E+00 0. -1.
         23    2    1    2    0    0 -0.64501212938E+01  0.22508564320E+02 -0.12467480721E+03  0.15643523623E+03  0.91541990630E+02 0.  0.
         23    2    1    2    0    0  0.25391383841E+02  0.74448319596E-01  0.42475308981E+02  0.10437563012E+03  0.91898815956E+02 0.  0.
        -11    1    3    3    0    0  0.29432066504E+02  0.38078034506E+02 -0.97732908982E+02  0.10893991348E+03  0.00000000000E+00 0. -1.
         11    1    3    3    0    0 -0.35882187798E+02 -0.15569470186E+02 -0.26941898228E+02  0.47495322751E+02  0.00000000000E+00 0.  1.
        -13    1    4    4    0    0 -0.28361903990E+02 -0.22185913699E+02  0.24229759840E+02  0.43401539448E+02  0.00000000000E+00 0.  1.
         13    1    4    4    0    0  0.53753287830E+02  0.22260362019E+02  0.18245549141E+02  0.60974090672E+02  0.00000000000E+00 0. -1.
          3    1    1    2  501    0 -0.18941262547E+02 -0.22583012639E+02  0.33847753168E+02  0.44882449591E+02  0.00000000000E+00 0. -1.
<scales pt_clust_5="13000.00000" pt_clust_6="13000.00000" pt_clust_7="13000.00000" pt_clust_8="13000.00000" pt_clust_9="29.47480"></scales>
<clustering>
<clus scale="   29.475">  1  9  2 -1</clus>
<clus scale="   91.542">  5  6 -1 -1</clus>
<clus scale="   91.899">  7  8 -1 -1</clus>
<clus scale="   93.906">  2  5  1 -1</clus>
<clus scale="   29.475">  1  5  2 -1</clus>
</clustering>
</event>
<event>
 9    1  0.1464797E-005  0.9959016E+02  0.7546771E-02  0.1284464E+00
          1   -1    0    0  502    0 -0.00000000000E+00  0.00000000000E+00  0.29610891153E+03  0.29610891153E+03  0.00000000000E+00 0. -1.
         21   -1    0    0  501  502  0.00000000000E+00 -0.00000000000E+00 -0.10206516874E+03  0.10206516874E+03  0.00000000000E+00 0. -1.
         23    2    1    2    0    0 -0.96425966492E+01 -0.43474805808E+01  0.11387364542E+03  0.14364088041E+03  0.86911536329E+02 0.  0.
         23    2    1    2    0    0  0.59539574799E+02  0.38729286038E+02  0.13069819312E+03  0.17563512996E+03  0.93385023569E+02 0.  0.
        -11    1    3    3    0    0 -0.42246618443E+02 -0.52132423744E+01  0.25927504617E+02  0.49841650871E+02  0.00000000000E+00 0.  1.
         11    1    3    3    0    0  0.32604021793E+02  0.86576179356E+00  0.87946140801E+02  0.93799229540E+02  0.00000000000E+00 0. -1.
        -11    1    4    4    0    0 -0.15256161873E+02  0.38890995175E+02  0.37531535941E+02  0.56159381860E+02  0.00000000000E+00 0.  1.
         11    1    4    4    0    0  0.74795736672E+02 -0.16170913745E+00  0.93166657175E+02  0.11947574810E+03  0.00000000000E+00 0. -1.
          1    1    1    2  501    0 -0.49896978150E+02 -0.34381805457E+02 -0.50528095747E+02  0.78898069905E+02  0.00000000000E+00 0. -1.
<scales pt_clust_5="13000.00000" pt_clust_6="13000.00000" pt_clust_7="13000.00000" pt_clust_8="13000.00000" pt_clust_9="60.59552"></scales>
<clustering>
<clus scale="   60.596">  2  9  1 -1</clus>
<clus scale="   86.912">  5  6 -1 -1</clus>
<clus scale="   93.385">  7  8 -1 -1</clus>
<clus scale="   93.547">  1  5  2 -1</clus>
<clus scale="   60.596">  2  5  1 -1</clus>
</clustering>
</event>
<event>
 9    1  0.1464797E-005  0.9579445E+02  0.7546771E-02  0.1290716E+00
          2   -1    0    0  502    0 -0.00000000000E+00  0.00000000000E+00  0.27117485940E+03  0.27117485940E+03  0.00000000000E+00 0. -1.
         21   -1    0    0  501  502  0.00000000000E+00 -0.00000000000E+00 -0.88409682478E+02  0.88409682478E+02  0.00000000000E+00 0. -1.
         23    2    1    2    0    0 -0.76063267375E+01  0.21380700883E+02  0.18306265979E+03  0.20727237813E+03  0.94524656825E+02 0.  0.
         23    2    1    2    0    0  0.19702266521E+02  0.29618436299E+02 -0.89589304286E+01  0.99187363268E+02  0.92154433007E+02 0.  0.
        -11    1    4    4    0    0  0.59133029549E+00  0.61499967092E+02 -0.78332044862E+01  0.61999634808E+02  0.00000000000E+00 0. -1.
         11    1    4    4    0    0  0.19110936226E+02 -0.31881530793E+02 -0.11257259424E+01  0.37187728460E+02  0.00000000000E+00 0.  1.
        -11    1    3    3    0    0 -0.81475289787E+01 -0.30101132581E+02  0.21953455715E+02  0.38136788393E+02  0.00000000000E+00 0.  1.
         11    1    3    3    0    0  0.54120224110E+00  0.51481833464E+02  0.16110920408E+03  0.16913558973E+03  0.00000000000E+00 0. -1.
          2    1    1    2  501    0 -0.12095939784E+02 -0.50999137182E+02  0.86614475606E+01  0.53124800484E+02  0.00000000000E+00 0. -1.
<scales pt_clust_5="13000.00000" pt_clust_6="13000.00000" pt_clust_7="13000.00000" pt_clust_8="13000.00000" pt_clust_9="52.41397"></scales>
<clustering>
<clus scale="   52.414">  2  9  1 -1</clus>
<clus scale="   92.154">  5  6 -1 -1</clus>
<clus scale="   93.456">  2  5  1 -1</clus>
<clus scale="   94.525">  7  8 -1 -1</clus>
<clus scale="   52.414">  2  5  1 -1</clus>
</clustering>
</event>
<event>
 9    1  0.1464797E-005  0.2667361E+03  0.7546771E-02  0.1103193E+00
         -2   -1    0    0    0  501 -0.00000000000E+00  0.00000000000E+00  0.71509543829E+03  0.71509543829E+03  0.00000000000E+00 0.  1.
         21   -1    0    0  501  502  0.00000000000E+00 -0.00000000000E+00 -0.15104593003E+03  0.15104593003E+03  0.00000000000E+00 0. -1.
         23    2    1    2    0    0 -0.22899595169E+03  0.48144440281E+02  0.37038705952E+03  0.44735982443E+03  0.90483178748E+02 0.  0.
         23    2    1    2    0    0  0.27524934189E+03 -0.94594967396E+02  0.16952717510E+03  0.34892784672E+03  0.91108567361E+02 0.  0.
        -11    1    3    3    0    0 -0.19557727975E+03  0.42138938025E+01  0.29311510416E+03  0.35239848686E+03  0.00000000000E+00 0.  1.
         11    1    3    3    0    0 -0.33418671937E+02  0.43930546479E+02  0.77271955364E+02  0.94961337573E+02  0.00000000000E+00 0. -1.
        -11    1    4    4    0    0  0.14318154473E+03 -0.91174497041E+02  0.11981424097E+03  0.20777198079E+03  0.00000000000E+00 0.  1.
         11    1    4    4    0    0  0.13206779717E+03 -0.34204703550E+01  0.49712934128E+02  0.14115586593E+03  0.00000000000E+00 0. -1.
         -2    1    1    2    0  502 -0.46253390207E+02  0.46450527115E+02  0.24135273637E+02  0.69853697171E+02  0.00000000000E+00 0.  1.
<scales pt_clust_5="13000.00000" pt_clust_6="13000.00000" pt_clust_7="13000.00000" pt_clust_8="13000.00000" pt_clust_9="65.55172"></scales>
<clustering>
<clus scale="   65.552">  2  9  1 -1</clus>
<clus scale="   90.483">  5  6 -1 -1</clus>
<clus scale="   91.109">  7  8 -1 -1</clus>
<clus scale="  266.523">  1  5  2 -1</clus>
<clus scale="   65.552">  2  5  1 -1</clus>
</clustering>
</event>
<event>
 9    1  0.1464797E-005  0.1583950E+03  0.7546771E-02  0.1191110E+00
          2   -1    0    0  502    0 -0.00000000000E+00  0.00000000000E+00  0.27744420896E+03  0.27744420896E+03  0.00000000000E+00 0. -1.
         21   -1    0    0  501  502  0.00000000000E+00 -0.00000000000E+00 -0.18548924519E+03  0.18548924519E+03  0.00000000000E+00 0. -1.
         23    2    1    2    0    0 -0.38850209111E+02 -0.12936741090E+03  0.17686987996E+03  0.23972438972E+03  0.89104224595E+02 0.  0.
         23    2    1    2    0    0  0.44007532586E+02  0.10333937217E+03 -0.12559039562E+02  0.14614136907E+03  0.92649239142E+02 0.  0.
        -11    1    4    4    0    0  0.26469432338E+02 -0.99944169443E+01  0.84967150127E+01  0.29541722772E+02  0.00000000000E+00 0.  1.
         11    1    4    4    0    0  0.17538100248E+02  0.11333378912E+03 -0.21055754574E+02  0.11659964630E+03  0.00000000000E+00 0. -1.
        -13    1    3    3    0    0 -0.57788609443E+02 -0.87267917366E+02  0.77760342625E+02  0.13039127144E+03  0.00000000000E+00 0.  1.
         13    1    3    3    0    0  0.18938400332E+02 -0.42099493534E+02  0.99109537333E+02  0.10933311828E+03  0.00000000000E+00 0. -1.
          2    1    1    2  501    0 -0.51573234753E+01  0.26028038726E+02 -0.72355876630E+02  0.77067695361E+02  0.00000000000E+00 0. -1.
<scales pt_clust_5="13000.00000" pt_clust_6="13000.00000" pt_clust_7="13000.00000" pt_clust_8="13000.00000" pt_clust_9="26.53407"></scales>
<clustering>
<clus scale="   26.534">  2  9  1 -1</clus>
<clus scale="   89.104">  7  8 -1 -1</clus>
<clus scale="   92.649">  5  6 -1 -1</clus>
<clus scale="  156.348">  1  7  2 -1</clus>
<clus scale="   26.534">  2  5  1 -1</clus>
</clustering>
</event>
<event>
 9    1  0.1464797E-005  0.1419171E+03  0.7546771E-02  0.1210908E+00
         21   -1    0    0  501  502  0.00000000000E+00  0.00000000000E+00  0.30563867954E+03  0.30563867954E+03  0.00000000000E+00 0. -1.
          2   -1    0    0  502    0 -0.00000000000E+00 -0.00000000000E+00 -0.26173995034E+03  0.26173995034E+03  0.00000000000E+00 0. -1.
         23    2    1    2    0    0 -0.19469068758E+02  0.11587325858E+03 -0.19805164537E+03  0.24822207800E+03  0.92650359309E+02 0.  0.
         23    2    1    2    0    0  0.28474997800E+02 -0.23632033245E+02  0.18628690430E+03  0.21104562583E+03  0.92022535140E+02 0.  0.
        -13    1    3    3    0    0  0.33049484438E+02  0.77906735348E+02 -0.10576359818E+03  0.13545355859E+03  0.00000000000E+00 0.  1.
         13    1    3    3    0    0 -0.52518553196E+02  0.37966523236E+02 -0.92288047186E+02  0.11276851941E+03  0.00000000000E+00 0. -1.
        -13    1    4    4    0    0 -0.27963415069E+02 -0.14271877973E+02  0.11727422144E+03  0.12140379771E+03  0.00000000000E+00 0.  1.
         13    1    4    4    0    0  0.56438412869E+02 -0.93601552722E+01  0.69012682860E+02  0.89641828124E+02  0.00000000000E+00 0. -1.
          2    1    1    2  501    0 -0.90059290423E+01 -0.92241225339E+02  0.55663470257E+02  0.10811092605E+03  0.00000000000E+00 0. -1.
<scales pt_clust_5="13000.00000" pt_clust_6="13000.00000" pt_clust_7="13000.00000" pt_clust_8="13000.00000" pt_clust_9="92.67983"></scales>
<clustering>
<clus scale="   92.023">  7  8 -1 -1</clus>
<clus scale="   92.650">  5  6 -1 -1</clus>
<clus scale="   92.680">  1  9  2 -1</clus>
<clus scale="  141.508">  1  7  2 -1</clus>
<clus scale="   92.680">  1  5  2 -1</clus>
</clustering>
</event>
<event>
 9    1  0.1464797E-005  0.1080149E+03  0.7546771E-02  0.1264363E+00
         21   -1    0    0  501  502  0.00000000000E+00  0.00000000000E+00  0.42417734211E+03  0.42417734211E+03  0.00000000000E+00 0. -1.
          3   -1    0    0  502    0 -0.00000000000E+00 -0.00000000000E+00 -0.62916371232E+02  0.62916371232E+02  0.00000000000E+00 0. -1.
         23    2    1    2    0    0 -0.12942937045E+02 -0.76759687872E+02  0.50273196721E+02  0.13087238281E+03  0.92415458509E+02 0.  0.
         23    2    1    2    0    0  0.53414681061E+01  0.26910467419E+02  0.98006088538E+02  0.13735167636E+03  0.92236571219E+02 0.  0.
        -11    1    3    3    0    0 -0.47504963107E+02 -0.18060195314E+02  0.10184032631E+02  0.51832486871E+02  0.00000000000E+00 0.  1.
         11    1    3    3    0    0  0.34562026062E+02 -0.58699492558E+02  0.40089164090E+02  0.79039895936E+02  0.00000000000E+00 0. -1.
        -13    1    4    4    0    0 -0.14603736006E+02 -0.22084219863E+02  0.57021307381E+00  0.26482201858E+02  0.00000000000E+00 0. -1.
         13    1    4    4    0    0  0.19945204112E+02  0.48994687282E+02  0.97435875464E+02  0.11086947450E+03  0.00000000000E+00 0.  1.
          3    1    1    2  501    0  0.76014689389E+01  0.49849220453E+02  0.21298168562E+03  0.21886965417E+03  0.00000000000E+00 0. -1.
<scales pt_clust_5="13000.00000" pt_clust_6="13000.00000" pt_clust_7="13000.00000" pt_clust_8="13000.00000" pt_clust_9="50.42546"></scales>
<clustering>
<clus scale="   50.425">  1  9  2 -1</clus>
<clus scale="   92.237">  7  8 -1 -1</clus>
<clus scale="   92.415">  5  6 -1 -1</clus>
<clus scale="  107.862">  1  7  2 -1</clus>
<clus scale="   50.425">  1  5  2 -1</clus>
</clustering>
</event>
<event>
 9    1  0.1464797E-005  0.9267812E+02  0.7546771E-02  0.1300528E+00
         -1   -1    0    0    0  501 -0.00000000000E+00  0.00000000000E+00  0.12364866826E+03  0.12364866826E+03  0.00000000000E+00 0.  1.
         21   -1    0    0  501  502  0.00000000000E+00 -0.00000000000E+00 -0.26740468618E+03  0.26740468618E+03  0.00000000000E+00 0.  1.
         23    2    1    2    0    0  0.45471305170E+01  0.36081275676E+00  0.61504187668E+02  0.10575919514E+03  0.85915281965E+02 0.  0.
         23    2    1    2    0    0  0.20080469390E+02  0.14282147656E+02 -0.20049019885E+02  0.97879863482E+02  0.92581312824E+02 0.  0.
        -11    1    3    3    0    0  0.20111595103E+01  0.42770746242E+02  0.37755815555E+02  0.57086628075E+02  0.00000000000E+00 0. -1.
         11    1    3    3    0    0  0.25359710068E+01 -0.42409933485E+02  0.23748372112E+02  0.48672567070E+02  0.00000000000E+00 0.  1.
        -13    1    4    4    0    0  0.53846472080E+02  0.23811987935E+02 -0.32124349950E+01  0.58964167623E+02  0.00000000000E+00 0.  1.
         13    1    4    4    0    0 -0.33766002690E+02 -0.95298402791E+01 -0.16836584890E+02  0.38915695859E+02  0.00000000000E+00 0. -1.
         -1    1    1    2    0  502 -0.24627599907E+02 -0.14642960413E+02 -0.18521118571E+03  0.18741429582E+03  0.00000000000E+00 0.  1.
<scales pt_clust_5="13000.00000" pt_clust_6="13000.00000" pt_clust_7="13000.00000" pt_clust_8="13000.00000" pt_clust_9="28.65196"></scales>
<clustering>
<clus scale="   28.652">  2  9  1 -1</clus>
<clus scale="   85.915">  5  6 -1 -1</clus>
<clus scale="   86.020">  1  5  2 -1</clus>
<clus scale="   92.581">  7  8 -1 -1</clus>
<clus scale="   28.652">  2  5  1 -1</clus>
</clustering>
</event>
<event>
 9    1  0.1464797E-005  0.9069027E+02  0.7546771E-02  0.1301401E+00
          1   -1    0    0  502    0 -0.00000000000E+00  0.00000000000E+00  0.82815029447E+02  0.82815029447E+02  0.00000000000E+00 0. -1.
         21   -1    0    0  501  502  0.00000000000E+00 -0.00000000000E+00 -0.19550557859E+03  0.19550557859E+03  0.00000000000E+00 0.  1.
         23    2    1    2    0    0 -0.17130114135E+02 -0.20326522521E+01  0.24409885785E+02  0.94000069461E+02  0.89121254755E+02 0.  0.
         23    2    1    2    0    0  0.13817471208E+02 -0.24594755817E+02 -0.12213970341E+03  0.15359895087E+03  0.88762075436E+02 0.  0.
        -11    1    4    4    0    0  0.16267387697E+02  0.22948491658E+02 -0.69732124118E+01  0.28980801632E+02  0.00000000000E+00 0. -1.
         11    1    4    4    0    0 -0.24499164894E+01 -0.47543247475E+02 -0.11516649100E+03  0.12461814924E+03  0.00000000000E+00 0.  1.
        -11    1    3    3    0    0  0.31505421588E+02  0.19020679218E+02  0.16816790708E+02  0.40462109153E+02  0.00000000000E+00 0.  1.
         11    1    3    3    0    0 -0.48635535723E+02 -0.21053331470E+02  0.75930950776E+01  0.53537960308E+02  0.00000000000E+00 0. -1.
          1    1    1    2  501    0  0.33126429271E+01  0.26627408069E+02 -0.14960731522E+02  0.30721587708E+02  0.00000000000E+00 0. -1.
<scales pt_clust_5="13000.00000" pt_clust_6="13000.00000" pt_clust_7="13000.00000" pt_clust_8="13000.00000" pt_clust_9="26.83268"></scales>
<clustering>
<clus scale="   26.833">  2  9  1 -1</clus>
<clus scale="   88.762">  5  6 -1 -1</clus>
<clus scale="   89.121">  7  8 -1 -1</clus>
<clus scale="   90.337">  2  5  1 -1</clus>
<clus scale="   26.833">  2  5  1 -1</clus>
</clustering>
</event>
<event>
 9    1  0.1464797E-005  0.1196457E+03  0.7546771E-02  0.1244587E+00
          3   -1    0    0  502    0 -0.00000000000E+00  0.00000000000E+00  0.31620157779E+03  0.31620157779E+03  0.00000000000E+00 0. -1.
         21   -1    0    0  501  502  0.00000000000E+00 -0.00000000000E+00 -0.64709865892E+02  0.64709865892E+02  0.00000000000E+00 0. -1.
         23    2    1    2    0    0 -0.66497670148E+02  0.47781971788E+02  0.12256095461E+03  0.17365625787E+03  0.91816400163E+02 0.  0.
         23    2    1    2    0    0  0.77184331511E+02 -0.57362043128E+01  0.10389096386E+03  0.15716484195E+03  0.88978256343E+02 0.  0.
        -11    1    3    3    0    0 -0.49183959764E+02 -0.19648020670E+02  0.45703712255E+02  0.69956671791E+02  0.00000000000E+00 0.  1.
         11    1    3    3    0    0 -0.17313710384E+02  0.67429992457E+02  0.76857242358E+02  0.10369958608E+03  0.00000000000E+00 0. -1.
        -13    1    4    4    0    0  0.12884846079E+01 -0.24098058208E+02 -0.35013399844E+01  0.24385159086E+02  0.00000000000E+00 0.  1.
         13    1    4    4    0    0  0.75895846903E+02  0.18361853895E+02  0.10739230385E+03  0.13277968286E+03  0.00000000000E+00 0. -1.
          3    1    1    2  501    0 -0.10686661363E+02 -0.42045767475E+02  0.25039793423E+02  0.50090343863E+02  0.00000000000E+00 0. -1.
<scales pt_clust_5="13000.00000" pt_clust_6="13000.00000" pt_clust_7="13000.00000" pt_clust_8="13000.00000" pt_clust_9="43.38262"></scales>
<clustering>
<clus scale="   43.383">  2  9  1 -1</clus>
<clus scale="   88.978">  7  8 -1 -1</clus>
<clus scale="   91.816">  5  6 -1 -1</clus>
<clus scale="  117.482">  2  7  1 -1</clus>
<clus scale="   43.383">  2  5  1 -1</clus>
</clustering>
</event>
<event>
 9    1  0.1464797E-005  0.9371644E+02  0.7546771E-02  0.1297655E+00
         21   -1    0    0  501  502  0.00000000000E+00  0.00000000000E+00  0.77175104944E+02  0.77175104944E+02  0.00000000000E+00 0.  1.
         -4   -1    0    0    0  501 -0.00000000000E+00 -0.00000000000E+00 -0.22859543446E+03  0.22859543446E+03  0.00000000000E+00 0.  1.
         23    2    1    2    0    0  0.15275261365E+02 -0.21676980155E+02 -0.11764205383E+03  0.14819669755E+03  0.86135841890E+02 0.  0.
         23    2    1    2    0    0  0.23350071943E+01  0.32883619724E+01 -0.68185626001E+02  0.11477047057E+03  0.92231858592E+02 0.  0.
        -11    1    3    3    0    0 -0.19987538970E+02 -0.33085024136E+02 -0.99878662556E+02  0.10709746855E+03  0.00000000000E+00 0.  1.
         11    1    3    3    0    0  0.35262800335E+02  0.11408043981E+02 -0.17763391269E+02  0.41099228999E+02  0.00000000000E+00 0. -1.
        -13    1    4    4    0    0 -0.13628728638E+02  0.45098957944E+02 -0.40630758194E+02  0.62213477345E+02  0.00000000000E+00 0. -1.
         13    1    4    4    0    0  0.15963735832E+02 -0.41810595972E+02 -0.27554867807E+02  0.52556993228E+02  0.00000000000E+00 0.  1.
         -4    1    1    2    0  502 -0.17610268559E+02  0.18388618183E+02  0.34407350312E+02  0.42803371279E+02  0.00000000000E+00 0.  1.
<scales pt_clust_5="13000.00000" pt_clust_6="13000.00000" pt_clust_7="13000.00000" pt_clust_8="13000.00000" pt_clust_9="25.46101"></scales>
<clustering>
<clus scale="   25.461">  1  9  2 -1</clus>
<clus scale="   86.136">  5  6 -1 -1</clus>
<clus scale="   87.724">  2  5  1 -1</clus>
<clus scale="   92.232">  7  8 -1 -1</clus>
<clus scale="   25.461">  1  5  2 -1</clus>
</clustering>
</event>
<event>
 9    1  0.1464797E-005  0.9577635E+02  0.7546771E-02  0.1290348E+00
         -1   -1    0    0    0  501 -0.00000000000E+00  0.00000000000E+00  0.12140170235E+03  0.12140170235E+03  0.00000000000E+00 0.  1.
         21   -1    0    0  501  502  0.00000000000E+00 -0.00000000000E+00 -0.16161300875E+03  0.16161300875E+03  0.00000000000E+00 0. -1.
         23    2    1    2    0    0  0.10776414275E+02 -0.25162844245E+02  0.45100326364E+02  0.10727878160E+03  0.93409837319E+02 0.  0.
         23    2    1    2    0    0 -0.22688513320E+02 -0.30249659607E+01 -0.10786296099E+02  0.95172435578E+02  0.91747093984E+02 0.  0.
        -11    1    4    4    0    0 -0.55878377391E+01  0.31474153342E+02  0.26538108248E+02  0.41546569637E+02  0.00000000000E+00 0. -1.
         11    1    4    4    0    0 -0.17100675581E+02 -0.34499119303E+02 -0.37324404347E+02  0.53625865941E+02  0.00000000000E+00 0.  1.
        -13    1    3    3    0    0  0.28937857594E+02  0.26374692671E+02  0.49399662497E+01  0.39464253219E+02  0.00000000000E+00 0. -1.
         13    1    3    3    0    0 -0.18161443319E+02 -0.51537536916E+02  0.40160360114E+02  0.67814528379E+02  0.00000000000E+00 0.  1.
         -1    1    1    2    0  502  0.11912099045E+02  0.28187810206E+02 -0.74525336664E+02  0.80563493921E+02  0.00000000000E+00 0.  1.
<scales pt_clust_5="13000.00000" pt_clust_6="13000.00000" pt_clust_7="13000.00000" pt_clust_8="13000.00000" pt_clust_9="30.60148"></scales>
<clustering>
<clus scale="   30.601">  2  9  1 -1</clus>
<clus scale="   91.747">  5  6 -1 -1</clus>
<clus scale="   93.410">  7  8 -1 -1</clus>
<clus scale="   94.155">  2  5  1 -1</clus>
<clus scale="   30.601">  2  5  1 -1</clus>
</clustering>
</event>
<event>
 9    1  0.1464797E-005  0.3110310E+03  0.7546771E-02  0.1088668E+00
         21   -1    0    0  501  502  0.00000000000E+00  0.00000000000E+00  0.61528527931E+03  0.61528527931E+03  0.00000000000E+00 0. -1.
          1   -1    0    0  502    0 -0.00000000000E+00 -0.00000000000E+00 -0.62624553436E+03  0.62624553436E+03  0.00000000000E+00 0. -1.
         23    2    1    2    0    0 -0.15586475842E+02  0.22722747354E+03 -0.34509289256E+02  0.24816658467E+03  0.92306553093E+02 0.  0.
         23    2    1    2    0    0 -0.11210274826E+03 -0.47160424750E+03 -0.29261280790E+03  0.57386112292E+03  0.93363486605E+02 0.  0.
        -11    1    4    4    0    0 -0.95626687769E+01 -0.90501688795E+02 -0.17225762516E+02  0.92621418706E+02  0.00000000000E+00 0.  1.
         11    1    4    4    0    0 -0.10254007948E+03 -0.38110255870E+03 -0.27538704539E+03  0.48123970422E+03  0.00000000000E+00 0. -1.
        -13    1    3    3    0    0 -0.42207923544E+02  0.19283501571E+03 -0.46996588794E+02  0.20291754841E+03  0.00000000000E+00 0. -1.
         13    1    3    3    0    0  0.26621447702E+02  0.34392457830E+02  0.12487299538E+02  0.45249036267E+02  0.00000000000E+00 0.  1.
          1    1    1    2  501    0  0.12768922410E+03  0.24437677396E+03  0.31616184210E+03  0.41950310607E+03  0.00000000000E+00 0. -1.
<scales pt_clust_5="13000.00000" pt_clust_6="13000.00000" pt_clust_7="13000.00000" pt_clust_8="13000.00000" pt_clust_9="296.68759"></scales>
<clustering>
<clus scale="   92.307">  7  8 -1 -1</clus>
<clus scale="   93.363">  5  6 -1 -1</clus>
<clus scale="  245.755">  2  7  1 -1</clus>
<clus scale="  296.688">  1  9  2 -1</clus>
<clus scale="  296.688">  1  5  2 -1</clus>
</clustering>
</event>
<event>
 9    1  0.1464797E-005  0.1146296E+03  0.7546771E-02  0.1252392E+00
          1   -1    0    0  502    0 -0.00000000000E+00  0.00000000000E+00  0.25049928528E+03  0.25049928528E+03  0.00000000000E+00 0. -1.
         21   -1    0    0  501  502  0.00000000000E+00 -0.00000000000E+00 -0.10318645167E+03  0.10318645167E+03  0.00000000000E+00 0.  1.
         23    2    1    2    0    0  0.34516597314E+02  0.47323809100E+02  0.11963362723E+03  0.16061363735E+03  0.89741837177E+02 0.  0.
         23    2    1    2    0    0 -0.75505704438E+02 -0.76873888194E+02  0.19299316935E+02  0.14185162885E+03  0.90214826295E+02 0.  0.
        -11    1    3    3    0    0  0.38523637868E+01 -0.21946051547E+02  0.44028548700E+01  0.22712441883E+02  0.00000000000E+00 0.  1.
         11    1    3    3    0    0  0.30664233527E+02  0.69269860647E+02  0.11523077236E+03  0.13790119547E+03  0.00000000000E+00 0. -1.
        -11    1    4    4    0    0 -0.74766810054E+02 -0.44724567472E+02  0.47368034580E+02  0.99166998145E+02  0.00000000000E+00 0. -1.
         11    1    4    4    0    0 -0.73889438461E+00 -0.32149320722E+02 -0.28068717646E+02  0.42684630701E+02  0.00000000000E+00 0.  1.
          1    1    1    2  501    0  0.40989107124E+02  0.29550079094E+02  0.83798894423E+01  0.51220470755E+02  0.00000000000E+00 0. -1.
<scales pt_clust_5="13000.00000" pt_clust_6="13000.00000" pt_clust_7="13000.00000" pt_clust_8="13000.00000" pt_clust_9="50.53033"></scales>
<clustering>
<clus scale="   50.530">  2  9  1 -1</clus>
<clus scale="   89.742">  5  6 -1 -1</clus>
<clus scale="   90.215">  7  8 -1 -1</clus>
<clus scale="  114.258">  1  5  2 -1</clus>
<clus scale="   50.530">  2  5  1 -1</clus>
</clustering>
</event>
<event>
 9    1  0.1464797E-005  0.1566497E+03  0.7546771E-02  0.1192590E+00
         21   -1    0    0  501  502  0.00000000000E+00  0.00000000000E+00  0.45504953301E+03  0.45504953301E+03  0.00000000000E+00 0. -1.
          3   -1    0    0  502    0 -0.00000000000E+00 -0.00000000000E+00 -0.15990525916E+03  0.15990525916E+03  0.00000000000E+00 0. -1.
         23    2    1    2    0    0 -0.29790650456E+02  0.14857129745E+03 -0.50494636727E+02  0.18351087547E+03  0.90363819071E+02 0.  0.
         23    2    1    2    0    0  0.56037768449E+02 -0.75904609992E+02  0.75951046282E+02  0.15090710484E+03  0.90014729615E+02 0.  0.
        -13    1    3    3    0    0  0.14542618516E+02  0.52541090929E+02 -0.55270980716E+02  0.77633338835E+02  0.00000000000E+00 0. -1.
         13    1    3    3    0    0 -0.44333268971E+02  0.96030206518E+02  0.47763439893E+01  0.10587753663E+03  0.00000000000E+00 0.  1.
        -13    1    4    4    0    0  0.58933758815E+02 -0.14457829994E+02  0.11406892659E+02  0.61744100741E+02  0.00000000000E+00 0.  1.
         13    1    4    4    0    0 -0.28959903651E+01 -0.61446779998E+02  0.64544153623E+02  0.89163004095E+02  0.00000000000E+00 0. -1.
          3    1    1    2  501    0 -0.26247117994E+02 -0.72666687456E+02  0.26968786429E+03  0.28053681187E+03  0.00000000000E+00 0. -1.
<scales pt_clust_5="13000.00000" pt_clust_6="13000.00000" pt_clust_7="13000.00000" pt_clust_8="13000.00000" pt_clust_9="77.26162"></scales>
<clustering>
<clus scale="   77.262">  1  9  2 -1</clus>
<clus scale="   90.015">  7  8 -1 -1</clus>
<clus scale="   90.364">  5  6 -1 -1</clus>
<clus scale="  156.449">  1  7  2 -1</clus>
<clus scale="   77.262">  1  5  2 -1</clus>
</clustering>
</event>
<event>
 9    1  0.1464797E-005  0.1183178E+03  0.7546771E-02  0.1246386E+00
         21   -1    0    0  501  502  0.00000000000E+00  0.00000000000E+00  0.65536823231E+02  0.65536823231E+02  0.00000000000E+00 0. -1.
         -1   -1    0    0    0  501 -0.00000000000E+00 -0.00000000000E+00 -0.36924595682E+03  0.36924595682E+03  0.00000000000E+00 0.  1.
         23    2    1    2    0    0 -0.14389958998E+02  0.66495958285E+02 -0.94436849997E+02  0.14761392997E+03  0.90789703692E+02 0.  0.
         23    2    1    2    0    0  0.69138339386E+02 -0.63404149021E+02 -0.95617922369E+02  0.16097749433E+03  0.89279171801E+02 0.  0.
        -11    1    4    4    0    0  0.65073707815E+02 -0.15973866927E+02 -0.17095626285E+02  0.69152095496E+02  0.00000000000E+00 0. -1.
         11    1    4    4    0    0  0.40646315708E+01 -0.47430282094E+02 -0.78522296083E+02  0.91825398837E+02  0.00000000000E+00 0.  1.
        -13    1    3    3    0    0  0.25177986030E+02  0.32348405524E+02 -0.15368971006E+01  0.41020877284E+02  0.00000000000E+00 0. -1.
         13    1    3    3    0    0 -0.39567945028E+02  0.34147552761E+02 -0.92899952897E+02  0.10659305269E+03  0.00000000000E+00 0.  1.
         -1    1    1    2    0  502 -0.54748380388E+02 -0.30918092637E+01 -0.11365436122E+03  0.12619135574E+03  0.00000000000E+00 0.  1.
<scales pt_clust_5="13000.00000" pt_clust_6="13000.00000" pt_clust_7="13000.00000" pt_clust_8="13000.00000" pt_clust_9="54.83564"></scales>
<clustering>
<clus scale="   54.836">  1  9  2 -1</clus>
<clus scale="   89.279">  5  6 -1 -1</clus>
<clus scale="   90.790">  7  8 -1 -1</clus>
<clus scale="  117.163">  1  5  2 -1</clus>
<clus scale="   54.836">  1  5  2 -1</clus>
</clustering>
</event>
<event>
 9    1  0.1464797E-005  0.1654538E+03  0.7546771E-02  0.1182684E+00
         -1   -1    0    0    0  501 -0.00000000000E+00  0.00000000000E+00  0.22208288148E+03  0.22208288148E+03  0.00000000000E+00 0.  1.
         21   -1    0    0  501  502  0.00000000000E+00 -0.00000000000E+00 -0.15197774741E+03  0.15197774741E+03  0.00000000000E+00 0. -1.
         23    2    1    2    0    0  0.12250076464E+03 -0.44203551664E+02  0.48111431203E+02  0.16606211641E+03  0.91112706994E+02 0.  0.
         23    2    1    2    0    0 -0.14382577456E+03  0.34063755701E+02  0.40192418123E+02  0.17818635477E+03  0.91042592629E+02 0.  0.
        -11    1    4    4    0    0 -0.22233508189E+02  0.12283653135E+02  0.48111469624E+02  0.54405243590E+02  0.00000000000E+00 0.  1.
         11    1    4    4    0    0 -0.12159226637E+03  0.21780102566E+02 -0.79190515011E+01  0.12378111118E+03  0.00000000000E+00 0. -1.
        -11    1    3    3    0    0  0.25507032745E+02 -0.23428784821E+02  0.56759963293E+02  0.66492180824E+02  0.00000000000E+00 0. -1.
         11    1    3    3    0    0  0.96993731899E+02 -0.20774766843E+02 -0.86485320909E+01  0.99569935585E+02  0.00000000000E+00 0.  1.
         -1    1    1    2    0  502  0.21325009917E+02  0.10139795964E+02 -0.18198715250E+02  0.29812157703E+02  0.00000000000E+00 0.  1.
<scales pt_clust_5="13000.00000" pt_clust_6="13000.00000" pt_clust_7="13000.00000" pt_clust_8="13000.00000" pt_clust_9="23.61295"></scales>
<clustering>
<clus scale="   23.613">  2  9  1 -1</clus>
<clus scale="   91.043">  5  6 -1 -1</clus>
<clus scale="   91.113">  7  8 -1 -1</clus>
<clus scale="  165.415">  2  5  1 -1</clus>
<clus scale="   23.613">  2  5  1 -1</clus>
</clustering>
</event>
<event>
 9    1  0.1464797E-005  0.1016913E+03  0.7546771E-02  0.1278608E+00
         21   -1    0    0  501  502  0.00000000000E+00  0.00000000000E+00  0.54131771688E+03  0.54131771688E+03  0.00000000000E+00 0. -1.
         -1   -1    0    0    0  501 -0.00000000000E+00 -0.00000000000E+00 -0.39875229581E+02  0.39875229581E+02  0.00000000000E+00 0.  1.
         23    2    1    2    0    0 -0.76098447367E+01  0.37116545120E+02  0.49639473720E+02  0.11079351261E+03  0.91518180851E+02 0.  0.
         23    2    1    2    0    0  0.29270547681E+02 -0.18983126263E+02  0.32388290163E+03  0.33939728894E+03  0.95253670405E+02 0.  0.
        -13    1    4    4    0    0 -0.60241508682E+01  0.21492458159E+02  0.17553432159E+02  0.28396111212E+02  0.00000000000E+00 0.  1.
         13    1    4    4    0    0  0.35294698549E+02 -0.40475584423E+02  0.30632946947E+03  0.31100117772E+03  0.00000000000E+00 0. -1.
        -13    1    3    3    0    0  0.39333018529E+02  0.55093351741E+01  0.79529058175E+01  0.40505404968E+02  0.00000000000E+00 0.  1.
         13    1    3    3    0    0 -0.46942863266E+02  0.31607209946E+02  0.41686567903E+02  0.70288107640E+02  0.00000000000E+00 0. -1.
         -1    1    1    2    0  502 -0.21660702944E+02 -0.18133418857E+02  0.12792011195E+03  0.13100214492E+03  0.00000000000E+00 0.  1.
<scales pt_clust_5="13000.00000" pt_clust_6="13000.00000" pt_clust_7="13000.00000" pt_clust_8="13000.00000" pt_clust_9="28.24902"></scales>
<clustering>
<clus scale="   28.249">  1  9  2 -1</clus>
<clus scale="   91.518">  7  8 -1 -1</clus>
<clus scale="   95.254">  5  6 -1 -1</clus>
<clus scale="   98.201">  2  7  1 -1</clus>
<clus scale="   28.249">  1  5  2 -1</clus>
</clustering>
</event>
<event>
 9    1  0.1464797E-005  0.9525846E+02  0.7546771E-02  0.1293062E+00
         -4   -1    0    0    0  501 -0.00000000000E+00  0.00000000000E+00  0.56084824925E+03  0.56084824925E+03  0.00000000000E+00 0.  1.
         21   -1    0    0  501  502  0.00000000000E+00 -0.00000000000E+00 -0.41746028853E+02  0.41746028853E+02  0.00000000000E+00 0. -1.
         23    2    1    2    0    0  0.74247936907E+01 -0.76083275946E+01  0.38122340429E+03  0.39159503627E+03  0.88895299339E+02 0.  0.
         23    2    1    2    0    0 -0.37401517026E+02  0.45795590875E+02  0.10481860630E+03  0.15226383095E+03  0.93280353611E+02 0.  0.
        -13    1    4    4    0    0  0.15572890523E+02  0.14200545566E+02  0.84854388454E+02  0.87432474822E+02  0.00000000000E+00 0.  1.
         13    1    4    4    0    0 -0.52974407549E+02  0.31595045309E+02  0.19964217845E+02  0.64831356129E+02  0.00000000000E+00 0. -1.
        -13    1    3    3    0    0  0.47176207504E+02  0.51370933843E+01  0.21945874115E+03  0.22453089621E+03  0.00000000000E+00 0.  1.
         13    1    3    3    0    0 -0.39751413813E+02 -0.12745420979E+02  0.16176466313E+03  0.16706414006E+03  0.00000000000E+00 0. -1.
         -4    1    1    2    0  502  0.29976723336E+02 -0.38187263281E+02  0.33060209811E+02  0.58735410883E+02  0.00000000000E+00 0.  1.
<scales pt_clust_5="13000.00000" pt_clust_6="13000.00000" pt_clust_7="13000.00000" pt_clust_8="13000.00000" pt_clust_9="48.54762"></scales>
<clustering>
<clus scale="   48.548">  2  9  1 -1</clus>
<clus scale="   88.895">  7  8 -1 -1</clus>
<clus scale="   90.969">  1  7  2 -1</clus>
<clus scale="   93.280">  5  6 -1 -1</clus>
<clus scale="   48.548">  2  5  1 -1</clus>
</clustering>
</event>
<event>
 9    1  0.1464797E-005  0.1229669E+03  0.7546771E-02  0.1239009E+00
         21   -1    0    0  501  502  0.00000000000E+00  0.00000000000E+00  0.43762145854E+03  0.43762145854E+03  0.00000000000E+00 0. -1.
          1   -1    0    0  502    0 -0.00000000000E+00 -0.00000000000E+00 -0.29212567863E+03  0.29212567863E+03  0.00000000000E+00 0. -1.
         23    2    1    2    0    0 -0.65274560136E+02  0.48819534142E+02 -0.26127216680E+03  0.28878299514E+03  0.92132285426E+02 0.  0.
         23    2    1    2    0    0  0.45853172557E+02 -0.72066257786E+02  0.22639249382E+03  0.25806279032E+03  0.89703865823E+02 0.  0.
        -11    1    3    3    0    0 -0.88061844428E+02  0.32972516538E+02 -0.21744824983E+03  0.23690887836E+03  0.00000000000E+00 0. -1.
         11    1    3    3    0    0  0.22787284293E+02  0.15847017604E+02 -0.43823916974E+02  0.51874116776E+02  0.00000000000E+00 0.  1.
        -11    1    4    4    0    0  0.21515025285E+02 -0.72959981060E+02  0.22015025988E+03  0.23292099964E+03  0.00000000000E+00 0. -1.
         11    1    4    4    0    0  0.24338147272E+02  0.89372327382E+00  0.62422339440E+01  0.25141790678E+02  0.00000000000E+00 0.  1.
          1    1    1    2  501    0  0.19421387579E+02  0.23246723644E+02  0.18037545289E+03  0.18290135172E+03  0.00000000000E+00 0. -1.
<scales pt_clust_5="13000.00000" pt_clust_6="13000.00000" pt_clust_7="13000.00000" pt_clust_8="13000.00000" pt_clust_9="30.29192"></scales>
<clustering>
<clus scale="   30.292">  1  9  2 -1</clus>
<clus scale="   89.704">  7  8 -1 -1</clus>
<clus scale="   92.132">  5  6 -1 -1</clus>
<clus scale="  121.158">  1  7  2 -1</clus>
<clus scale="   30.292">  1  5  2 -1</clus>
</clustering>
</event>
<event>
 9    1  0.1464797E-005  0.2547025E+03  0.7546771E-02  0.1129446E+00
          1   -1    0    0  502    0 -0.00000000000E+00  0.00000000000E+00  0.12115885920E+04  0.12115885920E+04  0.00000000000E+00 0. -1.
         21   -1    0    0  501  502  0.00000000000E+00 -0.00000000000E+00 -0.15768406268E+03  0.15768406268E+03  0.00000000000E+00 0. -1.
         23    2    1    2    0    0 -0.12710403555E+03  0.21180101485E+02  0.76210189966E+03  0.77831650431E+03  0.91505425365E+02 0.  0.
         23    2    1    2    0    0  0.28252155224E+03  0.64495146140E+02  0.79286010198E+02  0.31408403892E+03  0.91566701023E+02 0.  0.
        -13    1    3    3    0    0 -0.10009059464E+03  0.53300991275E+02  0.61394325485E+03  0.62432799312E+03  0.00000000000E+00 0.  1.
         13    1    3    3    0    0 -0.27013440914E+02 -0.32120889790E+02  0.14815864480E+03  0.15398851120E+03  0.00000000000E+00 0. -1.
        -13    1    4    4    0    0  0.24149943072E+03  0.33019461204E+02  0.35477945760E+02  0.24631472650E+03  0.00000000000E+00 0. -1.
         13    1    4    4    0    0  0.41022121524E+02  0.31475684935E+02  0.43808064438E+02  0.67769312423E+02  0.00000000000E+00 0.  1.
          1    1    1    2  501    0 -0.15541751669E+03 -0.85675247625E+02  0.21251661947E+03  0.27687211145E+03  0.00000000000E+00 0. -1.
<scales pt_clust_5="13000.00000" pt_clust_6="13000.00000" pt_clust_7="13000.00000" pt_clust_8="13000.00000" pt_clust_9="237.67402"></scales>
<clustering>
<clus scale="   91.505">  5  6 -1 -1</clus>
<clus scale="   91.567">  7  8 -1 -1</clus>
<clus scale="  158.042">  1  5  2 -1</clus>
<clus scale="  237.674">  2  9  1 -1</clus>
<clus scale="  237.674">  2  5  1 -1</clus>
</clustering>
</event>
<event>
 9    1  0.1464797E-005  0.1008072E+03  0.7546771E-02  0.1280543E+00
         21   -1    0    0  501  502  0.00000000000E+00  0.00000000000E+00  0.95550053556E+02  0.95550053556E+02  0.00000000000E+00 0. -1.
          2   -1    0    0  502    0 -0.00000000000E+00 -0.00000000000E+00 -0.25366899629E+03  0.25366899629E+03  0.00000000000E+00 0. -1.
         23    2    1    2    0    0  0.35658588563E+02  0.17291146428E+02 -0.15149917160E+03  0.18354053555E+03  0.95731972254E+02 0.  0.
         23    2    1    2    0    0 -0.30328871946E+01 -0.26595346333E+02 -0.52078807149E+02  0.10895525204E+03  0.91883262577E+02 0.  0.
        -11    1    4    4    0    0 -0.42351319331E+02 -0.48633650719E+01 -0.47459000518E+02  0.63793755956E+02  0.00000000000E+00 0.  1.
         11    1    4    4    0    0  0.39318432136E+02 -0.21731981261E+02 -0.46198066314E+01  0.45161496084E+02  0.00000000000E+00 0. -1.
        -11    1    3    3    0    0 -0.66664336190E+01  0.19552879797E+02  0.51235359190E+01  0.21283962645E+02  0.00000000000E+00 0.  1.
         11    1    3    3    0    0  0.42325022182E+02 -0.22617333689E+01 -0.15662270752E+03  0.16225657290E+03  0.00000000000E+00 0. -1.
          2    1    1    2  501    0 -0.32625701369E+02  0.93041999052E+01  0.45459036013E+02  0.56723262256E+02  0.00000000000E+00 0. -1.
<scales pt_clust_5="13000.00000" pt_clust_6="13000.00000" pt_clust_7="13000.00000" pt_clust_8="13000.00000" pt_clust_9="33.92646"></scales>
<clustering>
<clus scale="   33.926">  1  9  2 -1</clus>
<clus scale="   91.883">  5  6 -1 -1</clus>
<clus scale="   95.732">  7  8 -1 -1</clus>
<clus scale="   97.160">  1  5  2 -1</clus>
<clus scale="   33.926">  1  5  2 -1</clus>
</clustering>
</event>
<event>
 9    1  0.1464797E-005  0.2715873E+03  0.7546771E-02  0.1100406E+00
         21   -1    0    0  501  502  0.00000000000E+00  0.00000000000E+00  0.17321460140E+03  0.17321460140E+03  0.00000000000E+00 0.  1.
          2   -1    0    0  502    0 -0.00000000000E+00 -0.00000000000E+00 -0.52369697847E+03  0.52369697847E+03  0.00000000000E+00 0. -1.
         23    2    1    2    0    0  0.22140059890E+03 -0.12367606358E+03 -0.28454749862E+03  0.39200829083E+03  0.91592724668E+02 0.  0.
         23    2    1    2    0    0 -0.21650339297E+03  0.14488221812E+03 -0.61408581039E+02  0.28267333212E+03  0.90931966716E+02 0.  0.
        -11    1    4    4    0    0 -0.21268710937E+03  0.10871922443E+03 -0.59992809539E+02  0.24628197955E+03  0.00000000000E+00 0.  1.
         11    1    4    4    0    0 -0.38162835961E+01  0.36162993684E+02 -0.14157715006E+01  0.36391352566E+02  0.00000000000E+00 0. -1.
        -11    1    3    3    0    0  0.17067142293E+03 -0.76740479940E+02 -0.14660144512E+03  0.23771794122E+03  0.00000000000E+00 0.  1.
         11    1    3    3    0    0  0.50729175971E+02 -0.46935583636E+02 -0.13794605350E+03  0.15429034961E+03  0.00000000000E+00 0. -1.
          2    1    1    2  501    0 -0.48972059339E+01 -0.21206154540E+02 -0.45262974126E+01  0.22229956918E+02  0.00000000000E+00 0. -1.
<scales pt_clust_5="13000.00000" pt_clust_6="13000.00000" pt_clust_7="13000.00000" pt_clust_8="13000.00000" pt_clust_9="21.76427"></scales>
<clustering>
<clus scale="   21.764">  1  9  2 -1</clus>
<clus scale="   90.932">  5  6 -1 -1</clus>
<clus scale="   91.593">  7  8 -1 -1</clus>
<clus scale="  271.365">  1  5  2 -1</clus>
<clus scale="   21.764">  1  5  2 -1</clus>
</clustering>
</event>
<event>
 9    1  0.1464797E-005  0.9930106E+02  0.7546771E-02  0.1285829E+00
         -1   -1    0    0    0  501 -0.00000000000E+00  0.00000000000E+00  0.57875576671E+03  0.57875576671E+03  0.00000000000E+00 0.  1.
         21   -1    0    0  501  502  0.00000000000E+00 -0.00000000000E+00 -0.43705464266E+02  0.43705464266E+02  0.00000000000E+00 0. -1.
         23    2    1    2    0    0 -0.59207204666E+01  0.15266382383E+02  0.30748344036E+03  0.32090276092E+03  0.90357061209E+02 0.  0.
         23    2    1    2    0    0 -0.70411585659E+02 -0.31868566222E+01  0.14085980745E+03  0.18540921597E+03  0.97811781302E+02 0.  0.
        -11    1    3    3    0    0  0.28795098808E+02  0.36847445515E+02  0.11534698966E+03  0.12446613989E+03  0.00000000000E+00 0.  1.
         11    1    3    3    0    0 -0.34715819274E+02 -0.21581063132E+02  0.19213645070E+03  0.19643662103E+03  0.00000000000E+00 0. -1.
        -13    1    4    4    0    0 -0.89561850574E+02  0.72151813867E+01  0.78367788353E+02  0.11922623106E+03  0.00000000000E+00 0. -1.
         13    1    4    4    0    0  0.19150264915E+02 -0.10402038009E+02  0.62492019100E+02  0.66182984915E+02  0.00000000000E+00 0.  1.
         -1    1    1    2    0  502  0.76332306126E+02 -0.12079525761E+02  0.86707054631E+02  0.11614925408E+03  0.00000000000E+00 0.  1.
<scales pt_clust_5="13000.00000" pt_clust_6="13000.00000" pt_clust_7="13000.00000" pt_clust_8="13000.00000" pt_clust_9="77.28218"></scales>
<clustering>
<clus scale="   77.282">  2  9  1 -1</clus>
<clus scale="   90.357">  5  6 -1 -1</clus>
<clus scale="   91.967">  1  5  2 -1</clus>
<clus scale="   97.812">  7  8 -1 -1</clus>
<clus scale="   77.282">  2  5  1 -1</clus>
</clustering>
</event>
<event>
 9    1  0.1464797E-005  0.9504763E+02  0.7546771E-02  0.1291832E+00
         21   -1    0    0  501  502  0.00000000000E+00  0.00000000000E+00  0.55930360746E+02  0.55930360746E+02  0.00000000000E+00 0. -1.
         -2   -1    0    0    0  501 -0.00000000000E+00 -0.00000000000E+00 -0.37366407551E+03  0.37366407551E+03  0.00000000000E+00 0.  1.
         23    2    1    2    0    0 -0.13584373739E+02 -0.27970003808E+02 -0.24718726466E+03  0.26534194370E+03  0.91312359268E+02 0.  0.
         23    2    1    2    0    0  0.24996941883E+02  0.27397644529E+01 -0.90575338744E+02  0.13007694473E+03  0.89909766698E+02 0.  0.
        -11    1    3    3    0    0 -0.25903249824E+02 -0.57107794660E+02 -0.13635309210E+03  0.15008145884E+03  0.00000000000E+00 0.  1.
         11    1    3    3    0    0  0.12318876085E+02  0.29137790852E+02 -0.11083417256E+03  0.11526048486E+03  0.00000000000E+00 0. -1.
        -13    1    4    4    0    0 -0.97934750602E+01 -0.19001477664E+02  0.83752221041E+01  0.22958934045E+02  0.00000000000E+00 0. -1.
         13    1    4    4    0    0  0.34790416944E+02  0.21741242117E+02 -0.98950560848E+02  0.10711801068E+03  0.00000000000E+00 0.  1.
         -2    1    1    2    0  502 -0.11412568144E+02  0.25230239355E+02  0.20028888637E+02  0.34175547832E+02  0.00000000000E+00 0.  1.
<scales pt_clust_5="13000.00000" pt_clust_6="13000.00000" pt_clust_7="13000.00000" pt_clust_8="13000.00000" pt_clust_9="27.69136"></scales>
<clustering>
<clus scale="   27.691">  1  9  2 -1</clus>
<clus scale="   89.910">  7  8 -1 -1</clus>
<clus scale="   91.312">  5  6 -1 -1</clus>
<clus scale="   93.701">  1  7  2 -1</clus>
<clus scale="   27.691">  1  5  2 -1</clus>
</clustering>
</event>
<event>
 9    1  0.1464797E-005  0.1142796E+03  0.7546771E-02  0.1256319E+00
         21   -1    0    0  501  502  0.00000000000E+00  0.00000000000E+00  0.44875954976E+02  0.44875954976E+02  0.00000000000E+00 0. -1.
         -3   -1    0    0    0  501 -0.00000000000E+00 -0.00000000000E+00 -0.50942600064E+03  0.50942600064E+03  0.00000000000E+00 0.  1.
         23    2    1    2    0    0 -0.68628224839E+02 -0.32589731076E+02 -0.34182011416E+03  0.36185865771E+03  0.91262116465E+02 0.  0.
         23    2    1    2    0    0  0.29779723425E+02  0.54095028113E+02 -0.97846550602E+02  0.14154274282E+03  0.81530954775E+02 0.  0.
        -13    1    3    3    0    0  0.11612338344E+02  0.19747997570E+02 -0.69568217048E+02  0.73243201958E+02  0.00000000000E+00 0.  1.
         13    1    3    3    0    0 -0.80240563183E+02 -0.52337728646E+02 -0.27225189711E+03  0.28861545575E+03  0.00000000000E+00 0. -1.
        -13    1    4    4    0    0  0.45069309066E+02  0.67684649514E+02 -0.72258247551E+02  0.10878285131E+03  0.00000000000E+00 0.  1.
         13    1    4    4    0    0 -0.15289585641E+02 -0.13589621401E+02 -0.25588303051E+02  0.32759891512E+02  0.00000000000E+00 0. -1.
         -3    1    1    2    0  502  0.38848501414E+02 -0.21505297038E+02 -0.24883380906E+02  0.50900555086E+02  0.00000000000E+00 0.  1.
<scales pt_clust_5="13000.00000" pt_clust_6="13000.00000" pt_clust_7="13000.00000" pt_clust_8="13000.00000" pt_clust_9="44.40365"></scales>
<clustering>
<clus scale="   44.404">  1  9  2 -1</clus>
<clus scale="   81.531">  7  8 -1 -1</clus>
<clus scale="   91.262">  5  6 -1 -1</clus>
<clus scale="  106.669">  1  7  2 -1</clus>
<clus scale="   44.404">  1  5  2 -1</clus>
</clustering>
</event>
<event>
 9    1  0.1464797E-005  0.3738007E+03  0.7546771E-02  0.1053879E+00
         21   -1    0    0  501  502  0.00000000000E+00  0.00000000000E+00  0.65031168838E+03  0.65031168838E+03  0.00000000000E+00 0.  1.
         -1   -1    0    0    0  501 -0.00000000000E+00 -0.00000000000E+00 -0.32332755066E+03  0.32332755066E+03  0.00000000000E+00 0.  1.
         23    2    1    2    0    0  0.20908612559E+03 -0.29536347262E+03 -0.30709776839E+02  0.37863293752E+03  0.10706643781E+03 0.  0.
         23    2    1    2    0    0 -0.23538554875E+03  0.26369755973E+03  0.16578494498E+03  0.39873240538E+03  0.80994589642E+02 0.  0.
        -11    1    4    4    0    0 -0.19852237764E+03  0.17873310244E+03  0.10044549881E+03  0.28538737632E+03  0.00000000000E+00 0.  1.
         11    1    4    4    0    0 -0.36863171108E+02  0.84964457288E+02  0.65339446173E+02  0.11334502906E+03  0.00000000000E+00 0. -1.
        -13    1    3    3    0    0  0.14714014766E+03 -0.11694284677E+03 -0.49576333997E+01  0.18801710187E+03  0.00000000000E+00 0. -1.
         13    1    3    3    0    0  0.61945977933E+02 -0.17842062585E+03 -0.25752143440E+02  0.19061583565E+03  0.00000000000E+00 0.  1.
         -1    1    1    2    0  502  0.26299423156E+02  0.31665912888E+02  0.19190896958E+03  0.19627389613E+03  0.00000000000E+00 0.  1.
<scales pt_clust_5="13000.00000" pt_clust_6="13000.00000" pt_clust_7="13000.00000" pt_clust_8="13000.00000" pt_clust_9="41.16297"></scales>
<clustering>
<clus scale="   41.163">  1  9  2 -1</clus>
<clus scale="   80.995">  5  6 -1 -1</clus>
<clus scale="  107.066">  7  8 -1 -1</clus>
<clus scale="  367.184">  1  5  2 -1</clus>
<clus scale="   41.163">  1  5  2 -1</clus>
</clustering>
</event>
<event>
 9    1  0.1760428E-005  0.1026733E+03  0.7546771E-02  0.1275728E+00
          1   -1    0    0  502    0 -0.00000000000E+00  0.00000000000E+00  0.33053821495E+03  0.33053821495E+03  0.00000000000E+00 0. -1.
         21   -1    0    0  501  502  0.00000000000E+00 -0.00000000000E+00 -0.12698765700E+03  0.12698765700E+03  0.00000000000E+00 0.  1.
         23    2    1    2    0    0  0.39878561464E+02 -0.95703657441E+01  0.28034905826E+03  0.29841970002E+03  0.93684744371E+02 0.  0.
         23    2    1    2    0    0 -0.55090063503E+02 -0.14385504060E+02 -0.46163553656E+02  0.11734765843E+03  0.91638100310E+02 0.  0.
        -13    1    4    4    0    0 -0.78703487822E+02 -0.12020012228E+01 -0.23735755599E+02  0.82213562726E+02  0.00000000000E+00 0.  1.
         13    1    4    4    0    0  0.23613424318E+02 -0.13183502837E+02 -0.22427798057E+02  0.35134095701E+02  0.00000000000E+00 0. -1.
        -13    1    3    3    0    0 -0.11276968599E+02  0.24932424173E+02  0.30115209524E+02  0.40690559600E+02  0.00000000000E+00 0.  1.
         13    1    3    3    0    0  0.51155530063E+02 -0.34502789917E+02  0.25023384874E+03  0.25772914042E+03  0.00000000000E+00 0. -1.
          1    1    1    2  501    0  0.15211502039E+02  0.23955869804E+02 -0.30634946666E+02  0.41758513498E+02  0.00000000000E+00 0. -1.
<scales pt_clust_5="13000.00000" pt_clust_6="13000.00000" pt_clust_7="13000.00000" pt_clust_8="13000.00000" pt_clust_9="28.37734"></scales>
<clustering>
<clus scale="   28.377">  2  9  1 -1</clus>
<clus scale="   91.638">  5  6 -1 -1</clus>
<clus scale="   93.685">  7  8 -1 -1</clus>
<clus scale="  100.809">  2  5  1 -1</clus>
<clus scale="   28.377">  2  5  1 -1</clus>
</clustering>
</event>
<event>
 9    1  0.1464797E-005  0.1017772E+03  0.7546771E-02  0.1277303E+00
         21   -1    0    0  501  502  0.00000000000E+00  0.00000000000E+00  0.36041146300E+02  0.36041146300E+02  0.00000000000E+00 0. -1.
          1   -1    0    0  502    0 -0.00000000000E+00 -0.00000000000E+00 -0.51348708396E+03  0.51348708396E+03  0.00000000000E+00 0. -1.
         23    2    1    2    0    0  0.26672158753E+02 -0.32348180128E+02 -0.28644522964E+03  0.30422390082E+03  0.93506702618E+02 0.  0.
         23    2    1    2    0    0 -0.39952643128E+02  0.12426007831E+02 -0.19628096538E+03  0.22078606416E+03  0.92030698112E+02 0.  0.
        -11    1    3    3    0    0  0.26234733482E+02  0.11959792980E+02 -0.22465787955E+02  0.36551463957E+02  0.00000000000E+00 0.  1.
         11    1    3    3    0    0  0.43742527090E+00 -0.44307973108E+02 -0.26397944169E+03  0.26767243686E+03  0.00000000000E+00 0. -1.
        -13    1    4    4    0    0 -0.35374512859E+02  0.47052306973E+02 -0.79682164807E+02  0.99068275143E+02  0.00000000000E+00 0.  1.
         13    1    4    4    0    0 -0.45781302685E+01 -0.34626299142E+02 -0.11659880057E+03  0.12171778902E+03  0.00000000000E+00 0. -1.
          1    1    1    2  501    0  0.13280484375E+02  0.19922172297E+02  0.52802573632E+01  0.24518265275E+02  0.00000000000E+00 0. -1.
<scales pt_clust_5="13000.00000" pt_clust_6="13000.00000" pt_clust_7="13000.00000" pt_clust_8="13000.00000" pt_clust_9="23.94294"></scales>
<clustering>
<clus scale="   23.943">  1  9  2 -1</clus>
<clus scale="   92.031">  7  8 -1 -1</clus>
<clus scale="   93.507">  5  6 -1 -1</clus>
<clus scale="  100.423">  1  7  2 -1</clus>
<clus scale="   23.943">  1  5  2 -1</clus>
</clustering>
</event>
<event>
 9    1  0.1464797E-005  0.9934367E+02  0.7546771E-02  0.1282411E+00
          1   -1    0    0  502    0 -0.00000000000E+00  0.00000000000E+00  0.16847601887E+03  0.16847601887E+03  0.00000000000E+00 0. -1.
         21   -1    0    0  501  502  0.00000000000E+00 -0.00000000000E+00 -0.16584747271E+03  0.16584747271E+03  0.00000000000E+00 0. -1.
         23    2    1    2    0    0  0.12287027184E+02 -0.21129023951E+02  0.58487830420E+02  0.11113020384E+03  0.91278087228E+02 0.  0.
         23    2    1    2    0    0 -0.75776587293E+02 -0.77140191678E+01  0.18300075717E+02  0.12139713825E+03  0.92740364083E+02 0.  0.
        -13    1    3    3    0    0 -0.31885189937E+02 -0.34624450390E+02  0.38473485884E+02  0.60792491462E+02  0.00000000000E+00 0.  1.
         13    1    3    3    0    0  0.44172217121E+02  0.13495426439E+02  0.20014344536E+02  0.50337712377E+02  0.00000000000E+00 0. -1.
        -13    1    4    4    0    0 -0.24730122095E+02  0.44274125253E+01  0.52888258770E+02  0.58552103602E+02  0.00000000000E+00 0.  1.
         13    1    4    4    0    0 -0.51046465199E+02 -0.12141431693E+02 -0.34588183053E+02  0.62845034647E+02  0.00000000000E+00 0. -1.
          1    1    1    2  501    0  0.63489560109E+02  0.28843043119E+02 -0.74159359977E+02  0.10179614949E+03  0.00000000000E+00 0. -1.
<scales pt_clust_5="13000.00000" pt_clust_6="13000.00000" pt_clust_7="13000.00000" pt_clust_8="13000.00000" pt_clust_9="69.73410"></scales>
<clustering>
<clus scale="   69.734">  2  9  1 -1</clus>
<clus scale="   91.278">  5  6 -1 -1</clus>
<clus scale="   92.740">  7  8 -1 -1</clus>
<clus scale="   97.980">  1  5  2 -1</clus>
<clus scale="   69.734">  2  5  1 -1</clus>
</clustering>
</event>
<event>
 9    1  0.1464797E-005  0.1239097E+03  0.7546771E-02  0.1238717E+00
         21   -1    0    0  501  502  0.00000000000E+00  0.00000000000E+00  0.30187615733E+03  0.30187615733E+03  0.00000000000E+00 0. -1.
          2   -1    0    0  502    0 -0.00000000000E+00 -0.00000000000E+00 -0.92303430382E+02  0.92303430382E+02  0.00000000000E+00 0. -1.
         23    2    1    2    0    0  0.38179413195E+02 -0.77924588879E+02  0.58537414686E+02  0.13916628963E+03  0.91709967327E+02 0.  0.
         23    2    1    2    0    0  0.23130043215E+02  0.68199845835E+02  0.14986474124E+03  0.19292634044E+03  0.97851491041E+02 0.  0.
        -11    1    3    3    0    0 -0.29111332368E+02 -0.35874793355E+02  0.14531339916E+02  0.48431707695E+02  0.00000000000E+00 0. -1.
         11    1    3    3    0    0  0.67290745564E+02 -0.42049795524E+02  0.44006074770E+02  0.90734581934E+02  0.00000000000E+00 0.  1.
        -13    1    4    4    0    0 -0.13264315938E+02 -0.16922042514E+02  0.60692595492E+02  0.64388576220E+02  0.00000000000E+00 0.  1.
         13    1    4    4    0    0  0.36394359153E+02  0.85121888349E+02  0.89172145748E+02  0.12853776422E+03  0.00000000000E+00 0. -1.
          2    1    1    2  501    0 -0.61309456410E+02  0.97247430434E+01  0.11705710245E+01  0.62086957641E+02  0.00000000000E+00 0. -1.
<scales pt_clust_5="13000.00000" pt_clust_6="13000.00000" pt_clust_7="13000.00000" pt_clust_8="13000.00000" pt_clust_9="62.07595"></scales>
<clustering>
<clus scale="   62.076">  1  9  2 -1</clus>
<clus scale="   91.710">  5  6 -1 -1</clus>
<clus scale="   97.851">  7  8 -1 -1</clus>
<clus scale="  119.119">  2  5  1 -1</clus>
<clus scale="   62.076">  1  5  2 -1</clus>
</clustering>
</event>
<event>
 9    1  0.1464797E-005  0.1127097E+03  0.7546771E-02  0.1264102E+00
         21   -1    0    0  501  502  0.00000000000E+00  0.00000000000E+00  0.12495802518E+03  0.12495802518E+03  0.00000000000E+00 0.  1.
          1   -1    0    0  502    0 -0.00000000000E+00 -0.00000000000E+00 -0.20588358107E+03  0.20588358107E+03  0.00000000000E+00 0. -1.
         23    2    1    2    0    0 -0.31857469115E+02 -0.99015023481E+01 -0.12269989093E+03  0.16804676149E+03  0.10987043609E+03 0.  0.
         23    2    1    2    0    0  0.10120623213E+02  0.69143565710E+01 -0.21929717850E+02  0.95418143569E+02  0.92051476121E+02 0.  0.
        -13    1    3    3    0    0 -0.60536791842E+01 -0.44588803917E+02 -0.83085762470E+01  0.45758506375E+02  0.00000000000E+00 0.  1.
         13    1    3    3    0    0 -0.25803789931E+02  0.34687301569E+02 -0.11439131468E+03  0.12228825512E+03  0.00000000000E+00 0. -1.
        -13    1    4    4    0    0  0.48783275375E+02  0.36638479823E+01 -0.27659056254E+02  0.56198355236E+02  0.00000000000E+00 0.  1.
         13    1    4    4    0    0 -0.38662652162E+02  0.32505085887E+01  0.57293384038E+01  0.39219788333E+02  0.00000000000E+00 0. -1.
          1    1    1    2  501    0  0.21736845902E+02  0.29871457771E+01  0.63704052889E+02  0.67376701197E+02  0.00000000000E+00 0. -1.
<scales pt_clust_5="13000.00000" pt_clust_6="13000.00000" pt_clust_7="13000.00000" pt_clust_8="13000.00000" pt_clust_9="21.94114"></scales>
<clustering>
<clus scale="   21.941">  1  9  2 -1</clus>
<clus scale="   92.051">  7  8 -1 -1</clus>
<clus scale="   95.422">  1  7  2 -1</clus>
<clus scale="  109.870">  5  6 -1 -1</clus>
<clus scale="   21.941">  1  5  2 -1</clus>
</clustering>
</event>
<event>
 9    1  0.1464797E-005  0.9590065E+02  0.7546771E-02  0.1290270E+00
         21   -1    0    0  501  502  0.00000000000E+00  0.00000000000E+00  0.50415433495E+02  0.50415433495E+02  0.00000000000E+00 0.  1.
         -2   -1    0    0    0  501 -0.00000000000E+00 -0.00000000000E+00 -0.44180603680E+03  0.44180603680E+03  0.00000000000E+00 0.  1.
         23    2    1    2    0    0 -0.22691099174E+02 -0.14576238018E+02 -0.14970306056E+03  0.17615622173E+03  0.88840618059E+02 0.  0.
         23    2    1    2    0    0  0.25826324120E+02 -0.70649282574E+02 -0.14982799929E+03  0.19072014607E+03  0.90925379294E+02 0.  0.
        -13    1    3    3    0    0 -0.55842481958E+02 -0.18059504648E+02 -0.10634968391E+03  0.12146927088E+03  0.00000000000E+00 0.  1.
         13    1    3    3    0    0  0.33151382784E+02  0.34832666306E+01 -0.43353376653E+02  0.54686950858E+02  0.00000000000E+00 0. -1.
        -13    1    4    4    0    0 -0.32731800500E+02 -0.13760990194E+02 -0.35268400685E+02  0.50045935919E+02  0.00000000000E+00 0.  1.
         13    1    4    4    0    0  0.58558124621E+02 -0.56888292380E+02 -0.11455959860E+03  0.14067421015E+03  0.00000000000E+00 0. -1.
         -2    1    1    2    0  502 -0.31352249466E+01  0.85225520591E+02 -0.91859543452E+02  0.12534510249E+03  0.00000000000E+00 0.  1.
<scales pt_clust_5="13000.00000" pt_clust_6="13000.00000" pt_clust_7="13000.00000" pt_clust_8="13000.00000" pt_clust_9="85.28317"></scales>
<clustering>
<clus scale="   85.283">  1  9  2 -1</clus>
<clus scale="   88.841">  5  6 -1 -1</clus>
<clus scale="   90.925">  7  8 -1 -1</clus>
<clus scale="   93.926">  2  5  1 -1</clus>
<clus scale="   85.283">  1  5  2 -1</clus>
</clustering>
</event>
<event>
 9    1  0.1464797E-005  0.1175307E+03  0.7546771E-02  0.1248284E+00
         21   -1    0    0  501  502  0.00000000000E+00  0.00000000000E+00  0.15848707663E+03  0.15848707663E+03  0.00000000000E+00 0.  1.
          2   -1    0    0  502    0 -0.00000000000E+00 -0.00000000000E+00 -0.33181921715E+03  0.33181921715E+03  0.00000000000E+00 0. -1.
         23    2    1    2    0    0  0.73931224597E+02  0.44754999438E+02 -0.22921190646E+03  0.26161148719E+03  0.91834831217E+02 0.  0.
         23    2    1    2    0    0 -0.54184228639E+02  0.53286941411E+01 -0.45772868203E+02  0.11366620911E+03  0.88659607575E+02 0.  0.
        -13    1    4    4    0    0 -0.16382585686E+02 -0.19709698361E+02 -0.60733621011E+02  0.65919906283E+02  0.00000000000E+00 0. -1.
         13    1    4    4    0    0 -0.37801642953E+02  0.25038392502E+02  0.14960752808E+02  0.47746302827E+02  0.00000000000E+00 0.  1.
        -13    1    3    3    0    0 -0.77686351018E+01  0.39844999646E+02 -0.48630442042E+02  0.63347419689E+02  0.00000000000E+00 0.  1.
         13    1    3    3    0    0  0.81699859699E+02  0.49099997915E+01 -0.18058146442E+03  0.19826406750E+03  0.00000000000E+00 0. -1.
          2    1    1    2  501    0 -0.19746995958E+02 -0.50083693579E+02  0.10165263414E+03  0.11502859749E+03  0.00000000000E+00 0. -1.
<scales pt_clust_5="13000.00000" pt_clust_6="13000.00000" pt_clust_7="13000.00000" pt_clust_8="13000.00000" pt_clust_9="53.83605"></scales>
<clustering>
<clus scale="   53.836">  1  9  2 -1</clus>
<clus scale="   88.660">  5  6 -1 -1</clus>
<clus scale="   91.835">  7  8 -1 -1</clus>
<clus scale="  115.067">  1  5  2 -1</clus>
<clus scale="   53.836">  1  5  2 -1</clus>
</clustering>
</event>
<event>
 9    1  0.1464797E-005  0.1093426E+03  0.7546771E-02  0.1262786E+00
         21   -1    0    0  501  502  0.00000000000E+00  0.00000000000E+00  0.51194539098E+03  0.51194539098E+03  0.00000000000E+00 0. -1.
         -3   -1    0    0    0  501 -0.00000000000E+00 -0.00000000000E+00 -0.44767908774E+02  0.44767908774E+02  0.00000000000E+00 0.  1.
         23    2    1    2    0    0 -0.51137399812E+02 -0.28814066430E+02  0.66561364521E+02  0.12786168607E+03  0.92048418966E+02 0.  0.
         23    2    1    2    0    0  0.65846153045E+02 -0.18146035614E+00  0.23348427299E+03  0.25858669802E+03  0.89534495364E+02 0.  0.
        -11    1    3    3    0    0 -0.56503551363E+02  0.13447273809E+02  0.13167408810E+02  0.59555529922E+02  0.00000000000E+00 0.  1.
         11    1    3    3    0    0  0.53661515511E+01 -0.42261340239E+02  0.53393955712E+02  0.68306156149E+02  0.00000000000E+00 0. -1.
        -11    1    4    4    0    0  0.25486520787E+02  0.30807261684E+02  0.18146840870E+03  0.18582097156E+03  0.00000000000E+00 0. -1.
         11    1    4    4    0    0  0.40359632258E+02 -0.30988722040E+02  0.52015864289E+02  0.72765726461E+02  0.00000000000E+00 0.  1.
         -3    1    1    2    0  502 -0.14708753233E+02  0.28995526786E+02  0.16713184470E+03  0.17026491567E+03  0.00000000000E+00 0.  1.
<scales pt_clust_5="13000.00000" pt_clust_6="13000.00000" pt_clust_7="13000.00000" pt_clust_8="13000.00000" pt_clust_9="32.51289"></scales>
<clustering>
<clus scale="   32.513">  1  9  2 -1</clus>
<clus scale="   89.534">  7  8 -1 -1</clus>
<clus scale="   92.048">  5  6 -1 -1</clus>
<clus scale="  107.235">  1  7  2 -1</clus>
<clus scale="   32.513">  1  5  2 -1</clus>
</clustering>
</event>
<event>
 9    1  0.1464797E-005  0.9207945E+02  0.7546771E-02  0.1298541E+00
         21   -1    0    0  501  502  0.00000000000E+00  0.00000000000E+00  0.12385234880E+03  0.12385234880E+03  0.00000000000E+00 0.  1.
          2   -1    0    0  502    0 -0.00000000000E+00 -0.00000000000E+00 -0.89213473705E+02  0.89213473705E+02  0.00000000000E+00 0. -1.
         23    2    1    2    0    0 -0.12925157573E+02 -0.31456605982E+01  0.10463035557E+00  0.92278491262E+02  0.91314588775E+02 0.  0.
         23    2    1    2    0    0  0.60782374404E+01 -0.19137958109E+02  0.28430841844E+02  0.96689789772E+02  0.90207517797E+02 0.  0.
        -13    1    4    4    0    0  0.14585958286E+01  0.31197548340E+02 -0.10434237874E+02  0.32928526299E+02  0.00000000000E+00 0. -1.
         13    1    4    4    0    0  0.46196416118E+01 -0.50335506449E+02  0.38865079718E+02  0.63761263472E+02  0.00000000000E+00 0.  1.
        -13    1    3    3    0    0  0.75617566548E+01 -0.26284028188E+02  0.35807492895E+02  0.45057816735E+02  0.00000000000E+00 0.  1.
         13    1    3    3    0    0 -0.20486914228E+02  0.23138367589E+02 -0.35702862540E+02  0.47220674527E+02  0.00000000000E+00 0. -1.
          2    1    1    2  501    0  0.68469201327E+01  0.22283618707E+02  0.61034028922E+01  0.24097541469E+02  0.00000000000E+00 0. -1.
<scales pt_clust_5="13000.00000" pt_clust_6="13000.00000" pt_clust_7="13000.00000" pt_clust_8="13000.00000" pt_clust_9="23.31180"></scales>
<clustering>
<clus scale="   23.312">  1  9  2 -1</clus>
<clus scale="   90.208">  5  6 -1 -1</clus>
<clus scale="   90.982">  1  5  2 -1</clus>
<clus scale="   91.315">  7  8 -1 -1</clus>
<clus scale="   23.312">  1  5  2 -1</clus>
</clustering>
</event>
<event>
 9    1  0.1464797E-005  0.1471846E+03  0.7546771E-02  0.1204153E+00
          1   -1    0    0  502    0 -0.00000000000E+00  0.00000000000E+00  0.69499553419E+03  0.69499553419E+03  0.00000000000E+00 0. -1.
         21   -1    0    0  501  502  0.00000000000E+00 -0.00000000000E+00 -0.11491581543E+03  0.11491581543E+03  0.00000000000E+00 0. -1.
         23    2    1    2    0    0 -0.29821992950E+02 -0.11163449368E+03  0.52459028406E+03  0.54498661781E+03  0.91999108796E+02 0.  0.
         23    2    1    2    0    0  0.54157888533E+02  0.10145524423E+03  0.12362917220E+03  0.19185711408E+03  0.91097401336E+02 0.  0.
        -11    1    3    3    0    0  0.32186779704E+02 -0.27318907439E+02  0.12602109979E+03  0.13290458639E+03  0.00000000000E+00 0. -1.
         11    1    3    3    0    0 -0.62008772654E+02 -0.84315586243E+02  0.39856918427E+03  0.41208203142E+03  0.00000000000E+00 0.  1.
        -13    1    4    4    0    0  0.70836314417E+02  0.43930948041E+02  0.91931406065E+02  0.12409309029E+03  0.00000000000E+00 0. -1.
         13    1    4    4    0    0 -0.16678425885E+02  0.57524296188E+02  0.31697766137E+02  0.67764023788E+02  0.00000000000E+00 0.  1.
          1    1    1    2  501    0 -0.24335895583E+02  0.10179249454E+02 -0.68139737501E+02  0.73067617725E+02  0.00000000000E+00 0. -1.
<scales pt_clust_5="13000.00000" pt_clust_6="13000.00000" pt_clust_7="13000.00000" pt_clust_8="13000.00000" pt_clust_9="26.37902"></scales>
<clustering>
<clus scale="   26.379">  2  9  1 -1</clus>
<clus scale="   91.097">  7  8 -1 -1</clus>
<clus scale="   91.999">  5  6 -1 -1</clus>
<clus scale="  146.623">  2  7  1 -1</clus>
<clus scale="   26.379">  2  5  1 -1</clus>
</clustering>
</event>
<event>
 9    1  0.1464797E-005  0.1016962E+03  0.7546771E-02  0.1277749E+00
          2   -1    0    0  502    0 -0.00000000000E+00  0.00000000000E+00  0.50208610842E+02  0.50208610842E+02  0.00000000000E+00 0. -1.
         21   -1    0    0  501  502  0.00000000000E+00 -0.00000000000E+00 -0.51270866934E+03  0.51270866934E+03  0.00000000000E+00 0. -1.
         23    2    1    2    0    0  0.40697984242E+02  0.15311388269E+02 -0.20764339637E+02  0.10477337013E+03  0.93035137216E+02 0.  0.
         23    2    1    2    0    0 -0.31706250808E+02  0.26320352189E+01 -0.30280370732E+03  0.31776969038E+03  0.90968549548E+02 0.  0.
        -11    1    4    4    0    0 -0.60201240546E+02 -0.10925245515E+02 -0.23730708960E+03  0.24506775620E+03  0.00000000000E+00 0.  1.
         11    1    4    4    0    0  0.28494989738E+02  0.13557280734E+02 -0.65496617719E+02  0.72701934181E+02  0.00000000000E+00 0. -1.
        -11    1    3    3    0    0  0.20889968320E+01  0.30349718759E+02  0.27607970871E+02  0.41081253537E+02  0.00000000000E+00 0. -1.
         11    1    3    3    0    0  0.38608987410E+02 -0.15038330491E+02 -0.48372310508E+02  0.63692116598E+02  0.00000000000E+00 0.  1.
          2    1    1    2  501    0 -0.89917334340E+01 -0.17943423488E+02 -0.13893201154E+03  0.14037421967E+03  0.00000000000E+00 0. -1.
<scales pt_clust_5="13000.00000" pt_clust_6="13000.00000" pt_clust_7="13000.00000" pt_clust_8="13000.00000" pt_clust_9="20.07032"></scales>
<clustering>
<clus scale="   20.070">  2  9  1 -1</clus>
<clus scale="   90.969">  5  6 -1 -1</clus>
<clus scale="   93.035">  7  8 -1 -1</clus>
<clus scale="   99.809">  2  5  1 -1</clus>
<clus scale="   20.070">  2  5  1 -1</clus>
</clustering>
</event>
<event>
 9    1  0.1464797E-005  0.1060777E+03  0.7546771E-02  0.1270159E+00
         -1   -1    0    0    0  501 -0.00000000000E+00  0.00000000000E+00  0.78175716809E+02  0.78175716809E+02  0.00000000000E+00 0.  1.
         21   -1    0    0  501  502  0.00000000000E+00 -0.00000000000E+00 -0.28684605917E+03  0.28684605917E+03  0.00000000000E+00 0.  1.
         23    2    1    2    0    0 -0.38923039688E+02  0.32230891334E+02 -0.87843724096E+01  0.10086769570E+03  0.86852135626E+02 0.  0.
         23    2    1    2    0    0  0.73376244614E+02  0.70525804277E+01 -0.11598188290E+03  0.16531021194E+03  0.91879577965E+02 0.  0.
        -13    1    3    3    0    0  0.14774228304E+01 -0.21051641722E+02 -0.24340177668E+02  0.32214882373E+02  0.00000000000E+00 0. -1.
         13    1    3    3    0    0 -0.40400462519E+02  0.53282533056E+02  0.15555805259E+02  0.68652813328E+02  0.00000000000E+00 0.  1.
        -13    1    4    4    0    0  0.51267629827E+02  0.24396756474E+02 -0.12573748422E+02  0.58152134474E+02  0.00000000000E+00 0.  1.
         13    1    4    4    0    0  0.22108614787E+02 -0.17344176046E+02 -0.10340813448E+03  0.10715807747E+03  0.00000000000E+00 0. -1.
         -1    1    1    2    0  502 -0.34453204926E+02 -0.39283471762E+02 -0.83904087052E+02  0.98843868334E+02  0.00000000000E+00 0.  1.
<scales pt_clust_5="13000.00000" pt_clust_6="13000.00000" pt_clust_7="13000.00000" pt_clust_8="13000.00000" pt_clust_9="52.25145"></scales>
<clustering>
<clus scale="   52.251">  2  9  1 -1</clus>
<clus scale="   86.852">  5  6 -1 -1</clus>
<clus scale="   91.880">  7  8 -1 -1</clus>
<clus scale="  101.754">  1  5  2 -1</clus>
<clus scale="   52.251">  2  5  1 -1</clus>
</clustering>
</event>
<event>
 9    1  0.1464797E-005  0.9920284E+02  0.7546771E-02  0.1282122E+00
          2   -1    0    0  502    0 -0.00000000000E+00  0.00000000000E+00  0.11191383599E+03  0.11191383599E+03  0.00000000000E+00 0. -1.
         21   -1    0    0  501  502  0.00000000000E+00 -0.00000000000E+00 -0.12142251913E+03  0.12142251913E+03  0.00000000000E+00 0.  1.
         23    2    1    2    0    0  0.44462947106E+02 -0.16979671102E+02  0.21553126583E+02  0.10499995423E+03  0.91077934906E+02 0.  0.
         23    2    1    2    0    0 -0.22839353219E+02  0.16724193076E+02 -0.68820952723E+01  0.95897170437E+02  0.91365033645E+02 0.  0.
        -11    1    4    4    0    0  0.27928520229E+01  0.46649096928E+02 -0.24466089888E+02  0.52749671289E+02  0.00000000000E+00 0.  1.
         11    1    4    4    0    0 -0.25632205241E+02 -0.29924903853E+02  0.17583994615E+02  0.43147499148E+02  0.00000000000E+00 0. -1.
        -13    1    3    3    0    0  0.12444148710E+02 -0.45197250542E+02  0.36886091699E+02  0.59650918304E+02  0.00000000000E+00 0. -1.
         13    1    3    3    0    0  0.32018798396E+02  0.28217579440E+02 -0.15332965116E+02  0.45349035926E+02  0.00000000000E+00 0.  1.
          2    1    1    2  501    0 -0.21623593888E+02  0.25547802652E+00 -0.24179714449E+02  0.32439230454E+02  0.00000000000E+00 0. -1.
<scales pt_clust_5="13000.00000" pt_clust_6="13000.00000" pt_clust_7="13000.00000" pt_clust_8="13000.00000" pt_clust_9="21.62510"></scales>
<clustering>
<clus scale="   21.625">  2  9  1 -1</clus>
<clus scale="   91.078">  7  8 -1 -1</clus>
<clus scale="   91.365">  5  6 -1 -1</clus>
<clus scale="   98.938">  1  7  2 -1</clus>
<clus scale="   21.625">  2  5  1 -1</clus>
</clustering>
</event>
<event>
 9    1  0.1464797E-005  0.1038435E+03  0.7546771E-02  0.1273046E+00
         21   -1    0    0  501  502  0.00000000000E+00  0.00000000000E+00  0.10305314290E+03  0.10305314290E+03  0.00000000000E+00 0. -1.
          1   -1    0    0  502    0 -0.00000000000E+00 -0.00000000000E+00 -0.71809141367E+03  0.71809141367E+03  0.00000000000E+00 0. -1.
         23    2    1    2    0    0 -0.12255419035E+02  0.63905780851E+02 -0.50100378591E+03  0.51352136079E+03  0.92006795230E+02 0.  0.
         23    2    1    2    0    0  0.89008874456E+01 -0.90835493018E+01 -0.19104373995E+03  0.21303379192E+03  0.93402083816E+02 0.  0.
        -11    1    4    4    0    0  0.33820316124E+02 -0.41395755627E+02 -0.10930599297E+03  0.12167671292E+03  0.00000000000E+00 0.  1.
         11    1    4    4    0    0 -0.24919428678E+02  0.32312206325E+02 -0.81737746979E+02  0.91357079005E+02  0.00000000000E+00 0. -1.
        -13    1    3    3    0    0 -0.47630374248E+02  0.18020046539E+02 -0.30166393362E+03  0.30593218770E+03  0.00000000000E+00 0.  1.
         13    1    3    3    0    0  0.35374955214E+02  0.45885734313E+02 -0.19933985229E+03  0.20758917308E+03  0.00000000000E+00 0. -1.
          1    1    1    2  501    0  0.33545315892E+01 -0.54822231549E+02  0.77009255088E+02  0.94589403865E+02  0.00000000000E+00 0. -1.
<scales pt_clust_5="13000.00000" pt_clust_6="13000.00000" pt_clust_7="13000.00000" pt_clust_8="13000.00000" pt_clust_9="54.92477"></scales>
<clustering>
<clus scale="   54.925">  1  9  2 -1</clus>
<clus scale="   92.007">  7  8 -1 -1</clus>
<clus scale="   93.402">  5  6 -1 -1</clus>
<clus scale="  102.590">  2  7  1 -1</clus>
<clus scale="   54.925">  1  5  2 -1</clus>
</clustering>
</event>
<event>
 9    1  0.1464797E-005  0.3322883E+03  0.7546771E-02  0.1112010E+00
         21   -1    0    0  501  502  0.00000000000E+00  0.00000000000E+00  0.26120277241E+03  0.26120277241E+03  0.00000000000E+00 0. -1.
          1   -1    0    0  502    0 -0.00000000000E+00 -0.00000000000E+00 -0.10435533830E+04  0.10435533830E+04  0.00000000000E+00 0. -1.
         23    2    1    2    0    0  0.29114218406E+02 -0.38965405467E+02 -0.94503721097E+02  0.14503416716E+03  0.98681385301E+02 0.  0.
         23    2    1    2    0    0 -0.33197971522E+03 -0.54622186319E+02 -0.75858487465E+03  0.83492973307E+03  0.91992024454E+02 0.  0.
        -11    1    4    4    0    0 -0.30608742766E+03 -0.42007068358E+02 -0.73636339187E+03  0.79855190942E+03  0.00000000000E+00 0. -1.
         11    1    4    4    0    0 -0.25892287563E+02 -0.12615117960E+02 -0.22221482788E+02  0.36377823653E+02  0.00000000000E+00 0.  1.
        -13    1    3    3    0    0 -0.92876025169E+01 -0.54922035178E+02 -0.86195603840E+02  0.10262734348E+03  0.00000000000E+00 0.  1.
         13    1    3    3    0    0  0.38401820923E+02  0.15956629710E+02 -0.83081172575E+01  0.42406823676E+02  0.00000000000E+00 0. -1.
          1    1    1    2  501    0  0.30286549681E+03  0.93587591786E+02  0.70737985145E+02  0.32479225520E+03  0.00000000000E+00 0. -1.
<scales pt_clust_5="13000.00000" pt_clust_6="13000.00000" pt_clust_7="13000.00000" pt_clust_8="13000.00000" pt_clust_9="319.30078"></scales>
<clustering>
<clus scale="   91.992">  5  6 -1 -1</clus>
<clus scale="   98.681">  7  8 -1 -1</clus>
<clus scale="  110.018">  2  7  1 -1</clus>
<clus scale="  319.301">  1  9  2 -1</clus>
<clus scale="  319.301">  1  5  2 -1</clus>
</clustering>
</event>
<event>
 9    1  0.1464797E-005  0.1280903E+03  0.7546771E-02  0.1231082E+00
          1   -1    0    0  502    0 -0.00000000000E+00  0.00000000000E+00  0.79928974666E+03  0.79928974666E+03  0.00000000000E+00 0. -1.
         21   -1    0    0  501  502  0.00000000000E+00 -0.00000000000E+00 -0.40473281349E+02  0.40473281349E+02  0.00000000000E+00 0.  1.
         23    2    1    2    0    0 -0.65702847624E+02 -0.53166044685E+02  0.50763041663E+03  0.52245085909E+03  0.90126398970E+02 0.  0.
         23    2    1    2    0    0  0.96938222117E+02  0.48809772730E+02  0.24949608111E+03  0.28572923499E+03  0.87255305934E+02 0.  0.
        -11    1    4    4    0    0  0.10582890370E+03  0.20389051438E+02  0.21222265293E+03  0.23802084928E+03  0.00000000000E+00 0.  1.
         11    1    4    4    0    0 -0.88906815840E+01  0.28420721292E+02  0.37273428184E+02  0.47708385703E+02  0.00000000000E+00 0. -1.
        -11    1    3    3    0    0  0.96645888662E+01 -0.30089321568E+02  0.58828330062E+02  0.66779817073E+02  0.00000000000E+00 0.  1.
         11    1    3    3    0    0 -0.75367436491E+02 -0.23076723117E+02  0.44880208656E+03  0.45567104202E+03  0.00000000000E+00 0. -1.
          1    1    1    2  501    0 -0.31235374492E+02  0.43562719553E+01  0.16899675700E+01  0.31582933926E+02  0.00000000000E+00 0. -1.
<scales pt_clust_5="13000.00000" pt_clust_6="13000.00000" pt_clust_7="13000.00000" pt_clust_8="13000.00000" pt_clust_9="31.53769"></scales>
<clustering>
<clus scale="   31.538">  2  9  1 -1</clus>
<clus scale="   87.255">  5  6 -1 -1</clus>
<clus scale="   90.126">  7  8 -1 -1</clus>
<clus scale="  126.087">  2  5  1 -1</clus>
<clus scale="   31.538">  2  5  1 -1</clus>
</clustering>
</event>
<event>
 9    1  0.1464797E-005  0.1535495E+03  0.7546771E-02  0.1196633E+00
         21   -1    0    0  501  502  0.00000000000E+00  0.00000000000E+00  0.18369097567E+03  0.18369097567E+03  0.00000000000E+00 0. -1.
          2   -1    0    0  502    0 -0.00000000000E+00 -0.00000000000E+00 -0.24943567568E+03  0.24943567568E+03  0.00000000000E+00 0. -1.
         23    2    1    2    0    0 -0.11883530110E+03 -0.29458018228E+02 -0.89464188017E+02  0.17644030728E+03  0.90209408989E+02 0.  0.
         23    2    1    2    0    0  0.10798496491E+03  0.63181597055E+02 -0.59126619296E+02  0.16658369672E+03  0.92744293908E+02 0.  0.
        -11    1    3    3    0    0  0.41965542697E+01 -0.27023280432E+02 -0.27033166096E+02  0.38453359050E+02  0.00000000000E+00 0.  1.
         11    1    3    3    0    0 -0.12303185537E+03 -0.24347377956E+01 -0.62431021921E+02  0.13798694823E+03  0.00000000000E+00 0. -1.
        -13    1    4    4    0    0  0.94322145771E+02  0.81629096874E+02 -0.67882884103E+02  0.14201430419E+03  0.00000000000E+00 0.  1.
         13    1    4    4    0    0  0.13662819135E+02 -0.18447499819E+02  0.87562648070E+01  0.24569392538E+02  0.00000000000E+00 0. -1.
          2    1    1    2  501    0  0.10850336192E+02 -0.33723578827E+02  0.82846107299E+02  0.90102647347E+02  0.00000000000E+00 0. -1.
<scales pt_clust_5="13000.00000" pt_clust_6="13000.00000" pt_clust_7="13000.00000" pt_clust_8="13000.00000" pt_clust_9="35.42611"></scales>
<clustering>
<clus scale="   35.426">  1  9  2 -1</clus>
<clus scale="   90.209">  5  6 -1 -1</clus>
<clus scale="   92.744">  7  8 -1 -1</clus>
<clus scale="  152.032">  2  5  1 -1</clus>
<clus scale="   35.426">  1  5  2 -1</clus>
</clustering>
</event>
<event>
 9    1  0.1464797E-005  0.1026825E+03  0.7546771E-02  0.1274761E+00
         21   -1    0    0  501  502  0.00000000000E+00  0.00000000000E+00  0.67143962819E+02  0.67143962819E+02  0.00000000000E+00 0.  1.
          1   -1    0    0  502    0 -0.00000000000E+00 -0.00000000000E+00 -0.21172914087E+03  0.21172914087E+03  0.00000000000E+00 0. -1.
         23    2    1    2    0    0  0.88371450664E+01  0.39685338356E+02 -0.92067703377E+02  0.13589143121E+03  0.91307162144E+02 0.  0.
         23    2    1    2    0    0 -0.26049885048E+02 -0.51008998005E+02 -0.56969014346E+02  0.12190277566E+03  0.91292407848E+02 0.  0.
        -11    1    4    4    0    0 -0.39078407254E+02  0.40723235623E+01  0.30452885757E+01  0.39407861084E+02  0.00000000000E+00 0.  1.
         11    1    4    4    0    0  0.13028522206E+02 -0.55081321567E+02 -0.60014302921E+02  0.82494914580E+02  0.00000000000E+00 0. -1.
        -13    1    3    3    0    0 -0.19243172091E+02  0.40448854923E+02 -0.58017732328E+01  0.45167135279E+02  0.00000000000E+00 0.  1.
         13    1    3    3    0    0  0.28080317157E+02 -0.76351656715E+00 -0.86265930144E+02  0.90724295935E+02  0.00000000000E+00 0. -1.
          1    1    1    2  501    0  0.17212739982E+02  0.11323659649E+02  0.44515396682E+01  0.21078896815E+02  0.00000000000E+00 0. -1.
<scales pt_clust_5="13000.00000" pt_clust_6="13000.00000" pt_clust_7="13000.00000" pt_clust_8="13000.00000" pt_clust_9="20.60349"></scales>
<clustering>
<clus scale="   20.603">  1  9  2 -1</clus>
<clus scale="   91.292">  5  6 -1 -1</clus>
<clus scale="   91.307">  7  8 -1 -1</clus>
<clus scale="  102.669">  1  5  2 -1</clus>
<clus scale="   20.603">  1  5  2 -1</clus>
</clustering>
</event>
<event>
 9    1  0.1464797E-005  0.1553390E+03  0.7546771E-02  0.1212462E+00
         21   -1    0    0  501  502  0.00000000000E+00  0.00000000000E+00  0.23898243500E+03  0.23898243500E+03  0.00000000000E+00 0. -1.
          2   -1    0    0  502    0 -0.00000000000E+00 -0.00000000000E+00 -0.64733231026E+03  0.64733231026E+03  0.00000000000E+00 0. -1.
         23    2    1    2    0    0 -0.88444938925E+01 -0.49654575649E+02 -0.52923415703E+03  0.53943197709E+03  0.91401657484E+02 0.  0.
         23    2    1    2    0    0 -0.67716459898E+02  0.14844234006E+03  0.12787972542E+02  0.18163926872E+03  0.78794951845E+02 0.  0.
        -11    1    3    3    0    0  0.35238938559E+02  0.22754800083E+01 -0.14752345764E+03  0.15169090663E+03  0.00000000000E+00 0.  1.
         11    1    3    3    0    0 -0.44083432451E+02 -0.51930055657E+02 -0.38171069939E+03  0.38774107046E+03  0.00000000000E+00 0. -1.
        -13    1    4    4    0    0 -0.35962043929E+02  0.13047836954E+02  0.18414451796E+02  0.42457115866E+02  0.00000000000E+00 0.  1.
         13    1    4    4    0    0 -0.31754415969E+02  0.13539450310E+03 -0.56264792539E+01  0.13918215285E+03  0.00000000000E+00 0. -1.
          2    1    1    2  501    0  0.76560953791E+02 -0.98787764406E+02  0.10809630923E+03  0.16524349945E+03  0.00000000000E+00 0. -1.
<scales pt_clust_5="13000.00000" pt_clust_6="13000.00000" pt_clust_7="13000.00000" pt_clust_8="13000.00000" pt_clust_9="133.87138"></scales>
<clustering>
<clus scale="   78.795">  7  8 -1 -1</clus>
<clus scale="   91.402">  5  6 -1 -1</clus>
<clus scale="  104.394">  2  5  1 -1</clus>
<clus scale="  133.871">  1  9  2 -1</clus>
<clus scale="  133.871">  1  5  2 -1</clus>
</clustering>
</event>
<event>
 9    1  0.1464797E-005  0.1218163E+03  0.7546771E-02  0.1248760E+00
          2   -1    0    0  502    0 -0.00000000000E+00  0.00000000000E+00  0.24236422796E+03  0.24236422796E+03  0.00000000000E+00 0. -1.
         21   -1    0    0  501  502  0.00000000000E+00 -0.00000000000E+00 -0.12180600952E+03  0.12180600952E+03  0.00000000000E+00 0.  1.
         23    2    1    2    0    0 -0.52867817471E+02  0.29163024109E+01  0.17040542839E+03  0.19785537089E+03  0.85470619653E+02 0.  0.
         23    2    1    2    0    0  0.77873813477E+02 -0.36185854555E+01 -0.37304475406E+02  0.13833070629E+03  0.10801081164E+03 0.  0.
        -11    1    4    4    0    0  0.70502017407E+02 -0.24415548618E+02 -0.67716129382E+02  0.10075776720E+03  0.00000000000E+00 0.  1.
         11    1    4    4    0    0  0.73717960700E+01  0.20796963162E+02  0.30411653976E+02  0.37572939087E+02  0.00000000000E+00 0. -1.
        -11    1    3    3    0    0 -0.34210670930E+02  0.41275209648E+02  0.12246740563E+03  0.13368724090E+03  0.00000000000E+00 0. -1.
         11    1    3    3    0    0 -0.18657146541E+02 -0.38358907237E+02  0.47938022758E+02  0.64168129997E+02  0.00000000000E+00 0.  1.
          2    1    1    2  501    0 -0.25005996006E+02  0.70228304456E+00 -0.12542734546E+02  0.27984160299E+02  0.00000000000E+00 0. -1.
<scales pt_clust_5="13000.00000" pt_clust_6="13000.00000" pt_clust_7="13000.00000" pt_clust_8="13000.00000" pt_clust_9="25.01586"></scales>
<clustering>
<clus scale="   25.016">  2  9  1 -1</clus>
<clus scale="   85.471">  7  8 -1 -1</clus>
<clus scale="  102.363">  1  7  2 -1</clus>
<clus scale="  108.011">  5  6 -1 -1</clus>
<clus scale="   25.016">  2  5  1 -1</clus>
</clustering>
</event>
<event>
 9    1  0.1464797E-005  0.1536034E+03  0.7546771E-02  0.1196474E+00
         21   -1    0    0  501  502  0.00000000000E+00  0.00000000000E+00  0.92353461724E+02  0.92353461724E+02  0.00000000000E+00 0.  1.
          3   -1    0    0  502    0 -0.00000000000E+00 -0.00000000000E+00 -0.45154358534E+03  0.45154358534E+03  0.00000000000E+00 0. -1.
         23    2    1    2    0    0  0.10410764725E+03 -0.64870488003E+02 -0.25872943235E+03  0.29992802561E+03  0.89271042082E+02 0.  0.
         23    2    1    2    0    0 -0.13182284832E+03  0.18444489630E+02 -0.10002870054E+03  0.18989784326E+03  0.91312580754E+02 0.  0.
        -11    1    4    4    0    0 -0.11128079717E+03 -0.22549993202E+02 -0.57127183826E+02  0.12710402489E+03  0.00000000000E+00 0.  1.
         11    1    4    4    0    0 -0.20542051154E+02  0.40994482832E+02 -0.42901516718E+02  0.62793818366E+02  0.00000000000E+00 0. -1.
        -11    1    3    3    0    0  0.11674395689E+03 -0.39382652214E+02 -0.20701719572E+03  0.24090716903E+03  0.00000000000E+00 0. -1.
         11    1    3    3    0    0 -0.12636309641E+02 -0.25487835789E+02 -0.51712236631E+02  0.59020856584E+02  0.00000000000E+00 0.  1.
          3    1    1    2  501    0  0.27715201072E+02  0.46425998372E+02 -0.43199072342E+00  0.54071178194E+02  0.00000000000E+00 0. -1.
<scales pt_clust_5="13000.00000" pt_clust_6="13000.00000" pt_clust_7="13000.00000" pt_clust_8="13000.00000" pt_clust_9="54.06945"></scales>
<clustering>
<clus scale="   54.069">  1  9  2 -1</clus>
<clus scale="   89.271">  7  8 -1 -1</clus>
<clus scale="   91.313">  5  6 -1 -1</clus>
<clus scale="  152.399">  2  7  1 -1</clus>
<clus scale="   54.069">  1  5  2 -1</clus>
</clustering>
</event>
<event>
 9    1  0.1464797E-005  0.9875454E+02  0.7546771E-02  0.1283226E+00
         21   -1    0    0  501  502  0.00000000000E+00  0.00000000000E+00  0.59017562366E+03  0.59017562366E+03  0.00000000000E+00 0.  1.
          1   -1    0    0  502    0 -0.00000000000E+00 -0.00000000000E+00 -0.48230492299E+02  0.48230492299E+02  0.00000000000E+00 0. -1.
         23    2    1    2    0    0  0.69205158830E+01 -0.41499165155E+02  0.10911720327E+03  0.14852668891E+03  0.91561667848E+02 0.  0.
         23    2    1    2    0    0  0.71037843335E+02  0.94565924936E+00  0.12674515916E+03  0.17143201531E+03  0.90979838668E+02 0.  0.
        -11    1    3    3    0    0 -0.39536607927E+02 -0.19440426692E+02  0.74436017681E+02  0.86497365766E+02  0.00000000000E+00 0.  1.
         11    1    3    3    0    0  0.46457123810E+02 -0.22058738463E+02  0.34681185592E+02  0.62029323141E+02  0.00000000000E+00 0. -1.
        -13    1    4    4    0    0 -0.74766865892E+01  0.23821498276E+02  0.61334452264E+01  0.25709604680E+02  0.00000000000E+00 0.  1.
         13    1    4    4    0    0  0.78514529924E+02 -0.22875839027E+02  0.12061171393E+03  0.14572241063E+03  0.00000000000E+00 0. -1.
          1    1    1    2  501    0 -0.77958359218E+02  0.40553505905E+02  0.30608276893E+03  0.31844741175E+03  0.00000000000E+00 0. -1.
<scales pt_clust_5="13000.00000" pt_clust_6="13000.00000" pt_clust_7="13000.00000" pt_clust_8="13000.00000" pt_clust_9="87.87544"></scales>
<clustering>
<clus scale="   87.875">  1  9  2 -1</clus>
<clus scale="   90.980">  7  8 -1 -1</clus>
<clus scale="   91.562">  5  6 -1 -1</clus>
<clus scale="   98.215">  1  7  2 -1</clus>
<clus scale="   87.875">  1  5  2 -1</clus>
</clustering>
</event>
<event>
 9    1  0.1464797E-005  0.1683484E+03  0.7546771E-02  0.1181632E+00
         21   -1    0    0  501  502  0.00000000000E+00  0.00000000000E+00  0.16021995862E+03  0.16021995862E+03  0.00000000000E+00 0. -1.
         -1   -1    0    0    0  501 -0.00000000000E+00 -0.00000000000E+00 -0.28292147436E+03  0.28292147436E+03  0.00000000000E+00 0.  1.
         23    2    1    2    0    0  0.13234847864E+03 -0.50606200191E+02 -0.17019738238E+03  0.23949030294E+03  0.91166599882E+02 0.  0.
         23    2    1    2    0    0 -0.10547256113E+03  0.35325987125E+02  0.65991658150E+01  0.15238379158E+03  0.10394654602E+03 0.  0.
        -11    1    3    3    0    0  0.58292224099E+02  0.13807499560E+02 -0.26578152643E+02  0.65536467958E+02  0.00000000000E+00 0.  1.
         11    1    3    3    0    0  0.74056254544E+02 -0.64413699751E+02 -0.14361922974E+03  0.17395383498E+03  0.00000000000E+00 0. -1.
        -13    1    4    4    0    0 -0.46270580503E+02  0.12953266518E+02 -0.48645906707E+02  0.68375273110E+02  0.00000000000E+00 0.  1.
         13    1    4    4    0    0 -0.59201980626E+02  0.22372720607E+02  0.55245072522E+02  0.84008518469E+02  0.00000000000E+00 0. -1.
         -1    1    1    2    0  502 -0.26875917515E+02  0.15280213066E+02  0.40896700832E+02  0.51267338458E+02  0.00000000000E+00 0.  1.
<scales pt_clust_5="13000.00000" pt_clust_6="13000.00000" pt_clust_7="13000.00000" pt_clust_8="13000.00000" pt_clust_9="30.91601"></scales>
<clustering>
<clus scale="   30.916">  1  9  2 -1</clus>
<clus scale="   91.167">  5  6 -1 -1</clus>
<clus scale="  103.947">  7  8 -1 -1</clus>
<clus scale="  160.772">  2  5  1 -1</clus>
<clus scale="   30.916">  1  5  2 -1</clus>
</clustering>
</event>
<event>
 9    1  0.1464797E-005  0.1449542E+03  0.7546771E-02  0.1207211E+00
         21   -1    0    0  501  502  0.00000000000E+00  0.00000000000E+00  0.12267134129E+03  0.12267134129E+03  0.00000000000E+00 0. -1.
          1   -1    0    0  502    0 -0.00000000000E+00 -0.00000000000E+00 -0.50946782011E+03  0.50946782011E+03  0.00000000000E+00 0. -1.
         23    2    1    2    0    0  0.60293936277E+02  0.10379510614E+03 -0.32316756930E+03  0.35625977336E+03  0.89860811591E+02 0.  0.
         23    2    1    2    0    0 -0.12306887500E+03 -0.10539971413E+02 -0.19593712012E+02  0.15514699095E+03  0.91813050592E+02 0.  0.
        -13    1    4    4    0    0 -0.10039845833E+03  0.21432636623E+02  0.13891802702E+02  0.10359628628E+03  0.00000000000E+00 0. -1.
         13    1    4    4    0    0 -0.22670416668E+02 -0.31972608036E+02 -0.33485514714E+02  0.51550704672E+02  0.00000000000E+00 0.  1.
        -13    1    3    3    0    0  0.80980281970E+02  0.76817069277E+02 -0.20644865003E+03  0.23469067579E+03  0.00000000000E+00 0. -1.
         13    1    3    3    0    0 -0.20686345694E+02  0.26978036862E+02 -0.11671891927E+03  0.12156909758E+03  0.00000000000E+00 0.  1.
          1    1    1    2  501    0  0.62774938726E+02 -0.93255134727E+02 -0.44035197505E+02  0.12073239708E+03  0.00000000000E+00 0. -1.
<scales pt_clust_5="13000.00000" pt_clust_6="13000.00000" pt_clust_7="13000.00000" pt_clust_8="13000.00000" pt_clust_9="112.41536"></scales>
<clustering>
<clus scale="   89.861">  7  8 -1 -1</clus>
<clus scale="   91.813">  5  6 -1 -1</clus>
<clus scale="  112.415">  1  9  2 -1</clus>
<clus scale="  143.726">  2  7  1 -1</clus>
<clus scale="  112.415">  1  5  2 -1</clus>
</clustering>
</event>
<event>
 9    1  0.1464797E-005  0.1054380E+03  0.7546771E-02  0.1270680E+00
          2   -1    0    0  502    0 -0.00000000000E+00  0.00000000000E+00  0.19920583805E+03  0.19920583805E+03  0.00000000000E+00 0. -1.
         21   -1    0    0  501  502  0.00000000000E+00 -0.00000000000E+00 -0.11480627670E+03  0.11480627670E+03  0.00000000000E+00 0.  1.
         23    2    1    2    0    0 -0.24987448888E+02  0.23778530748E+02  0.96034285738E+02  0.13712215415E+03  0.91597543602E+02 0.  0.
         23    2    1    2    0    0  0.48897399631E+02 -0.67340104581E+02 -0.13381422196E+01  0.12614238861E+03  0.94786424150E+02 0.  0.
        -11    1    4    4    0    0  0.42927627219E+02 -0.29138936571E+02 -0.44386776558E+02  0.68279167660E+02  0.00000000000E+00 0.  1.
         11    1    4    4    0    0  0.59697724117E+01 -0.38201168009E+02  0.43048634338E+02  0.57863220947E+02  0.00000000000E+00 0. -1.
        -11    1    3    3    0    0  0.26526628780E+02  0.61645437409E+01  0.73169755956E+02  0.78073534700E+02  0.00000000000E+00 0.  1.
         11    1    3    3    0    0 -0.51514077668E+02  0.17613987007E+02  0.22864529782E+02  0.59048619445E+02  0.00000000000E+00 0. -1.
          2    1    1    2  501    0 -0.23909950743E+02  0.43561573833E+02 -0.10296582176E+02  0.50747572000E+02  0.00000000000E+00 0. -1.
<scales pt_clust_5="13000.00000" pt_clust_6="13000.00000" pt_clust_7="13000.00000" pt_clust_8="13000.00000" pt_clust_9="49.69202"></scales>
<clustering>
<clus scale="   49.692">  2  9  1 -1</clus>
<clus scale="   91.598">  7  8 -1 -1</clus>
<clus scale="   94.786">  5  6 -1 -1</clus>
<clus scale="  102.581">  1  7  2 -1</clus>
<clus scale="   49.692">  2  5  1 -1</clus>
</clustering>
</event>
<event>
 9    1  0.1464797E-005  0.2319691E+03  0.7546771E-02  0.1125383E+00
          1   -1    0    0  502    0 -0.00000000000E+00  0.00000000000E+00  0.49998480593E+03  0.49998480593E+03  0.00000000000E+00 0. -1.
         21   -1    0    0  501  502  0.00000000000E+00 -0.00000000000E+00 -0.14837083512E+03  0.14837083512E+03  0.00000000000E+00 0. -1.
         23    2    1    2    0    0 -0.17458561310E+03 -0.12356247281E+03  0.25013357917E+03  0.34181935234E+03  0.92335481863E+02 0.  0.
         23    2    1    2    0    0  0.13622365721E+03  0.16433333376E+03  0.82815059321E+02  0.24752529488E+03  0.94064383197E+02 0.  0.
        -11    1    4    4    0    0 -0.41807106275E+01  0.49873966337E+02  0.47527620365E+01  0.50274045058E+02  0.00000000000E+00 0.  1.
         11    1    4    4    0    0  0.14040436783E+03  0.11445936742E+03  0.78062297285E+02  0.19725124982E+03  0.00000000000E+00 0. -1.
        -13    1    3    3    0    0 -0.65204359946E+02 -0.36142333225E+02  0.28816480755E+02  0.79926631169E+02  0.00000000000E+00 0.  1.
         13    1    3    3    0    0 -0.10938125316E+03 -0.87420139587E+02  0.22131709842E+03  0.26189272117E+03  0.00000000000E+00 0. -1.
          1    1    1    2  501    0  0.38361955896E+02 -0.40770860950E+02  0.18665332314E+02  0.59010993833E+02  0.00000000000E+00 0. -1.
<scales pt_clust_5="13000.00000" pt_clust_6="13000.00000" pt_clust_7="13000.00000" pt_clust_8="13000.00000" pt_clust_9="55.98127"></scales>
<clustering>
<clus scale="   55.981">  2  9  1 -1</clus>
<clus scale="   92.335">  7  8 -1 -1</clus>
<clus scale="   94.064">  5  6 -1 -1</clus>
<clus scale="  231.273">  1  7  2 -1</clus>
<clus scale="   55.981">  2  5  1 -1</clus>
</clustering>
</event>
<event>
 9    1  0.1464797E-005  0.2321537E+03  0.7546771E-02  0.1125213E+00
          1   -1    0    0  502    0 -0.00000000000E+00  0.00000000000E+00  0.14323353661E+04  0.14323353661E+04  0.00000000000E+00 0. -1.
         21   -1    0    0  501  502  0.00000000000E+00 -0.00000000000E+00 -0.59653084167E+02  0.59653084167E+02  0.00000000000E+00 0.  1.
         23    2    1    2    0    0  0.22165628801E+03  0.15794313762E+02  0.10122465777E+04  0.10401801502E+04  0.89166363937E+02 0.  0.
         23    2    1    2    0    0 -0.19639602757E+03  0.21934335170E+01  0.36100762100E+03  0.42079270892E+03  0.90353697528E+02 0.  0.
        -11    1    3    3    0    0  0.62268648650E+02  0.11619542699E+02  0.14256525302E+03  0.15600400555E+03  0.00000000000E+00 0.  1.
         11    1    3    3    0    0  0.15938763936E+03  0.41747710630E+01  0.86968132465E+03  0.88417614463E+03  0.00000000000E+00 0. -1.
        -13    1    4    4    0    0 -0.76428238895E+02  0.29612646157E+02  0.82431913613E+02  0.11624631132E+03  0.00000000000E+00 0. -1.
         13    1    4    4    0    0 -0.11996778868E+03 -0.27419212640E+02  0.27857570739E+03  0.30454639760E+03  0.00000000000E+00 0.  1.
          1    1    1    2  501    0 -0.25260260439E+02 -0.17987747279E+02 -0.57191669873E+00  0.31015591214E+02  0.00000000000E+00 0. -1.
<scales pt_clust_5="13000.00000" pt_clust_6="13000.00000" pt_clust_7="13000.00000" pt_clust_8="13000.00000" pt_clust_9="31.01032"></scales>
<clustering>
<clus scale="   31.010">  2  9  1 -1</clus>
<clus scale="   89.166">  5  6 -1 -1</clus>
<clus scale="   90.354">  7  8 -1 -1</clus>
<clus scale="  231.694">  1  5  2 -1</clus>
<clus scale="   31.010">  2  5  1 -1</clus>
</clustering>
</event>
<event>
 9    1  0.1464797E-005  0.2278203E+03  0.7546771E-02  0.1128986E+00
         21   -1    0    0  501  502  0.00000000000E+00  0.00000000000E+00  0.64053323916E+02  0.64053323916E+02  0.00000000000E+00 0.  1.
          2   -1    0    0  502    0 -0.00000000000E+00 -0.00000000000E+00 -0.10035029048E+04  0.10035029048E+04  0.00000000000E+00 0. -1.
         23    2    1    2    0    0  0.18335688957E+03 -0.60291690723E+02 -0.42686061415E+03  0.47554761589E+03  0.81735635688E+02 0.  0.
         23    2    1    2    0    0 -0.22635078908E+03  0.37926808991E+02 -0.42955795359E+03  0.49586906596E+03  0.93236111655E+02 0.  0.
        -11    1    4    4    0    0 -0.20139168235E+03  0.50748293917E+02 -0.41543203318E+03  0.46445427466E+03  0.00000000000E+00 0.  1.
         11    1    4    4    0    0 -0.24959106736E+02 -0.12821484926E+02 -0.14125920412E+02  0.31414791298E+02  0.00000000000E+00 0. -1.
        -11    1    3    3    0    0  0.15427548522E+03 -0.31521736520E+02 -0.38958701855E+03  0.42020541433E+03  0.00000000000E+00 0. -1.
         11    1    3    3    0    0  0.29081404359E+02 -0.28769954203E+02 -0.37273595603E+02  0.55342201560E+02  0.00000000000E+00 0.  1.
          2    1    1    2  501    0  0.42993899510E+02  0.22364881732E+02 -0.83031013164E+02  0.96139546895E+02  0.00000000000E+00 0. -1.
<scales pt_clust_5="13000.00000" pt_clust_6="13000.00000" pt_clust_7="13000.00000" pt_clust_8="13000.00000" pt_clust_9="48.46301"></scales>
<clustering>
<clus scale="   48.463">  1  9  2 -1</clus>
<clus scale="   81.736">  7  8 -1 -1</clus>
<clus scale="   93.236">  5  6 -1 -1</clus>
<clus scale="  223.360">  2  7  1 -1</clus>
<clus scale="   48.463">  1  5  2 -1</clus>
</clustering>
</event>
<event>
 9    1  0.1464797E-005  0.1260967E+03  0.7546771E-02  0.1233611E+00
         21   -1    0    0  501  502  0.00000000000E+00  0.00000000000E+00  0.42774154371E+02  0.42774154371E+02  0.00000000000E+00 0.  1.
          1   -1    0    0  502    0 -0.00000000000E+00 -0.00000000000E+00 -0.10440792849E+04  0.10440792849E+04  0.00000000000E+00 0. -1.
         23    2    1    2    0    0  0.83782744860E+02  0.31358843680E+02 -0.52546471440E+03  0.54084715423E+03  0.91649073892E+02 0.  0.
         23    2    1    2    0    0 -0.68778453355E+02 -0.50671295831E+02 -0.49778072883E+03  0.51315089145E+03  0.90775148216E+02 0.  0.
        -11    1    4    4    0    0  0.22534799538E+02 -0.88045684990E+01 -0.98422486263E+02  0.10135247120E+03  0.00000000000E+00 0. -1.
         11    1    4    4    0    0 -0.91313252893E+02 -0.41866727332E+02 -0.39935824257E+03  0.41179842025E+03  0.00000000000E+00 0.  1.
        -13    1    3    3    0    0  0.10318083410E+03  0.24000602590E+02 -0.46526354627E+03  0.47717133289E+03  0.00000000000E+00 0. -1.
         13    1    3    3    0    0 -0.19398089242E+02  0.73582410906E+01 -0.60201168136E+02  0.63675821338E+02  0.00000000000E+00 0.  1.
          1    1    1    2  501    0 -0.15004291505E+02  0.19312452151E+02  0.21940312656E+02  0.32855393638E+02  0.00000000000E+00 0. -1.
<scales pt_clust_5="13000.00000" pt_clust_6="13000.00000" pt_clust_7="13000.00000" pt_clust_8="13000.00000" pt_clust_9="24.45607"></scales>
<clustering>
<clus scale="   24.456">  1  9  2 -1</clus>
<clus scale="   90.775">  5  6 -1 -1</clus>
<clus scale="   91.649">  7  8 -1 -1</clus>
<clus scale="  125.463">  1  5  2 -1</clus>
<clus scale="   24.456">  1  5  2 -1</clus>
</clustering>
</event>
<event>
 9    1  0.1464797E-005  0.1865866E+03  0.7546771E-02  0.1186532E+00
          2   -1    0    0  502    0 -0.00000000000E+00  0.00000000000E+00  0.15214563952E+03  0.15214563952E+03  0.00000000000E+00 0.  1.
         21   -1    0    0  501  502  0.00000000000E+00 -0.00000000000E+00 -0.40980175440E+03  0.40980175440E+03  0.00000000000E+00 0. -1.
         23    2    1    2    0    0 -0.24620123825E+02  0.44520087991E+02  0.33791881825E+02  0.11111522856E+03  0.92825179816E+02 0.  0.
         23    2    1    2    0    0 -0.35367776014E+02 -0.16843336349E+03 -0.15820472384E+03  0.25924193143E+03  0.11205787277E+03 0.  0.
        -11    1    4    4    0    0 -0.34563795514E+02 -0.21627205203E+02 -0.86993240144E+02  0.96074012074E+02  0.00000000000E+00 0. -1.
         11    1    4    4    0    0 -0.80398050069E+00 -0.14680615829E+03 -0.71211483692E+02  0.16316791936E+03  0.00000000000E+00 0.  1.
        -13    1    3    3    0    0  0.87436359310E+01  0.27437355254E+02 -0.27144395481E+02  0.39573701351E+02  0.00000000000E+00 0.  1.
         13    1    3    3    0    0 -0.33363759756E+02  0.17082732737E+02  0.60936277306E+02  0.71541527205E+02  0.00000000000E+00 0. -1.
          2    1    1    2  501    0  0.59987899839E+02  0.12391327550E+03 -0.13324327287E+03  0.19159023394E+03  0.00000000000E+00 0.  1.
<scales pt_clust_5="13000.00000" pt_clust_6="13000.00000" pt_clust_7="13000.00000" pt_clust_8="13000.00000" pt_clust_9="149.18981"></scales>
<clustering>
<clus scale="   92.825">  7  8 -1 -1</clus>
<clus scale="  105.852">  1  7  2 -1</clus>
<clus scale="  112.058">  5  6 -1 -1</clus>
<clus scale="  149.190">  2  9  1 -1</clus>
<clus scale="  149.190">  2  5  1 -1</clus>
</clustering>
</event>
<event>
 9    1  0.1464797E-005  0.1107530E+03  0.7546771E-02  0.1260049E+00
         21   -1    0    0  501  502  0.00000000000E+00  0.00000000000E+00  0.15111698960E+03  0.15111698960E+03  0.00000000000E+00 0. -1.
          3   -1    0    0  502    0 -0.00000000000E+00 -0.00000000000E+00 -0.37241246619E+03  0.37241246619E+03  0.00000000000E+00 0. -1.
         23    2    1    2    0    0  0.73078416270E+02  0.55173103631E+01 -0.28846201692E+03  0.31107940780E+03  0.90494017011E+02 0.  0.
         23    2    1    2    0    0  0.23150079565E+02 -0.33582122187E+02  0.34463802863E+02  0.10701273908E+03  0.92737735051E+02 0.  0.
        -11    1    4    4    0    0  0.58809753689E+02 -0.28292414012E+02  0.22225215078E+02  0.68942062668E+02  0.00000000000E+00 0. -1.
         11    1    4    4    0    0 -0.35659674124E+02 -0.52897081747E+01  0.12238587784E+02  0.38070676408E+02  0.00000000000E+00 0.  1.
        -13    1    3    3    0    0 -0.80478604721E+01 -0.27651680041E+02 -0.70289632116E+02  0.75960620391E+02  0.00000000000E+00 0.  1.
         13    1    3    3    0    0  0.81126276742E+02  0.33168990404E+02 -0.21817238481E+03  0.23511878741E+03  0.00000000000E+00 0. -1.
          3    1    1    2  501    0 -0.96228495835E+02  0.28064811824E+02  0.32702737472E+02  0.10543730892E+03  0.00000000000E+00 0. -1.
<scales pt_clust_5="13000.00000" pt_clust_6="13000.00000" pt_clust_7="13000.00000" pt_clust_8="13000.00000" pt_clust_9="100.23750"></scales>
<clustering>
<clus scale="   90.494">  7  8 -1 -1</clus>
<clus scale="   92.738">  5  6 -1 -1</clus>
<clus scale="  100.238">  1  9  2 -1</clus>
<clus scale="  108.881">  2  7  1 -1</clus>
<clus scale="  100.238">  1  5  2 -1</clus>
</clustering>
</event>
<event>
 9    1  0.1464797E-005  0.1089325E+03  0.7546771E-02  0.1264583E+00
         21   -1    0    0  501  502  0.00000000000E+00  0.00000000000E+00  0.68412393760E+02  0.68412393760E+02  0.00000000000E+00 0. -1.
          1   -1    0    0  502    0 -0.00000000000E+00 -0.00000000000E+00 -0.34674347474E+03  0.34674347474E+03  0.00000000000E+00 0. -1.
         23    2    1    2    0    0 -0.63927536800E+02  0.32163148421E+02 -0.23168699371E+03  0.25710822383E+03  0.85466821800E+02 0.  0.
         23    2    1    2    0    0  0.33725103341E+02 -0.17250369593E+02 -0.66832131421E+02  0.11877761683E+03  0.90590455474E+02 0.  0.
        -13    1    3    3    0    0 -0.88645480339E+00  0.28736222639E+02 -0.17154571534E+02  0.33478883168E+02  0.00000000000E+00 0.  1.
         13    1    3    3    0    0 -0.63041081997E+02  0.34269257816E+01 -0.21453242218E+03  0.22362934066E+03  0.00000000000E+00 0. -1.
        -13    1    4    4    0    0  0.62751685699E+02 -0.19120981913E+02 -0.30801245589E+02  0.72471392544E+02  0.00000000000E+00 0.  1.
         13    1    4    4    0    0 -0.29026582358E+02  0.18706123200E+01 -0.36030885832E+02  0.46306224286E+02  0.00000000000E+00 0. -1.
          1    1    1    2  501    0  0.30202433459E+02 -0.14912778827E+02  0.20188044158E+02  0.39270027835E+02  0.00000000000E+00 0. -1.
<scales pt_clust_5="13000.00000" pt_clust_6="13000.00000" pt_clust_7="13000.00000" pt_clust_8="13000.00000" pt_clust_9="33.68350"></scales>
<clustering>
<clus scale="   33.683">  1  9  2 -1</clus>
<clus scale="   85.467">  5  6 -1 -1</clus>
<clus scale="   90.590">  7  8 -1 -1</clus>
<clus scale="  104.710">  2  5  1 -1</clus>
<clus scale="   33.683">  1  5  2 -1</clus>
</clustering>
</event>
<event>
 9    1  0.1464797E-005  0.1731775E+03  0.7546771E-02  0.1174599E+00
          1   -1    0    0  502    0 -0.00000000000E+00  0.00000000000E+00  0.46569633745E+03  0.46569633745E+03  0.00000000000E+00 0. -1.
         21   -1    0    0  501  502  0.00000000000E+00 -0.00000000000E+00 -0.11607888258E+03  0.11607888258E+03  0.00000000000E+00 0.  1.
         23    2    1    2    0    0  0.10195408338E+03 -0.96247797483E+02  0.18230330276E+03  0.24694965634E+03  0.89952014607E+02 0.  0.
         23    2    1    2    0    0 -0.10086357213E+03  0.11910915445E+03  0.21582509296E+03  0.28118656446E+03  0.90138573448E+02 0.  0.
        -11    1    4    4    0    0 -0.66275869915E+01  0.29912058950E+02  0.15379900909E+01  0.30676075262E+02  0.00000000000E+00 0.  1.
         11    1    4    4    0    0 -0.94235985143E+02  0.89197095504E+02  0.21428710287E+03  0.25051048920E+03  0.00000000000E+00 0. -1.
        -11    1    3    3    0    0  0.87102426865E+02 -0.11223544407E+03  0.14058738934E+03  0.19987106272E+03  0.00000000000E+00 0.  1.
         11    1    3    3    0    0  0.14851656512E+02  0.15987646591E+02  0.41715913415E+02  0.47078593615E+02  0.00000000000E+00 0. -1.
          1    1    1    2  501    0 -0.10905112422E+01 -0.22861356972E+02 -0.48510940848E+02  0.53638999239E+02  0.00000000000E+00 0. -1.
<scales pt_clust_5="13000.00000" pt_clust_6="13000.00000" pt_clust_7="13000.00000" pt_clust_8="13000.00000" pt_clust_9="22.88735"></scales>
<clustering>
<clus scale="   22.887">  2  9  1 -1</clus>
<clus scale="   89.952">  7  8 -1 -1</clus>
<clus scale="   90.139">  5  6 -1 -1</clus>
<clus scale="  173.080">  1  7  2 -1</clus>
<clus scale="   22.887">  2  5  1 -1</clus>
</clustering>
</event>
<event>
 9    1  0.1464797E-005  0.9846225E+02  0.7546771E-02  0.1289979E+00
         -2   -1    0    0    0  501 -0.00000000000E+00  0.00000000000E+00  0.27046166469E+03  0.27046166469E+03  0.00000000000E+00 0.  1.
         21   -1    0    0  501  502  0.00000000000E+00 -0.00000000000E+00 -0.18076049095E+03  0.18076049095E+03  0.00000000000E+00 0.  1.
         23    2    1    2    0    0 -0.39553645267E+02 -0.52458241748E+01  0.23482863958E+03  0.25523230371E+03  0.91689854210E+02 0.  0.
         23    2    1    2    0    0 -0.68912341639E+01 -0.13726087314E+02 -0.98112070535E+02  0.12723297847E+03  0.79538404839E+02 0.  0.
        -11    1    3    3    0    0 -0.15759485720E+02 -0.47124974820E+02  0.14541198765E+03  0.15366772854E+03  0.00000000000E+00 0.  1.
         11    1    3    3    0    0 -0.23794159548E+02  0.41879150645E+02  0.89416651932E+02  0.10156457517E+03  0.00000000000E+00 0. -1.
        -11    1    4    4    0    0 -0.16778495870E+02 -0.43437341756E+02 -0.75133233088E+02  0.88393004796E+02  0.00000000000E+00 0.  1.
         11    1    4    4    0    0  0.98872617062E+01  0.29711254443E+02 -0.22978837446E+02  0.38839973674E+02  0.00000000000E+00 0. -1.
         -2    1    1    2    0  502  0.46444879431E+02  0.18971911488E+02 -0.47015395307E+02  0.68756873451E+02  0.00000000000E+00 0.  1.
<scales pt_clust_5="13000.00000" pt_clust_6="13000.00000" pt_clust_7="13000.00000" pt_clust_8="13000.00000" pt_clust_9="50.17031"></scales>
<clustering>
<clus scale="   50.170">  2  9  1 -1</clus>
<clus scale="   79.538">  7  8 -1 -1</clus>
<clus scale="   87.259">  2  7  1 -1</clus>
<clus scale="   91.690">  5  6 -1 -1</clus>
<clus scale="   50.170">  2  5  1 -1</clus>
</clustering>
</event>
<event>
 9    1  0.1464797E-005  0.9516180E+02  0.7546771E-02  0.1293615E+00
         21   -1    0    0  501  502  0.00000000000E+00  0.00000000000E+00  0.21061153433E+03  0.21061153433E+03  0.00000000000E+00 0. -1.
         -1   -1    0    0    0  501 -0.00000000000E+00 -0.00000000000E+00 -0.77978312343E+02  0.77978312343E+02  0.00000000000E+00 0.  1.
         23    2    1    2    0    0  0.41714715416E+01  0.21417977613E+02 -0.70111728354E+01  0.94722345180E+02  0.91907753710E+02 0.  0.
         23    2    1    2    0    0  0.31235838815E+02 -0.30787135335E+02  0.93521353918E+02  0.13497103602E+03  0.86875840120E+02 0.  0.
        -11    1    4    4    0    0 -0.23595819445E+00 -0.49045823470E+02  0.84147889394E+02  0.97398232867E+02  0.00000000000E+00 0. -1.
         11    1    4    4    0    0  0.31471797009E+02  0.18258688136E+02  0.93734645236E+01  0.37572803151E+02  0.00000000000E+00 0.  1.
        -13    1    3    3    0    0 -0.28730556547E+02  0.18085565495E+02  0.29846434094E+02  0.45203342652E+02  0.00000000000E+00 0.  1.
         13    1    3    3    0    0  0.32902028088E+02  0.33324121185E+01 -0.36857606929E+02  0.49519002529E+02  0.00000000000E+00 0. -1.
         -1    1    1    2    0  502 -0.35407310357E+02  0.93691577216E+01  0.46123040900E+02  0.58896465471E+02  0.00000000000E+00 0.  1.
<scales pt_clust_5="13000.00000" pt_clust_6="13000.00000" pt_clust_7="13000.00000" pt_clust_8="13000.00000" pt_clust_9="36.62593"></scales>
<clustering>
<clus scale="   36.626">  1  9  2 -1</clus>
<clus scale="   86.876">  5  6 -1 -1</clus>
<clus scale="   90.311">  1  5  2 -1</clus>
<clus scale="   91.908">  7  8 -1 -1</clus>
<clus scale="   36.626">  1  5  2 -1</clus>
</clustering>
</event>
<event>
 9    1  0.1464797E-005  0.1071755E+03  0.7546771E-02  0.1273338E+00
          2   -1    0    0  502    0 -0.00000000000E+00  0.00000000000E+00  0.73301173712E+03  0.73301173712E+03  0.00000000000E+00 0. -1.
         21   -1    0    0  501  502  0.00000000000E+00 -0.00000000000E+00 -0.18040347769E+02  0.18040347769E+02  0.00000000000E+00 0.  1.
         23    2    1    2    0    0  0.12977477020E+02  0.90464339739E+01  0.39960794955E+03  0.41327742385E+03  0.10421834217E+03 0.  0.
         23    2    1    2    0    0 -0.23938842640E+02 -0.26813102731E+02  0.28571729224E+03  0.30151586734E+03  0.89361269626E+02 0.  0.
        -11    1    3    3    0    0 -0.20027074399E+02 -0.39893137692E+02  0.21007697532E+03  0.21476704054E+03  0.00000000000E+00 0.  1.
         11    1    3    3    0    0  0.33004551419E+02  0.48939571666E+02  0.18953097423E+03  0.19851038331E+03  0.00000000000E+00 0. -1.
        -11    1    4    4    0    0 -0.56906277086E+02 -0.26671482450E+02  0.17228207169E+03  0.18338703491E+03  0.00000000000E+00 0.  1.
         11    1    4    4    0    0  0.32967434445E+02 -0.14162028102E+00  0.11343522054E+03  0.11812883243E+03  0.00000000000E+00 0. -1.
          2    1    1    2  501    0  0.10961365620E+02  0.17766668757E+02  0.29646147567E+02  0.36258793699E+02  0.00000000000E+00 0. -1.
<scales pt_clust_5="13000.00000" pt_clust_6="13000.00000" pt_clust_7="13000.00000" pt_clust_8="13000.00000" pt_clust_9="20.87597"></scales>
<clustering>
<clus scale="   20.876">  2  9  1 -1</clus>
<clus scale="   89.361">  7  8 -1 -1</clus>
<clus scale="   92.793">  2  7  1 -1</clus>
<clus scale="  104.218">  5  6 -1 -1</clus>
<clus scale="   20.876">  2  5  1 -1</clus>
</clustering>
</event>
<event>
 9    1  0.1464797E-005  0.1409987E+03  0.7546771E-02  0.1212575E+00
         -1   -1    0    0    0  501 -0.00000000000E+00  0.00000000000E+00  0.16995900005E+03  0.16995900005E+03  0.00000000000E+00 0.  1.
         21   -1    0    0  501  502  0.00000000000E+00 -0.00000000000E+00 -0.34074885686E+03  0.34074885686E+03  0.00000000000E+00 0.  1.
         23    2    1    2    0    0 -0.78214841828E+02  0.83580926368E+02  0.10331330181E+03  0.17832948347E+03  0.89579202992E+02 0.  0.
         23    2    1    2    0    0  0.11392044811E+02 -0.77255844044E+02 -0.17703161426E+03  0.21436067310E+03  0.92260834607E+02 0.  0.
        -13    1    4    4    0    0 -0.38871283150E+02 -0.42436105665E+02 -0.10617922027E+03  0.12077179528E+03  0.00000000000E+00 0.  1.
         13    1    4    4    0    0  0.50263327961E+02 -0.34819738379E+02 -0.70852393984E+02  0.93588877821E+02  0.00000000000E+00 0. -1.
        -13    1    3    3    0    0 -0.23699889336E+02  0.99663671528E+01  0.79683364156E+02  0.83728440521E+02  0.00000000000E+00 0.  1.
         13    1    3    3    0    0 -0.54514952492E+02  0.73614559215E+02  0.23629937659E+02  0.94601042951E+02  0.00000000000E+00 0. -1.
         -1    1    1    2    0  502  0.66822797017E+02 -0.63250823246E+01 -0.97071544365E+02  0.11801770034E+03  0.00000000000E+00 0.  1.
<scales pt_clust_5="13000.00000" pt_clust_6="13000.00000" pt_clust_7="13000.00000" pt_clust_8="13000.00000" pt_clust_9="67.12148"></scales>
<clustering>
<clus scale="   67.121">  2  9  1 -1</clus>
<clus scale="   89.579">  7  8 -1 -1</clus>
<clus scale="   92.261">  5  6 -1 -1</clus>
<clus scale="  139.259">  1  7  2 -1</clus>
<clus scale="   67.121">  2  5  1 -1</clus>
</clustering>
</event>
<event>
 9    1  0.1464797E-005  0.9367569E+02  0.7546771E-02  0.1294405E+00
         21   -1    0    0  501  502  0.00000000000E+00  0.00000000000E+00  0.65644375030E+03  0.65644375030E+03  0.00000000000E+00 0.  1.
         -1   -1    0    0    0  501 -0.00000000000E+00 -0.00000000000E+00 -0.86106605007E+02  0.86106605007E+02  0.00000000000E+00 0.  1.
         23    2    1    2    0    0 -0.14700539267E+02 -0.52127443680E+01 -0.30547591373E+02  0.96290774465E+02  0.89974881771E+02 0.  0.
         23    2    1    2    0    0  0.65873650563E+02  0.69624900444E+02  0.21860235720E+03  0.25522578330E+03  0.90367279961E+02 0.  0.
        -11    1    3    3    0    0 -0.13812042565E+01 -0.43040356129E+02 -0.35596339498E+02  0.55870201061E+02  0.00000000000E+00 0.  1.
         11    1    3    3    0    0 -0.13319335010E+02  0.37827611761E+02  0.50487481246E+01  0.40420573404E+02  0.00000000000E+00 0. -1.
        -13    1    4    4    0    0  0.31780365694E+02  0.37362000597E+02  0.23191293989E+02  0.54256306999E+02  0.00000000000E+00 0.  1.
         13    1    4    4    0    0  0.34093284869E+02  0.32262899847E+02  0.19541106321E+03  0.20096947630E+03  0.00000000000E+00 0. -1.
         -1    1    1    2    0  502 -0.51173111296E+02 -0.64412156076E+02  0.38228237947E+03  0.39103379754E+03  0.00000000000E+00 0.  1.
<scales pt_clust_5="13000.00000" pt_clust_6="13000.00000" pt_clust_7="13000.00000" pt_clust_8="13000.00000" pt_clust_9="82.26550"></scales>
<clustering>
<clus scale="   82.266">  1  9  2 -1</clus>
<clus scale="   89.975">  5  6 -1 -1</clus>
<clus scale="   90.367">  7  8 -1 -1</clus>
<clus scale="   93.297">  2  5  1 -1</clus>
<clus scale="   82.266">  1  5  2 -1</clus>
</clustering>
</event>
<event>
 9    1  0.1464797E-005  0.9871337E+02  0.7546771E-02  0.1283201E+00
          3   -1    0    0  502    0 -0.00000000000E+00  0.00000000000E+00  0.26091742165E+03  0.26091742165E+03  0.00000000000E+00 0. -1.
         21   -1    0    0  501  502  0.00000000000E+00 -0.00000000000E+00 -0.74289193492E+02  0.74289193492E+02  0.00000000000E+00 0.  1.
         23    2    1    2    0    0  0.45679691065E+02  0.14624802731E+02  0.12195582674E+03  0.16045941933E+03  0.92593102041E+02 0.  0.
         23    2    1    2    0    0  0.42929797340E+01 -0.13868220400E+02  0.46362117788E+00  0.93380078966E+02  0.92243520049E+02 0.  0.
        -11    1    3    3    0    0 -0.23485348781E+02  0.23252307427E+02  0.27046243200E+02  0.42705159867E+02  0.00000000000E+00 0.  1.
         11    1    3    3    0    0  0.69165039846E+02 -0.86275046955E+01  0.94909583540E+02  0.11775425946E+03  0.00000000000E+00 0. -1.
        -13    1    4    4    0    0 -0.43037677943E+02 -0.11253057764E+02  0.85323768663E+01  0.45295413529E+02  0.00000000000E+00 0.  1.
         13    1    4    4    0    0  0.47330657677E+02 -0.26151626363E+01 -0.80687556884E+01  0.48084665436E+02  0.00000000000E+00 0. -1.
          3    1    1    2  501    0 -0.49972670799E+02 -0.75658233085E+00  0.64208780236E+02  0.81367116841E+02  0.00000000000E+00 0. -1.
<scales pt_clust_5="13000.00000" pt_clust_6="13000.00000" pt_clust_7="13000.00000" pt_clust_8="13000.00000" pt_clust_9="49.97842"></scales>
<clustering>
<clus scale="   49.978">  2  9  1 -1</clus>
<clus scale="   92.244">  7  8 -1 -1</clus>
<clus scale="   92.593">  5  6 -1 -1</clus>
<clus scale="   98.386">  2  7  1 -1</clus>
<clus scale="   49.978">  2  5  1 -1</clus>
</clustering>
</event>
<event>
 9    1  0.1464797E-005  0.1067327E+03  0.7546771E-02  0.1270605E+00
         21   -1    0    0  501  502  0.00000000000E+00  0.00000000000E+00  0.94261196787E+02  0.94261196787E+02  0.00000000000E+00 0.  1.
          2   -1    0    0  502    0 -0.00000000000E+00 -0.00000000000E+00 -0.19348984843E+03  0.19348984843E+03  0.00000000000E+00 0. -1.
         23    2    1    2    0    0 -0.42291611651E+01 -0.26644527296E+02 -0.83771133140E+02  0.13332306971E+03  0.10014799813E+03 0.  0.
         23    2    1    2    0    0 -0.16306092826E+02  0.60266479795E+02  0.25003745140E+01  0.11113111341E+03  0.91901769542E+02 0.  0.
        -11    1    3    3    0    0  0.41537721792E+02 -0.21644073653E+02 -0.71844484560E+02  0.85764084660E+02  0.00000000000E+00 0.  1.
         11    1    3    3    0    0 -0.45766882957E+02 -0.50004536431E+01 -0.11926648580E+02  0.47558985046E+02  0.00000000000E+00 0. -1.
        -13    1    4    4    0    0 -0.99583102455E+00  0.27758453754E+02 -0.44202123063E+02  0.52204895532E+02  0.00000000000E+00 0. -1.
         13    1    4    4    0    0 -0.15310261802E+02  0.32508026040E+02  0.46702497577E+02  0.58926217878E+02  0.00000000000E+00 0.  1.
          2    1    1    2  501    0  0.20535253991E+02 -0.33621952499E+02 -0.17957893022E+02  0.43296862105E+02  0.00000000000E+00 0. -1.
<scales pt_clust_5="13000.00000" pt_clust_6="13000.00000" pt_clust_7="13000.00000" pt_clust_8="13000.00000" pt_clust_9="39.39713"></scales>
<clustering>
<clus scale="   39.397">  1  9  2 -1</clus>
<clus scale="   91.902">  7  8 -1 -1</clus>
<clus scale="   99.036">  1  7  2 -1</clus>
<clus scale="  100.148">  5  6 -1 -1</clus>
<clus scale="   39.397">  1  5  2 -1</clus>
</clustering>
</event>
<event>
 9    1  0.1464797E-005  0.9248377E+02  0.7546771E-02  0.1297575E+00
         21   -1    0    0  501  502  0.00000000000E+00  0.00000000000E+00  0.18010391994E+03  0.18010391994E+03  0.00000000000E+00 0. -1.
         -3   -1    0    0    0  501 -0.00000000000E+00 -0.00000000000E+00 -0.81482453688E+02  0.81482453688E+02  0.00000000000E+00 0.  1.
         23    2    1    2    0    0 -0.98853089274E+01  0.54052375606E+01 -0.10761885168E+02  0.92697449284E+02  0.91378679163E+02 0.  0.
         23    2    1    2    0    0 -0.20493146484E+02  0.73110559497E+01  0.89000057654E+02  0.13015866049E+03  0.92449153839E+02 0.  0.
        -13    1    4    4    0    0 -0.34102588528E+02 -0.33710514875E+02  0.28419373917E+02  0.55740884198E+02  0.00000000000E+00 0.  1.
         13    1    4    4    0    0  0.13609442044E+02  0.41021570824E+02  0.60580683738E+02  0.74417776289E+02  0.00000000000E+00 0. -1.
        -13    1    3    3    0    0 -0.25874370416E+02  0.18797845991E+02 -0.43432296153E+02  0.53937059685E+02  0.00000000000E+00 0.  1.
         13    1    3    3    0    0  0.15989061489E+02 -0.13392608430E+02  0.32670410985E+02  0.38760389598E+02  0.00000000000E+00 0. -1.
         -3    1    1    2    0  502  0.30378455411E+02 -0.12716293510E+02  0.20383293769E+02  0.38730263861E+02  0.00000000000E+00 0.  1.
<scales pt_clust_5="13000.00000" pt_clust_6="13000.00000" pt_clust_7="13000.00000" pt_clust_8="13000.00000" pt_clust_9="32.93258"></scales>
<clustering>
<clus scale="   32.933">  1  9  2 -1</clus>
<clus scale="   91.379">  7  8 -1 -1</clus>
<clus scale="   91.414">  2  7  1 -1</clus>
<clus scale="   92.449">  5  6 -1 -1</clus>
<clus scale="   32.933">  1  5  2 -1</clus>
</clustering>
</event>
<event>
 9    1  0.1464797E-005  0.1020770E+03  0.7546771E-02  0.1281535E+00
         21   -1    0    0  501  502  0.00000000000E+00  0.00000000000E+00  0.17687247252E+03  0.17687247252E+03  0.00000000000E+00 0.  1.
          2   -1    0    0  502    0 -0.00000000000E+00 -0.00000000000E+00 -0.80751239319E+02  0.80751239319E+02  0.00000000000E+00 0. -1.
         23    2    1    2    0    0 -0.11316630808E+02 -0.39407881829E+02  0.11237211661E+02  0.10363399483E+03  0.94512870419E+02 0.  0.
         23    2    1    2    0    0  0.29111529916E+02  0.26098167865E+02  0.33424901420E+02  0.97937527370E+02  0.83342304339E+02 0.  0.
        -11    1    3    3    0    0 -0.25184105886E+01 -0.58607863085E+02  0.37733882365E+02  0.69750052943E+02  0.00000000000E+00 0.  1.
         11    1    3    3    0    0 -0.87982202190E+01  0.19199981255E+02 -0.26496670704E+02  0.33883941884E+02  0.00000000000E+00 0. -1.
        -13    1    4    4    0    0  0.44704360945E+02  0.80064214142E+01  0.50995199364E+02  0.68286843752E+02  0.00000000000E+00 0.  1.
         13    1    4    4    0    0 -0.15592831030E+02  0.18091746450E+02 -0.17570297945E+02  0.29650683618E+02  0.00000000000E+00 0. -1.
          2    1    1    2  501    0 -0.17794899108E+02  0.13309713964E+02  0.51459120123E+02  0.56052189644E+02  0.00000000000E+00 0. -1.
<scales pt_clust_5="13000.00000" pt_clust_6="13000.00000" pt_clust_7="13000.00000" pt_clust_8="13000.00000" pt_clust_9="22.22177"></scales>
<clustering>
<clus scale="   22.222">  1  9  2 -1</clus>
<clus scale="   83.342">  7  8 -1 -1</clus>
<clus scale="   91.831">  1  7  2 -1</clus>
<clus scale="   94.513">  5  6 -1 -1</clus>
<clus scale="   22.222">  1  5  2 -1</clus>
</clustering>
</event>
<event>
 9    1  0.1464797E-005  0.9304335E+02  0.7546771E-02  0.1296881E+00
          1   -1    0    0  502    0 -0.00000000000E+00  0.00000000000E+00  0.20256213049E+03  0.20256213049E+03  0.00000000000E+00 0. -1.
         21   -1    0    0  501  502  0.00000000000E+00 -0.00000000000E+00 -0.10892846777E+03  0.10892846777E+03  0.00000000000E+00 0. -1.
         23    2    1    2    0    0 -0.32084317912E+01 -0.87452443835E+01  0.81989721584E+02  0.12425927918E+03  0.92904686010E+02 0.  0.
         23    2    1    2    0    0 -0.10560453336E+02 -0.16948565555E+02  0.73723972738E+02  0.11864790716E+03  0.90792756693E+02 0.  0.
        -13    1    4    4    0    0 -0.41858043575E+02 -0.99257718105E+01  0.56406226268E+01  0.43387018584E+02  0.00000000000E+00 0. -1.
         13    1    4    4    0    0  0.31297590239E+02 -0.70227937442E+01  0.68083350111E+02  0.75260888575E+02  0.00000000000E+00 0.  1.
        -13    1    3    3    0    0  0.77275603874E+01  0.33884392323E+02  0.43661679058E+01  0.35027569925E+02  0.00000000000E+00 0.  1.
         13    1    3    3    0    0 -0.10935992179E+02 -0.42629636707E+02  0.77623553678E+02  0.89231709253E+02  0.00000000000E+00 0. -1.
          1    1    1    2  501    0  0.13768885127E+02  0.25693809938E+02 -0.62080031604E+02  0.68583411921E+02  0.00000000000E+00 0. -1.
<scales pt_clust_5="13000.00000" pt_clust_6="13000.00000" pt_clust_7="13000.00000" pt_clust_8="13000.00000" pt_clust_9="29.15054"></scales>
<clustering>
<clus scale="   29.151">  2  9  1 -1</clus>
<clus scale="   90.793">  5  6 -1 -1</clus>
<clus scale="   90.935">  2  5  1 -1</clus>
<clus scale="   92.905">  7  8 -1 -1</clus>
<clus scale="   29.151">  2  5  1 -1</clus>
</clustering>
</event>
<event>
 9    1  0.1464797E-005  0.9280414E+02  0.7546771E-02  0.1297883E+00
         21   -1    0    0  501  502  0.00000000000E+00  0.00000000000E+00  0.27573385664E+02  0.27573385664E+02  0.00000000000E+00 0. -1.
         -3   -1    0    0    0  501 -0.00000000000E+00 -0.00000000000E+00 -0.40287276948E+03  0.40287276948E+03  0.00000000000E+00 0.  1.
         23    2    1    2    0    0 -0.72270694313E+01 -0.27157848108E+02 -0.20669450505E+03  0.22632972757E+03  0.87822251841E+02 0.  0.
         23    2    1    2    0    0 -0.59630517122E+01  0.90865996932E+01 -0.14649147025E+03  0.17265927972E+03  0.90737818664E+02 0.  0.
        -11    1    4    4    0    0 -0.29983657894E+02  0.25415873120E+02 -0.13633706159E+03  0.14189003034E+03  0.00000000000E+00 0. -1.
         11    1    4    4    0    0  0.24020606182E+02 -0.16329273427E+02 -0.10154408666E+02  0.30769249379E+02  0.00000000000E+00 0.  1.
        -13    1    3    3    0    0 -0.23218968886E+01 -0.48733011275E+02 -0.19557207100E+03  0.20156570281E+03  0.00000000000E+00 0.  1.
         13    1    3    3    0    0 -0.49051725427E+01  0.21575163168E+02 -0.11122434053E+02  0.24764024766E+02  0.00000000000E+00 0. -1.
         -3    1    1    2    0  502  0.13190121143E+02  0.18071248414E+02 -0.22113408506E+02  0.31457147849E+02  0.00000000000E+00 0.  1.
<scales pt_clust_5="13000.00000" pt_clust_6="13000.00000" pt_clust_7="13000.00000" pt_clust_8="13000.00000" pt_clust_9="22.37296"></scales>
<clustering>
<clus scale="   22.373">  1  9  2 -1</clus>
<clus scale="   87.822">  7  8 -1 -1</clus>
<clus scale="   89.956">  2  7  1 -1</clus>
<clus scale="   90.738">  5  6 -1 -1</clus>
<clus scale="   22.373">  1  5  2 -1</clus>
</clustering>
</event>
<event>
 9    1  0.1464797E-005  0.1339280E+03  0.7546771E-02  0.1221792E+00
          2   -1    0    0  502    0 -0.00000000000E+00  0.00000000000E+00  0.11219347100E+03  0.11219347100E+03  0.00000000000E+00 0. -1.
         21   -1    0    0  501  502  0.00000000000E+00 -0.00000000000E+00 -0.48290856165E+03  0.48290856165E+03  0.00000000000E+00 0. -1.
         23    2    1    2    0    0 -0.59289739279E+02  0.53216215975E+02 -0.11763475752E+02  0.12116749172E+03  0.90531446814E+02 0.  0.
         23    2    1    2    0    0  0.57687960036E+02 -0.15532941713E+03 -0.14893661440E+03  0.24040515952E+03  0.90318309650E+02 0.  0.
        -13    1    3    3    0    0 -0.45718512700E+02 -0.12360271249E+02  0.14047638744E+02  0.49399340716E+02  0.00000000000E+00 0.  1.
         13    1    3    3    0    0 -0.13571226578E+02  0.65576487224E+02 -0.25811114495E+02  0.71768151007E+02  0.00000000000E+00 0. -1.
        -13    1    4    4    0    0 -0.23132204600E+02 -0.37595108419E+02 -0.21913343519E+02  0.49281697321E+02  0.00000000000E+00 0.  1.
         13    1    4    4    0    0  0.80820164635E+02 -0.11773430871E+03 -0.12702327088E+03  0.19112346220E+03  0.00000000000E+00 0. -1.
          2    1    1    2  501    0  0.16017792431E+01  0.10211320115E+03 -0.21001500050E+03  0.23352938141E+03  0.00000000000E+00 0. -1.
<scales pt_clust_5="13000.00000" pt_clust_6="13000.00000" pt_clust_7="13000.00000" pt_clust_8="13000.00000" pt_clust_9="102.12576"></scales>
<clustering>
<clus scale="   90.318">  7  8 -1 -1</clus>
<clus scale="   90.531">  5  6 -1 -1</clus>
<clus scale="  102.126">  2  9  1 -1</clus>
<clus scale="  133.784">  2  7  1 -1</clus>
<clus scale="  102.126">  2  5  1 -1</clus>
</clustering>
</event>
<event>
 9    1  0.1464797E-005  0.9839242E+02  0.7546771E-02  0.1284043E+00
         21   -1    0    0  501  502  0.00000000000E+00  0.00000000000E+00  0.24692895617E+03  0.24692895617E+03  0.00000000000E+00 0.  1.
         -1   -1    0    0    0  501 -0.00000000000E+00 -0.00000000000E+00 -0.83967574613E+02  0.83967574613E+02  0.00000000000E+00 0.  1.
         23    2    1    2    0    0 -0.57978910843E+01  0.29018521029E+02  0.47417049993E+01  0.94758245513E+02  0.89894111168E+02 0.  0.
         23    2    1    2    0    0  0.81848844902E+01 -0.50530472219E+02  0.33105234343E+02  0.10916551090E+03  0.90558441195E+02 0.  0.
        -11    1    3    3    0    0  0.21224930136E+02 -0.25414495697E+02 -0.40325909879E+01  0.33356499230E+02  0.00000000000E+00 0.  1.
         11    1    3    3    0    0 -0.27022821220E+02  0.54433016725E+02  0.87742959872E+01  0.61401746283E+02  0.00000000000E+00 0. -1.
        -11    1    4    4    0    0  0.41966269148E+02 -0.55745789788E+02  0.20377045995E+02  0.72691023027E+02  0.00000000000E+00 0.  1.
         11    1    4    4    0    0 -0.33781384658E+02  0.52153175690E+01  0.12728188348E+02  0.36474487870E+02  0.00000000000E+00 0. -1.
         -1    1    1    2    0  502 -0.23869934059E+01  0.21511951190E+02  0.12511444221E+03  0.12697277437E+03  0.00000000000E+00 0.  1.
<scales pt_clust_5="13000.00000" pt_clust_6="13000.00000" pt_clust_7="13000.00000" pt_clust_8="13000.00000" pt_clust_9="21.64398"></scales>
<clustering>
<clus scale="   21.644">  1  9  2 -1</clus>
<clus scale="   89.894">  5  6 -1 -1</clus>
<clus scale="   90.558">  7  8 -1 -1</clus>
<clus scale="   97.781">  2  5  1 -1</clus>
<clus scale="   21.644">  1  5  2 -1</clus>
</clustering>
</event>
<event>
 9    1  0.1464797E-005  0.1360975E+03  0.7546771E-02  0.1232897E+00
         21   -1    0    0  501  502  0.00000000000E+00  0.00000000000E+00  0.14022422348E+03  0.14022422348E+03  0.00000000000E+00 0. -1.
          2   -1    0    0  502    0 -0.00000000000E+00 -0.00000000000E+00 -0.40097521603E+03  0.40097521603E+03  0.00000000000E+00 0. -1.
         23    2    1    2    0    0  0.14565145963E+02  0.26263992145E+02 -0.26084710739E+03  0.27981206425E+03  0.96703862912E+02 0.  0.
         23    2    1    2    0    0  0.86579515485E+02  0.36098950312E+02  0.40674254012E+02  0.13582478326E+03  0.89413813769E+02 0.  0.
        -13    1    3    3    0    0 -0.18762593546E+02 -0.29994019645E+02 -0.10511538618E+03  0.11090951511E+03  0.00000000000E+00 0.  1.
         13    1    3    3    0    0  0.33327739510E+02  0.56258011790E+02 -0.15573172121E+03  0.16890254913E+03  0.00000000000E+00 0. -1.
        -13    1    4    4    0    0  0.42971278579E+02  0.19155025885E+02  0.67208848523E+02  0.82039472933E+02  0.00000000000E+00 0. -1.
         13    1    4    4    0    0  0.43608236906E+02  0.16943924427E+02 -0.26534594511E+02  0.53785310326E+02  0.00000000000E+00 0.  1.
          2    1    1    2  501    0 -0.10114466145E+03 -0.62362942456E+02 -0.40578139167E+02  0.12556259200E+03  0.00000000000E+00 0. -1.
<scales pt_clust_5="13000.00000" pt_clust_6="13000.00000" pt_clust_7="13000.00000" pt_clust_8="13000.00000" pt_clust_9="102.60461"></scales>
<clustering>
<clus scale="   89.414">  7  8 -1 -1</clus>
<clus scale="   96.704">  5  6 -1 -1</clus>
<clus scale="  101.260">  2  5  1 -1</clus>
<clus scale="  102.605">  1  9  2 -1</clus>
<clus scale="  102.605">  1  5  2 -1</clus>
</clustering>
</event>
<event>
 9    1  0.1464797E-005  0.1147767E+03  0.7546771E-02  0.1251971E+00
         -3   -1    0    0    0  501 -0.00000000000E+00  0.00000000000E+00  0.37329033226E+03  0.37329033226E+03  0.00000000000E+00 0.  1.
         21   -1    0    0  501  502  0.00000000000E+00 -0.00000000000E+00 -0.53332626948E+02  0.53332626948E+02  0.00000000000E+00 0. -1.
         23    2    1    2    0    0  0.46275124879E+02  0.68208985621E+02  0.20712691852E+03  0.24087113093E+03  0.91233154256E+02 0.  0.
         23    2    1    2    0    0 -0.12624323729E+02 -0.53379355304E+02  0.10196217829E+03  0.14740575933E+03  0.91232905029E+02 0.  0.
        -11    1    4    4    0    0 -0.24714201581E+02  0.20129388469E+02  0.27936768284E+02  0.42384514414E+02  0.00000000000E+00 0.  1.
         11    1    4    4    0    0  0.12089877852E+02 -0.73508743773E+02  0.74025410005E+02  0.10502124492E+03  0.00000000000E+00 0. -1.
        -13    1    3    3    0    0  0.73564376157E+02  0.55621880413E+02  0.14477198752E+03  0.17165208822E+03  0.00000000000E+00 0. -1.
         13    1    3    3    0    0 -0.27289251278E+02  0.12587105208E+02  0.62354931004E+02  0.69219042708E+02  0.00000000000E+00 0.  1.
         -3    1    1    2    0  502 -0.33650801150E+02 -0.14829630317E+02  0.10868608503E+02  0.38346068953E+02  0.00000000000E+00 0.  1.
<scales pt_clust_5="13000.00000" pt_clust_6="13000.00000" pt_clust_7="13000.00000" pt_clust_8="13000.00000" pt_clust_9="36.77356"></scales>
<clustering>
<clus scale="   36.774">  2  9  1 -1</clus>
<clus scale="   91.233">  5  6 -1 -1</clus>
<clus scale="   91.233">  7  8 -1 -1</clus>
<clus scale="  114.777">  2  5  1 -1</clus>
<clus scale="   36.774">  2  5  1 -1</clus>
</clustering>
</event>
<event>
 9    1  0.1464797E-005  0.3585380E+03  0.7546771E-02  0.1107751E+00
         21   -1    0    0  501  502  0.00000000000E+00  0.00000000000E+00  0.90667100408E+02  0.90667100408E+02  0.00000000000E+00 0. -1.
          2   -1    0    0  502    0 -0.00000000000E+00 -0.00000000000E+00 -0.18376176331E+04  0.18376176331E+04  0.00000000000E+00 0. -1.
         23    2    1    2    0    0 -0.42863205411E+01 -0.34999609487E+02 -0.15454189162E+03  0.18279128785E+03  0.91028091486E+02 0.  0.
         23    2    1    2    0    0 -0.23654792950E+03 -0.23051345575E+03 -0.94854616435E+03  0.10085692890E+04  0.91546755651E+02 0.  0.
        -11    1    3    3    0    0  0.22519369590E+02 -0.57814447423E+02 -0.10611575108E+03  0.12292349232E+03  0.00000000000E+00 0.  1.
         11    1    3    3    0    0 -0.26805690131E+02  0.22814837937E+02 -0.48426140549E+02  0.59867795532E+02  0.00000000000E+00 0. -1.
        -13    1    4    4    0    0 -0.23106197556E+03 -0.18331843070E+03 -0.80229186477E+03  0.85479092172E+03  0.00000000000E+00 0. -1.
         13    1    4    4    0    0 -0.54859539396E+01 -0.47195025053E+02 -0.14625429958E+03  0.15377836723E+03  0.00000000000E+00 0.  1.
          2    1    1    2  501    0  0.24083425004E+03  0.26551306524E+03 -0.64386247667E+03  0.73692415666E+03  0.00000000000E+00 0. -1.
<scales pt_clust_5="13000.00000" pt_clust_6="13000.00000" pt_clust_7="13000.00000" pt_clust_8="13000.00000" pt_clust_9="346.65358"></scales>
<clustering>
<clus scale="   91.028">  5  6 -1 -1</clus>
<clus scale="   91.547">  7  8 -1 -1</clus>
<clus scale="   97.619">  2  5  1 -1</clus>
<clus scale="  346.654">  1  9  2 -1</clus>
<clus scale="  346.654">  1  5  2 -1</clus>
</clustering>
</event>
<event>
 9    1  0.1464797E-005  0.2042570E+03  0.7546771E-02  0.1146463E+00
          1   -1    0    0  502    0 -0.00000000000E+00  0.00000000000E+00  0.97266359996E+03  0.97266359996E+03  0.00000000000E+00 0. -1.
         21   -1    0    0  501  502  0.00000000000E+00 -0.00000000000E+00 -0.14020755092E+03  0.14020755092E+03  0.00000000000E+00 0. -1.
         23    2    1    2    0    0 -0.21140687556E+03 -0.14782174156E+02  0.63338887344E+03  0.67399856361E+03  0.90450091439E+02 0.  0.
         23    2    1    2    0    0  0.14393080880E+03  0.22787041520E+02  0.28249036048E+03  0.33127832505E+03  0.93323083437E+02 0.  0.
        -11    1    3    3    0    0 -0.24684128110E+02 -0.13725890317E+02  0.25410452171E+02  0.37992069239E+02  0.00000000000E+00 0.  1.
         11    1    3    3    0    0 -0.18672274745E+03 -0.10562838389E+01  0.60797842127E+03  0.63600649437E+03  0.00000000000E+00 0. -1.
        -11    1    4    4    0    0  0.44925697861E+02  0.43009119046E+02  0.57774821910E+02  0.84888354302E+02  0.00000000000E+00 0. -1.
         11    1    4    4    0    0  0.99005110935E+02 -0.20222077526E+02  0.22471553857E+03  0.24638997075E+03  0.00000000000E+00 0.  1.
          1    1    1    2  501    0  0.67476066763E+02 -0.80048673636E+01 -0.83423184879E+02  0.10759426222E+03  0.00000000000E+00 0. -1.
<scales pt_clust_5="13000.00000" pt_clust_6="13000.00000" pt_clust_7="13000.00000" pt_clust_8="13000.00000" pt_clust_9="67.94923"></scales>
<clustering>
<clus scale="   67.949">  2  9  1 -1</clus>
<clus scale="   90.450">  5  6 -1 -1</clus>
<clus scale="   93.323">  7  8 -1 -1</clus>
<clus scale="  202.960">  1  5  2 -1</clus>
<clus scale="   67.949">  2  5  1 -1</clus>
</clustering>
</event>
<event>
 9    1  0.1464797E-005  0.9253577E+02  0.7546771E-02  0.1297077E+00
          1   -1    0    0  502    0 -0.00000000000E+00  0.00000000000E+00  0.11006832895E+03  0.11006832895E+03  0.00000000000E+00 0. -1.
         21   -1    0    0  501  502  0.00000000000E+00 -0.00000000000E+00 -0.21725720762E+03  0.21725720762E+03  0.00000000000E+00 0.  1.
         23    2    1    2    0    0  0.86344388350E+01 -0.12736670961E+02  0.36413183846E+02  0.99008297375E+02  0.90774151994E+02 0.  0.
         23    2    1    2    0    0  0.10005071833E+02  0.26800211524E+02 -0.12998944227E+02  0.95643243859E+02  0.90334405100E+02 0.  0.
        -13    1    4    4    0    0  0.47921009603E+02 -0.68036012084E+00 -0.62209067706E+01  0.48327898075E+02  0.00000000000E+00 0.  1.
         13    1    4    4    0    0 -0.37915937770E+02  0.27480571645E+02 -0.67780374562E+01  0.47315345784E+02  0.00000000000E+00 0. -1.
        -13    1    3    3    0    0  0.30940966146E+02  0.29254110003E+02  0.27339507122E+02  0.50602321960E+02  0.00000000000E+00 0.  1.
         13    1    3    3    0    0 -0.22306527311E+02 -0.41990780964E+02  0.90736767238E+01  0.48405975415E+02  0.00000000000E+00 0. -1.
          1    1    1    2  501    0 -0.18639510668E+02 -0.14063540563E+02 -0.13060311829E+03  0.13267399534E+03  0.00000000000E+00 0. -1.
<scales pt_clust_5="13000.00000" pt_clust_6="13000.00000" pt_clust_7="13000.00000" pt_clust_8="13000.00000" pt_clust_9="23.34983"></scales>
<clustering>
<clus scale="   23.350">  2  9  1 -1</clus>
<clus scale="   90.334">  5  6 -1 -1</clus>
<clus scale="   90.774">  7  8 -1 -1</clus>
<clus scale="   92.104">  2  5  1 -1</clus>
<clus scale="   23.350">  2  5  1 -1</clus>
</clustering>
</event>
<event>
 9    1  0.1464797E-005  0.9890017E+02  0.7546771E-02  0.1286833E+00
          1   -1    0    0  502    0 -0.00000000000E+00  0.00000000000E+00  0.56461723741E+03  0.56461723741E+03  0.00000000000E+00 0. -1.
         21   -1    0    0  501  502  0.00000000000E+00 -0.00000000000E+00 -0.49388967626E+02  0.49388967626E+02  0.00000000000E+00 0. -1.
         23    2    1    2    0    0 -0.13915842528E+02  0.38711165533E+00  0.30840648609E+03  0.32395705973E+03  0.98182561379E+02 0.  0.
         23    2    1    2    0    0 -0.35451455168E+02 -0.24084520030E+02  0.21255727765E+03  0.23498924033E+03  0.90567527339E+02 0.  0.
        -13    1    3    3    0    0 -0.33504236121E+02  0.37017961223E+02  0.10389294271E+03  0.11526754459E+03  0.00000000000E+00 0.  1.
         13    1    3    3    0    0  0.19588393593E+02 -0.36630849568E+02  0.20451354338E+03  0.20868951514E+03  0.00000000000E+00 0. -1.
        -13    1    4    4    0    0  0.12734147827E+02  0.18784004710E+02  0.15080216350E+02  0.27247206810E+02  0.00000000000E+00 0.  1.
         13    1    4    4    0    0 -0.48185602995E+02 -0.42868524739E+02  0.19747706130E+03  0.20774203352E+03  0.00000000000E+00 0. -1.
          1    1    1    2  501    0  0.49367297697E+02  0.23697408374E+02 -0.57354939542E+01  0.55059904980E+02  0.00000000000E+00 0. -1.
<scales pt_clust_5="13000.00000" pt_clust_6="13000.00000" pt_clust_7="13000.00000" pt_clust_8="13000.00000" pt_clust_9="54.76036"></scales>
<clustering>
<clus scale="   54.760">  2  9  1 -1</clus>
<clus scale="   90.568">  7  8 -1 -1</clus>
<clus scale="   91.345">  2  7  1 -1</clus>
<clus scale="   98.183">  5  6 -1 -1</clus>
<clus scale="   54.760">  2  5  1 -1</clus>
</clustering>
</event>
<event>
 9    1  0.1464797E-005  0.1039218E+03  0.7546771E-02  0.1276710E+00
         -1   -1    0    0    0  501 -0.00000000000E+00  0.00000000000E+00  0.19762774716E+03  0.19762774716E+03  0.00000000000E+00 0.  1.
         21   -1    0    0  501  502  0.00000000000E+00 -0.00000000000E+00 -0.11716204294E+03  0.11716204294E+03  0.00000000000E+00 0. -1.
         23    2    1    2    0    0 -0.56172985391E+02 -0.20471778624E+02  0.89955684617E+02  0.14442117403E+03  0.95869454493E+02 0.  0.
         23    2    1    2    0    0  0.18909750285E+02 -0.31226800700E+02  0.25922853426E+02  0.97462096518E+02  0.86568898516E+02 0.  0.
        -13    1    3    3    0    0 -0.26560087935E+01  0.34529336295E+02  0.39731937753E+02  0.52706321493E+02  0.00000000000E+00 0.  1.
         13    1    3    3    0    0 -0.53516976597E+02 -0.55001114919E+02  0.50223746864E+02  0.91714852535E+02  0.00000000000E+00 0. -1.
        -13    1    4    4    0    0  0.19815484003E+02  0.22279117835E+02 -0.11717986555E+02  0.32036287343E+02  0.00000000000E+00 0.  1.
         13    1    4    4    0    0 -0.90573371775E+00 -0.53505918536E+02  0.37640839980E+02  0.65425809176E+02  0.00000000000E+00 0. -1.
         -1    1    1    2    0  502  0.37263235105E+02  0.51698579324E+02 -0.35412833819E+02  0.72906519556E+02  0.00000000000E+00 0.  1.
<scales pt_clust_5="13000.00000" pt_clust_6="13000.00000" pt_clust_7="13000.00000" pt_clust_8="13000.00000" pt_clust_9="63.72827"></scales>
<clustering>
<clus scale="   63.728">  2  9  1 -1</clus>
<clus scale="   86.569">  7  8 -1 -1</clus>
<clus scale="   95.409">  2  7  1 -1</clus>
<clus scale="   95.869">  5  6 -1 -1</clus>
<clus scale="   63.728">  2  5  1 -1</clus>
</clustering>
</event>
<event>
 9    1  0.1464797E-005  0.9306355E+02  0.7546771E-02  0.1296478E+00
         21   -1    0    0  501  502  0.00000000000E+00  0.00000000000E+00  0.30069382889E+03  0.30069382889E+03  0.00000000000E+00 0. -1.
          3   -1    0    0  502    0 -0.00000000000E+00 -0.00000000000E+00 -0.93371360450E+02  0.93371360450E+02  0.00000000000E+00 0. -1.
         23    2    1    2    0    0  0.98447000448E+01 -0.56249515591E+01 -0.34105235495E+02  0.98377023540E+02  0.91576817336E+02 0.  0.
         23    2    1    2    0    0 -0.30217283215E+00  0.43244003495E+02  0.75315122765E+02  0.12510199251E+03  0.90044464942E+02 0.  0.
        -11    1    3    3    0    0  0.49911871976E+02 -0.48524985665E+01 -0.29132104883E+02  0.57995010487E+02  0.00000000000E+00 0. -1.
         11    1    3    3    0    0 -0.40067171931E+02 -0.77245299252E+00 -0.49731306113E+01  0.40382013053E+02  0.00000000000E+00 0.  1.
        -11    1    4    4    0    0 -0.81425101340E+00 -0.20654910558E+02  0.53867960520E+02  0.57697881291E+02  0.00000000000E+00 0.  1.
         11    1    4    4    0    0  0.51207818125E+00  0.63898914052E+02  0.21447162244E+02  0.67404111221E+02  0.00000000000E+00 0. -1.
          3    1    1    2  501    0 -0.95425272127E+01 -0.37619051935E+02  0.16611258117E+03  0.17058617329E+03  0.00000000000E+00 0. -1.
<scales pt_clust_5="13000.00000" pt_clust_6="13000.00000" pt_clust_7="13000.00000" pt_clust_8="13000.00000" pt_clust_9="38.81047"></scales>
<clustering>
<clus scale="   38.810">  1  9  2 -1</clus>
<clus scale="   90.044">  7  8 -1 -1</clus>
<clus scale="   91.556">  1  7  2 -1</clus>
<clus scale="   91.577">  5  6 -1 -1</clus>
<clus scale="   38.810">  1  5  2 -1</clus>
</clustering>
</event>
<event>
 9    1  0.1464797E-005  0.9905203E+02  0.7546771E-02  0.1287034E+00
         -1   -1    0    0    0  501 -0.00000000000E+00  0.00000000000E+00  0.92981601577E+02  0.92981601577E+02  0.00000000000E+00 0.  1.
         21   -1    0    0  501  502  0.00000000000E+00 -0.00000000000E+00 -0.14568726340E+03  0.14568726340E+03  0.00000000000E+00 0.  1.
         23    2    1    2    0    0 -0.25782666653E+02 -0.20410757547E+02  0.54967367256E+01  0.90345264382E+02  0.83968492652E+02 0.  0.
         23    2    1    2    0    0  0.12045702833E+02  0.37300427858E+02 -0.17927152137E+02  0.10254084607E+03  0.93042041327E+02 0.  0.
        -11    1    4    4    0    0  0.15277439659E+02  0.57373501719E+02 -0.40722252577E+02  0.71995977089E+02  0.00000000000E+00 0.  1.
         11    1    4    4    0    0 -0.32317368254E+01 -0.20073073861E+02  0.22795100440E+02  0.30544868983E+02  0.00000000000E+00 0. -1.
        -11    1    3    3    0    0  0.13820513319E+02  0.17789982776E+02 -0.19606564877E+02  0.29864819803E+02  0.00000000000E+00 0. -1.
         11    1    3    3    0    0 -0.39603179973E+02 -0.38200740323E+02  0.25103301602E+02  0.60480444579E+02  0.00000000000E+00 0.  1.
         -1    1    1    2    0  502  0.13736963820E+02 -0.16889670311E+02 -0.40275246409E+02  0.45782754521E+02  0.00000000000E+00 0.  1.
<scales pt_clust_5="13000.00000" pt_clust_6="13000.00000" pt_clust_7="13000.00000" pt_clust_8="13000.00000" pt_clust_9="21.77074"></scales>
<clustering>
<clus scale="   21.771">  2  9  1 -1</clus>
<clus scale="   83.968">  7  8 -1 -1</clus>
<clus scale="   90.583">  1  7  2 -1</clus>
<clus scale="   93.042">  5  6 -1 -1</clus>
<clus scale="   21.771">  2  5  1 -1</clus>
</clustering>
</event>
<event>
 9    1  0.1464797E-005  0.2223770E+03  0.7546771E-02  0.1132838E+00
         -2   -1    0    0    0  501 -0.00000000000E+00  0.00000000000E+00  0.18520137775E+03  0.18520137775E+03  0.00000000000E+00 0.  1.
         21   -1    0    0  501  502  0.00000000000E+00 -0.00000000000E+00 -0.56934788218E+03  0.56934788218E+03  0.00000000000E+00 0. -1.
         23    2    1    2    0    0  0.15596796837E+03  0.97687257110E+02  0.14744179967E+01  0.20328330209E+03  0.86331452215E+02 0.  0.
         23    2    1    2    0    0 -0.20908645244E+03 -0.10608952933E+03 -0.11993882716E+03  0.28019558455E+03  0.95666663542E+02 0.  0.
        -11    1    4    4    0    0 -0.77890485443E+02  0.40092721236E+00 -0.68056263757E+02  0.10343473064E+03  0.00000000000E+00 0.  1.
         11    1    4    4    0    0 -0.13119596700E+03 -0.10649045655E+03 -0.51882563406E+02  0.17676085392E+03  0.00000000000E+00 0. -1.
        -13    1    3    3    0    0  0.45712280093E+01  0.36514451090E+02  0.14326687181E+02  0.39489938333E+02  0.00000000000E+00 0.  1.
         13    1    3    3    0    0  0.15139674036E+03  0.61172806020E+02 -0.12852269184E+02  0.16379336376E+03  0.00000000000E+00 0. -1.
         -2    1    1    2    0  502  0.53118484070E+02  0.84022722240E+01 -0.26568209526E+03  0.27107037328E+03  0.00000000000E+00 0.  1.
<scales pt_clust_5="13000.00000" pt_clust_6="13000.00000" pt_clust_7="13000.00000" pt_clust_8="13000.00000" pt_clust_9="53.77891"></scales>
<clustering>
<clus scale="   53.779">  2  9  1 -1</clus>
<clus scale="   86.331">  7  8 -1 -1</clus>
<clus scale="   95.667">  5  6 -1 -1</clus>
<clus scale="  218.524">  1  7  2 -1</clus>
<clus scale="   53.779">  2  5  1 -1</clus>
</clustering>
</event>
<event>
 9    1  0.1464797E-005  0.1329624E+03  0.7546771E-02  0.1230931E+00
         21   -1    0    0  501  502  0.00000000000E+00  0.00000000000E+00  0.45018793282E+03  0.45018793282E+03  0.00000000000E+00 0.  1.
         -4   -1    0    0    0  501 -0.00000000000E+00 -0.00000000000E+00 -0.12758796231E+03  0.12758796231E+03  0.00000000000E+00 0.  1.
         23    2    1    2    0    0  0.23849873851E+02 -0.62580212635E+02 -0.38432007133E+02  0.13884771765E+03  0.11539744376E+03 0.  0.
         23    2    1    2    0    0 -0.58621174475E+02  0.41917659207E+02  0.52852805766E+02  0.12810606366E+03  0.91783507331E+02 0.  0.
        -13    1    4    4    0    0 -0.33276619595E+02  0.70619303682E+02  0.30826501626E+02  0.83932667458E+02  0.00000000000E+00 0.  1.
         13    1    4    4    0    0 -0.25344554880E+02 -0.28701644474E+02  0.22026304140E+02  0.44173396198E+02  0.00000000000E+00 0. -1.
        -13    1    3    3    0    0  0.72878498143E+01  0.33432720687E+02 -0.29590025262E+00  0.34219104670E+02  0.00000000000E+00 0. -1.
         13    1    3    3    0    0  0.16562024036E+02 -0.96012933322E+02 -0.38136106881E+02  0.10462861298E+03  0.00000000000E+00 0.  1.
         -4    1    1    2    0  502  0.34771300625E+02  0.20662553427E+02  0.30817917188E+03  0.31082211382E+03  0.00000000000E+00 0.  1.
<scales pt_clust_5="13000.00000" pt_clust_6="13000.00000" pt_clust_7="13000.00000" pt_clust_8="13000.00000" pt_clust_9="40.44730"></scales>
<clustering>
<clus scale="   40.447">  1  9  2 -1</clus>
<clus scale="   91.784">  5  6 -1 -1</clus>
<clus scale="  113.078">  1  5  2 -1</clus>
<clus scale="  115.397">  7  8 -1 -1</clus>
<clus scale="   40.447">  1  5  2 -1</clus>
</clustering>
</event>
<event>
 9    1  0.1464797E-005  0.1092290E+03  0.7546771E-02  0.1262865E+00
          3   -1    0    0  502    0 -0.00000000000E+00  0.00000000000E+00  0.50645116479E+02  0.50645116479E+02  0.00000000000E+00 0. -1.
         21   -1    0    0  501  502  0.00000000000E+00 -0.00000000000E+00 -0.43548837653E+03  0.43548837653E+03  0.00000000000E+00 0.  1.
         23    2    1    2    0    0  0.46185170994E+02  0.11004664310E+02 -0.53020661463E+02  0.11578976720E+03  0.91334040690E+02 0.  0.
         23    2    1    2    0    0 -0.83739376576E+02 -0.74767201335E+01 -0.23671143251E+03  0.26802608970E+03  0.93474584493E+02 0.  0.
        -11    1    4    4    0    0 -0.30962303524E+02 -0.48573194016E+02 -0.91063762058E+02  0.10775262492E+03  0.00000000000E+00 0. -1.
         11    1    4    4    0    0 -0.52777073052E+02  0.41096473883E+02 -0.14564767045E+03  0.16027346478E+03  0.00000000000E+00 0.  1.
        -13    1    3    3    0    0  0.22722187936E+02  0.41721794290E+02 -0.59979866552E+02  0.76515294778E+02  0.00000000000E+00 0.  1.
         13    1    3    3    0    0  0.23462983058E+02 -0.30717129980E+02  0.69592050893E+01  0.39274472417E+02  0.00000000000E+00 0. -1.
          3    1    1    2  501    0  0.37554205582E+02 -0.35279441765E+01 -0.95111166080E+02  0.10231763611E+03  0.00000000000E+00 0. -1.
<scales pt_clust_5="13000.00000" pt_clust_6="13000.00000" pt_clust_7="13000.00000" pt_clust_8="13000.00000" pt_clust_9="37.71955"></scales>
<clustering>
<clus scale="   37.720">  2  9  1 -1</clus>
<clus scale="   91.334">  7  8 -1 -1</clus>
<clus scale="   93.475">  5  6 -1 -1</clus>
<clus scale="  107.403">  1  7  2 -1</clus>
<clus scale="   37.720">  2  5  1 -1</clus>
</clustering>
</event>
<event>
 9    1  0.1464797E-005  0.9281776E+02  0.7546771E-02  0.1296200E+00
         21   -1    0    0  501  502  0.00000000000E+00  0.00000000000E+00  0.38754302129E+03  0.38754302129E+03  0.00000000000E+00 0.  1.
          2   -1    0    0  502    0 -0.00000000000E+00 -0.00000000000E+00 -0.63896922895E+02  0.63896922895E+02  0.00000000000E+00 0. -1.
         23    2    1    2    0    0  0.21057121611E+02  0.90546630677E+01 -0.11995717706E+02  0.93193845643E+02  0.89531035561E+02 0.  0.
         23    2    1    2    0    0 -0.19230588259E+02 -0.32665593476E+02  0.22550398300E+03  0.24559107406E+03  0.89588351873E+02 0.  0.
        -11    1    3    3    0    0  0.28468264243E+02 -0.35886014205E+02 -0.13065732898E+02  0.47633616918E+02  0.00000000000E+00 0.  1.
         11    1    3    3    0    0 -0.74111426326E+01  0.44940677273E+02  0.10700151914E+01  0.45560228724E+02  0.00000000000E+00 0. -1.
        -13    1    4    4    0    0 -0.48869373362E+02 -0.12723424535E+01  0.15862482616E+03  0.16598695727E+03  0.00000000000E+00 0.  1.
         13    1    4    4    0    0  0.29638785103E+02 -0.31393251022E+02  0.66879156831E+02  0.79604116794E+02  0.00000000000E+00 0. -1.
          2    1    1    2  501    0 -0.18265333512E+01  0.23610930408E+02  0.11013783311E+03  0.11265502448E+03  0.00000000000E+00 0. -1.
<scales pt_clust_5="13000.00000" pt_clust_6="13000.00000" pt_clust_7="13000.00000" pt_clust_8="13000.00000" pt_clust_9="23.68148"></scales>
<clustering>
<clus scale="   23.681">  1  9  2 -1</clus>
<clus scale="   89.531">  5  6 -1 -1</clus>
<clus scale="   89.588">  7  8 -1 -1</clus>
<clus scale="   92.762">  2  5  1 -1</clus>
<clus scale="   23.681">  1  5  2 -1</clus>
</clustering>
</event>
<event>
 9    1  0.1464797E-005  0.9432829E+02  0.7546771E-02  0.1293051E+00
          2   -1    0    0  502    0 -0.00000000000E+00  0.00000000000E+00  0.41564667441E+03  0.41564667441E+03  0.00000000000E+00 0. -1.
         21   -1    0    0  501  502  0.00000000000E+00 -0.00000000000E+00 -0.60463089302E+02  0.60463089302E+02  0.00000000000E+00 0.  1.
         23    2    1    2    0    0 -0.47208844061E+01  0.25365148494E+02  0.27039526881E+03  0.28684977336E+03  0.92214497651E+02 0.  0.
         23    2    1    2    0    0  0.57560046540E-01  0.14936922187E+02 -0.26942086266E+01  0.92827653123E+02  0.91578378816E+02 0.  0.
        -11    1    4    4    0    0 -0.58020650527E+01 -0.30389749248E+02  0.24659282881E+02  0.39563632928E+02  0.00000000000E+00 0. -1.
         11    1    4    4    0    0  0.58596250992E+01  0.45326671435E+02 -0.27353491507E+02  0.53264020195E+02  0.00000000000E+00 0.  1.
        -13    1    3    3    0    0 -0.22942069394E+02  0.55658786752E+02  0.16119696271E+03  0.17207178699E+03  0.00000000000E+00 0.  1.
         13    1    3    3    0    0  0.18221184987E+02 -0.30293638259E+02  0.10919830610E+03  0.11477798637E+03  0.00000000000E+00 0. -1.
          2    1    1    2  501    0  0.46633243596E+01 -0.40302070681E+02  0.87482524923E+02  0.96432337223E+02  0.00000000000E+00 0. -1.
<scales pt_clust_5="13000.00000" pt_clust_6="13000.00000" pt_clust_7="13000.00000" pt_clust_8="13000.00000" pt_clust_9="40.57099"></scales>
<clustering>
<clus scale="   40.571">  2  9  1 -1</clus>
<clus scale="   91.578">  5  6 -1 -1</clus>
<clus scale="   92.214">  7  8 -1 -1</clus>
<clus scale="   93.707">  2  5  1 -1</clus>
<clus scale="   40.571">  2  5  1 -1</clus>
</clustering>
</event>
<event>
 9    1  0.1464797E-005  0.1640382E+03  0.7546771E-02  0.1184683E+00
         21   -1    0    0  501  502  0.00000000000E+00  0.00000000000E+00  0.46013335127E+02  0.46013335127E+02  0.00000000000E+00 0.  1.
          1   -1    0    0  502    0 -0.00000000000E+00 -0.00000000000E+00 -0.83841538560E+03  0.83841538560E+03  0.00000000000E+00 0. -1.
         23    2    1    2    0    0  0.10576408233E+03  0.98941487854E+02 -0.59432438770E+03  0.61801736730E+03  0.88025731138E+02 0.  0.
         23    2    1    2    0    0 -0.78346422270E+02 -0.86252252379E+02 -0.16537830225E+03  0.22189177393E+03  0.91150225224E+02 0.  0.
        -11    1    3    3    0    0  0.11559528852E+02  0.51602639107E+02 -0.31598717128E+03  0.32038156546E+03  0.00000000000E+00 0.  1.
         11    1    3    3    0    0  0.94204553476E+02  0.47338848747E+02 -0.27833721641E+03  0.29763580184E+03  0.00000000000E+00 0. -1.
        -13    1    4    4    0    0 -0.76672165506E+02 -0.36949233357E+02 -0.14578665257E+03  0.16881236589E+03  0.00000000000E+00 0. -1.
         13    1    4    4    0    0 -0.16742567640E+01 -0.49303019022E+02 -0.19591649676E+02  0.53079408036E+02  0.00000000000E+00 0.  1.
          1    1    1    2  501    0 -0.27417660058E+02 -0.12689235475E+02 -0.32699360527E+02  0.44519579500E+02  0.00000000000E+00 0. -1.
<scales pt_clust_5="13000.00000" pt_clust_6="13000.00000" pt_clust_7="13000.00000" pt_clust_8="13000.00000" pt_clust_9="30.21167"></scales>
<clustering>
<clus scale="   30.212">  1  9  2 -1</clus>
<clus scale="   88.026">  5  6 -1 -1</clus>
<clus scale="   91.150">  7  8 -1 -1</clus>
<clus scale="  162.323">  2  5  1 -1</clus>
<clus scale="   30.212">  1  5  2 -1</clus>
</clustering>
</event>
<event>
 9    1  0.1464797E-005  0.1706517E+03  0.7546771E-02  0.1195570E+00
         21   -1    0    0  501  502  0.00000000000E+00  0.00000000000E+00  0.19435291973E+03  0.19435291973E+03  0.00000000000E+00 0. -1.
          4   -1    0    0  502    0 -0.00000000000E+00 -0.00000000000E+00 -0.25952428941E+03  0.25952428941E+03  0.00000000000E+00 0. -1.
         23    2    1    2    0    0 -0.27277316553E+02 -0.62207734957E+02  0.29167290601E+02  0.11704628754E+03  0.90748268846E+02 0.  0.
         23    2    1    2    0    0 -0.17767888924E+02 -0.10233381124E+03 -0.91268358171E+02  0.16620730742E+03  0.92233665409E+02 0.  0.
        -13    1    4    4    0    0  0.27875566203E+02 -0.86030073927E+02 -0.58756854799E+02  0.10784520757E+03  0.00000000000E+00 0.  1.
         13    1    4    4    0    0 -0.45643455127E+02 -0.16303737318E+02 -0.32511503372E+02  0.58362099842E+02  0.00000000000E+00 0. -1.
        -13    1    3    3    0    0 -0.36965311293E+01  0.19850105544E+02 -0.10662787553E+02  0.22833879891E+02  0.00000000000E+00 0.  1.
         13    1    3    3    0    0 -0.23580785424E+02 -0.82057840501E+02  0.39830078154E+02  0.94212407647E+02  0.00000000000E+00 0. -1.
          4    1    1    2  501    0  0.45045205477E+02  0.16454154620E+03 -0.30703021001E+01  0.17062361419E+03  0.00000000000E+00 0. -1.
<scales pt_clust_5="13000.00000" pt_clust_6="13000.00000" pt_clust_7="13000.00000" pt_clust_8="13000.00000" pt_clust_9="143.57912"></scales>
<clustering>
<clus scale="   90.748">  7  8 -1 -1</clus>
<clus scale="   92.234">  5  6 -1 -1</clus>
<clus scale="  113.354">  2  7  1 -1</clus>
<clus scale="  143.579">  1  9  2 -1</clus>
<clus scale="  143.579">  1  5  2 -1</clus>
</clustering>
</event>
<event>
 9    1  0.1464797E-005  0.1430333E+03  0.7546771E-02  0.1224843E+00
         21   -1    0    0  501  502  0.00000000000E+00  0.00000000000E+00  0.71361173675E+03  0.71361173675E+03  0.00000000000E+00 0. -1.
          1   -1    0    0  502    0 -0.00000000000E+00 -0.00000000000E+00 -0.10806943202E+03  0.10806943202E+03  0.00000000000E+00 0. -1.
         23    2    1    2    0    0 -0.25039910294E+02 -0.43679553436E+02 -0.51987504921E+02  0.11541916029E+03  0.89910963727E+02 0.  0.
         23    2    1    2    0    0 -0.90480762666E+02  0.52974254240E+02  0.31576122988E+03  0.34537812208E+03  0.92670668995E+02 0.  0.
        -11    1    3    3    0    0 -0.53879414900E+02 -0.93689038710E+01 -0.43322167308E+02  0.69768029139E+02  0.00000000000E+00 0.  1.
         11    1    3    3    0    0  0.28839504606E+02 -0.34310649565E+02 -0.86653376133E+01  0.45651131152E+02  0.00000000000E+00 0. -1.
        -13    1    4    4    0    0  0.16403406889E+02  0.15687425986E+02  0.90104144899E+02  0.92918910990E+02  0.00000000000E+00 0.  1.
         13    1    4    4    0    0 -0.10688416955E+03  0.37286828255E+02  0.22565708498E+03  0.25245921109E+03  0.00000000000E+00 0. -1.
          1    1    1    2  501    0  0.11552067296E+03 -0.92947008042E+01  0.34176857977E+03  0.36088388640E+03  0.00000000000E+00 0. -1.
<scales pt_clust_5="13000.00000" pt_clust_6="13000.00000" pt_clust_7="13000.00000" pt_clust_8="13000.00000" pt_clust_9="108.95257"></scales>
<clustering>
<clus scale="   89.911">  5  6 -1 -1</clus>
<clus scale="   92.671">  7  8 -1 -1</clus>
<clus scale="  103.048">  2  5  1 -1</clus>
<clus scale="  108.953">  1  9  2 -1</clus>
<clus scale="  108.953">  1  5  2 -1</clus>
</clustering>
</event>
<event>
 9    1  0.1464797E-005  0.9001986E+02  0.7546771E-02  0.1302807E+00
         21   -1    0    0  501  502  0.00000000000E+00  0.00000000000E+00  0.13624013411E+03  0.13624013411E+03  0.00000000000E+00 0.  1.
          1   -1    0    0  502    0 -0.00000000000E+00 -0.00000000000E+00 -0.83199180746E+02  0.83199180746E+02  0.00000000000E+00 0. -1.
         23    2    1    2    0    0  0.82396998027E+01 -0.89311264348E+01  0.21670687322E+01  0.90237041890E+02  0.89388868826E+02 0.  0.
         23    2    1    2    0    0  0.17716773071E+02  0.12266718640E+02  0.33874696577E+02  0.97995910568E+02  0.89394334192E+02 0.  0.
        -13    1    4    4    0    0  0.62297043673E+01 -0.23565465230E+02 -0.20514657321E+02  0.31858931761E+02  0.00000000000E+00 0. -1.
         13    1    4    4    0    0  0.11487068704E+02  0.35832183869E+02  0.54389353898E+02  0.66136978807E+02  0.00000000000E+00 0.  1.
        -13    1    3    3    0    0  0.37794208717E+02 -0.18989415806E+02 -0.24758936975E+02  0.49010254900E+02  0.00000000000E+00 0. -1.
         13    1    3    3    0    0 -0.29554508914E+02  0.10058289371E+02  0.26926005707E+02  0.41226786991E+02  0.00000000000E+00 0.  1.
          1    1    1    2  501    0 -0.25956472874E+02 -0.33355922051E+01  0.16999188051E+02  0.31206362393E+02  0.00000000000E+00 0. -1.
<scales pt_clust_5="13000.00000" pt_clust_6="13000.00000" pt_clust_7="13000.00000" pt_clust_8="13000.00000" pt_clust_9="26.16992"></scales>
<clustering>
<clus scale="   26.170">  1  9  2 -1</clus>
<clus scale="   89.389">  7  8 -1 -1</clus>
<clus scale="   89.394">  5  6 -1 -1</clus>
<clus scale="   90.014">  2  7  1 -1</clus>
<clus scale="   26.170">  1  5  2 -1</clus>
</clustering>
</event>
<event>
 9    1  0.1464797E-005  0.1284529E+03  0.7546771E-02  0.1231725E+00
         21   -1    0    0  501  502  0.00000000000E+00  0.00000000000E+00  0.45440031592E+03  0.45440031592E+03  0.00000000000E+00 0. -1.
         -1   -1    0    0    0  501 -0.00000000000E+00 -0.00000000000E+00 -0.58308200221E+02  0.58308200221E+02  0.00000000000E+00 0.  1.
         23    2    1    2    0    0  0.10383883616E+03 -0.10223175844E+02  0.73721700997E+02  0.15575617257E+03  0.89095897078E+02 0.  0.
         23    2    1    2    0    0 -0.72707516803E+02  0.41912812877E+01  0.17625337695E+03  0.20743401185E+03  0.81606780044E+02 0.  0.
        -13    1    3    3    0    0  0.26326208006E+02  0.26604042716E+02 -0.68431345269E+01  0.38048295717E+02  0.00000000000E+00 0.  1.
         13    1    3    3    0    0  0.77512628159E+02 -0.36827218560E+02  0.80564835524E+02  0.11770787686E+03  0.00000000000E+00 0. -1.
        -13    1    4    4    0    0 -0.76457729691E+02  0.26410308326E+02  0.16113429468E+03  0.18029850176E+03  0.00000000000E+00 0.  1.
         13    1    4    4    0    0  0.37502128881E+01 -0.22219027038E+02  0.15119082266E+02  0.27135510089E+02  0.00000000000E+00 0. -1.
         -1    1    1    2    0  502 -0.31131319362E+02  0.60318945566E+01  0.14611703775E+03  0.14951833171E+03  0.00000000000E+00 0.  1.
<scales pt_clust_5="13000.00000" pt_clust_6="13000.00000" pt_clust_7="13000.00000" pt_clust_8="13000.00000" pt_clust_9="31.71029"></scales>
<clustering>
<clus scale="   31.710">  1  9  2 -1</clus>
<clus scale="   81.607">  7  8 -1 -1</clus>
<clus scale="   89.096">  5  6 -1 -1</clus>
<clus scale="  123.376">  1  7  2 -1</clus>
<clus scale="   31.710">  1  5  2 -1</clus>
</clustering>
</event>
<event>
 9    1  0.1464797E-005  0.9667804E+02  0.7546771E-02  0.1288899E+00
         21   -1    0    0  501  502  0.00000000000E+00  0.00000000000E+00  0.13831749588E+03  0.13831749588E+03  0.00000000000E+00 0. -1.
          3   -1    0    0  502    0 -0.00000000000E+00 -0.00000000000E+00 -0.45964045108E+03  0.45964045108E+03  0.00000000000E+00 0. -1.
         23    2    1    2    0    0 -0.22127009670E+02  0.10725716067E+02 -0.37654223527E+03  0.38904472459E+03  0.94694758288E+02 0.  0.
         23    2    1    2    0    0  0.13336809157E+01  0.15081775853E+02 -0.44858132348E+02  0.10349084506E+03  0.92026432647E+02 0.  0.
        -11    1    3    3    0    0  0.28695572859E+02  0.31301069014E+02 -0.14432917763E+03  0.15044635036E+03  0.00000000000E+00 0.  1.
         11    1    3    3    0    0 -0.50822582529E+02 -0.20575352947E+02 -0.23221305764E+03  0.23859837423E+03  0.00000000000E+00 0. -1.
        -11    1    4    4    0    0 -0.34347203885E+02 -0.22281192010E+02 -0.25968114670E+02  0.48482212322E+02  0.00000000000E+00 0.  1.
         11    1    4    4    0    0  0.35680884801E+02  0.37362967864E+02 -0.18890017678E+02  0.55008632737E+02  0.00000000000E+00 0. -1.
          3    1    1    2  501    0  0.20793328755E+02 -0.25807491921E+02  0.10007741242E+03  0.10542237730E+03  0.00000000000E+00 0. -1.
<scales pt_clust_5="13000.00000" pt_clust_6="13000.00000" pt_clust_7="13000.00000" pt_clust_8="13000.00000" pt_clust_9="33.14195"></scales>
<clustering>
<clus scale="   33.142">  1  9  2 -1</clus>
<clus scale="   92.026">  7  8 -1 -1</clus>
<clus scale="   94.066">  1  7  2 -1</clus>
<clus scale="   94.695">  5  6 -1 -1</clus>
<clus scale="   33.142">  1  5  2 -1</clus>
</clustering>
</event>
<event>
 9    1  0.1464797E-005  0.1611967E+03  0.7546771E-02  0.1187752E+00
          1   -1    0    0  502    0 -0.00000000000E+00  0.00000000000E+00  0.60368095771E+03  0.60368095771E+03  0.00000000000E+00 0. -1.
         21   -1    0    0  501  502  0.00000000000E+00 -0.00000000000E+00 -0.39394967452E+03  0.39394967452E+03  0.00000000000E+00 0. -1.
         23    2    1    2    0    0  0.58115306962E+02 -0.12643113813E+03  0.53829361770E+03  0.56335369470E+03  0.90802780182E+02 0.  0.
         23    2    1    2    0    0 -0.10149027325E+03  0.91518425102E+01 -0.89857071508E+02  0.16480333312E+03  0.93283511526E+02 0.  0.
        -13    1    3    3    0    0  0.25614105070E+02 -0.34108832886E+02  0.51753856043E+02  0.67066806057E+02  0.00000000000E+00 0.  1.
         13    1    3    3    0    0  0.32501201891E+02 -0.92322305239E+02  0.48653976166E+03  0.49628688865E+03  0.00000000000E+00 0. -1.
        -13    1    4    4    0    0 -0.10268101244E+03  0.36961560782E+02 -0.62430771798E+02  0.12572648312E+03  0.00000000000E+00 0.  1.
         13    1    4    4    0    0  0.11907391895E+01 -0.27809718272E+02 -0.27426299710E+02  0.39076850000E+02  0.00000000000E+00 0. -1.
          1    1    1    2  501    0  0.43374966287E+02  0.11727929561E+03 -0.23870526300E+03  0.26947360440E+03  0.00000000000E+00 0. -1.
<scales pt_clust_5="13000.00000" pt_clust_6="13000.00000" pt_clust_7="13000.00000" pt_clust_8="13000.00000" pt_clust_9="125.04328"></scales>
<clustering>
<clus scale="   90.803">  5  6 -1 -1</clus>
<clus scale="   93.284">  7  8 -1 -1</clus>
<clus scale="  125.043">  2  9  1 -1</clus>
<clus scale="  159.774">  1  5  2 -1</clus>
<clus scale="  125.043">  2  5  1 -1</clus>
</clustering>
</event>
<event>
 9    1  0.1464797E-005  0.9696180E+02  0.7546771E-02  0.1287614E+00
         -2   -1    0    0    0  501 -0.00000000000E+00  0.00000000000E+00  0.14111805506E+03  0.14111805506E+03  0.00000000000E+00 0.  1.
         21   -1    0    0  501  502  0.00000000000E+00 -0.00000000000E+00 -0.14389046025E+03  0.14389046025E+03  0.00000000000E+00 0.  1.
         23    2    1    2    0    0  0.96402572921E+01  0.31761564574E+02  0.67735875886E+02  0.11915817075E+03  0.92243098543E+02 0.  0.
         23    2    1    2    0    0 -0.42351196722E+02 -0.12904621015E+01 -0.27555824511E+02  0.10385512563E+03  0.90726371578E+02 0.  0.
        -11    1    4    4    0    0 -0.58947185206E+02  0.24417070236E+02 -0.17516578507E+01  0.63828146361E+02  0.00000000000E+00 0.  1.
         11    1    4    4    0    0  0.16595988485E+02 -0.25707532338E+02 -0.25804166660E+02  0.40026979273E+02  0.00000000000E+00 0. -1.
        -13    1    3    3    0    0  0.19927183607E+02  0.52342564145E+02  0.76263491192E+02  0.94620065296E+02  0.00000000000E+00 0.  1.
         13    1    3    3    0    0 -0.10286926315E+02 -0.20580999571E+02 -0.85276153059E+01  0.24538105451E+02  0.00000000000E+00 0. -1.
         -2    1    1    2    0  502  0.32710939430E+02 -0.30471102472E+02 -0.42952456572E+02  0.61995218927E+02  0.00000000000E+00 0.  1.
<scales pt_clust_5="13000.00000" pt_clust_6="13000.00000" pt_clust_7="13000.00000" pt_clust_8="13000.00000" pt_clust_9="44.70451"></scales>
<clustering>
<clus scale="   44.705">  2  9  1 -1</clus>
<clus scale="   90.726">  5  6 -1 -1</clus>
<clus scale="   92.243">  7  8 -1 -1</clus>
<clus scale="   95.520">  2  5  1 -1</clus>
<clus scale="   44.705">  2  5  1 -1</clus>
</clustering>
</event>
<event>
 9    1  0.1464797E-005  0.9953364E+02  0.7546771E-02  0.1281504E+00
         -1   -1    0    0    0  501 -0.00000000000E+00  0.00000000000E+00  0.26504395235E+03  0.26504395235E+03  0.00000000000E+00 0.  1.
         21   -1    0    0  501  502  0.00000000000E+00 -0.00000000000E+00 -0.32510092599E+03  0.32510092599E+03  0.00000000000E+00 0.  1.
         23    2    1    2    0    0  0.78438956736E+00 -0.38743716292E+02  0.21495110119E+03  0.23621002436E+03  0.89941697141E+02 0.  0.
         23    2    1    2    0    0 -0.19914713773E+02  0.76700485884E+02 -0.58085564965E+02  0.13288720991E+03  0.89473556660E+02 0.  0.
        -13    1    4    4    0    0 -0.31568552794E+02 -0.26880343680E+00 -0.43400055142E+02  0.53667593268E+02  0.00000000000E+00 0. -1.
         13    1    4    4    0    0  0.11653839021E+02  0.76969289321E+02 -0.14685509822E+02  0.79219616644E+02  0.00000000000E+00 0.  1.
        -13    1    3    3    0    0 -0.26228443350E+02 -0.13530349716E+02  0.15443255295E+02  0.33309093925E+02  0.00000000000E+00 0.  1.
         13    1    3    3    0    0  0.27012832917E+02 -0.25213366576E+02  0.19950784590E+03  0.20290093043E+03  0.00000000000E+00 0. -1.
         -1    1    1    2    0  502  0.19130324205E+02 -0.37956769592E+02 -0.21692250987E+03  0.22104764407E+03  0.00000000000E+00 0.  1.
<scales pt_clust_5="13000.00000" pt_clust_6="13000.00000" pt_clust_7="13000.00000" pt_clust_8="13000.00000" pt_clust_9="42.50513"></scales>
<clustering>
<clus scale="   42.505">  2  9  1 -1</clus>
<clus scale="   89.474">  5  6 -1 -1</clus>
<clus scale="   89.942">  7  8 -1 -1</clus>
<clus scale="   99.111">  2  5  1 -1</clus>
<clus scale="   42.505">  2  5  1 -1</clus>
</clustering>
</event>
<event>
 9    1  0.1464797E-005  0.1074631E+03  0.7546771E-02  0.1265399E+00
          3   -1    0    0  502    0 -0.00000000000E+00  0.00000000000E+00  0.35828713300E+03  0.35828713300E+03  0.00000000000E+00 0. -1.
         21   -1    0    0  501  502  0.00000000000E+00 -0.00000000000E+00 -0.68265412631E+02  0.68265412631E+02  0.00000000000E+00 0. -1.
         23    2    1    2    0    0  0.36070802463E+02  0.42230036577E+02  0.26691357576E+03  0.28802031915E+03  0.92889011934E+02 0.  0.
         23    2    1    2    0    0 -0.12158231975E+02 -0.50408810801E+02  0.32838391500E+02  0.11145121690E+03  0.93027646331E+02 0.  0.
        -11    1    3    3    0    0  0.44403620442E+02  0.63544823614E+02  0.14957215300E+03  0.16846796452E+03  0.00000000000E+00 0. -1.
         11    1    3    3    0    0 -0.83328179789E+01 -0.21314787037E+02  0.11734142276E+03  0.11955235463E+03  0.00000000000E+00 0.  1.
        -11    1    4    4    0    0  0.39937099425E+01  0.25187162280E+02 -0.40109204873E+01  0.25815312239E+02  0.00000000000E+00 0. -1.
         11    1    4    4    0    0 -0.16151941917E+02 -0.75595973081E+02  0.36849311987E+02  0.85635904665E+02  0.00000000000E+00 0.  1.
          3    1    1    2  501    0 -0.23912570489E+02  0.81787742240E+01 -0.97302468912E+01  0.27081009578E+02  0.00000000000E+00 0. -1.
<scales pt_clust_5="13000.00000" pt_clust_6="13000.00000" pt_clust_7="13000.00000" pt_clust_8="13000.00000" pt_clust_9="25.27258"></scales>
<clustering>
<clus scale="   25.273">  2  9  1 -1</clus>
<clus scale="   92.889">  5  6 -1 -1</clus>
<clus scale="   93.028">  7  8 -1 -1</clus>
<clus scale="  107.343">  1  5  2 -1</clus>
<clus scale="   25.273">  2  5  1 -1</clus>
</clustering>
</event>
<event>
 9    1  0.1464797E-005  0.1119239E+03  0.7546771E-02  0.1257524E+00
          1   -1    0    0  502    0 -0.00000000000E+00  0.00000000000E+00  0.59363358708E+03  0.59363358708E+03  0.00000000000E+00 0. -1.
         21   -1    0    0  501  502  0.00000000000E+00 -0.00000000000E+00 -0.66778012546E+02  0.66778012546E+02  0.00000000000E+00 0. -1.
         23    2    1    2    0    0  0.53829063826E+02 -0.33451451055E+01  0.24989714226E+03  0.27211793790E+03  0.93224633609E+02 0.  0.
         23    2    1    2    0    0 -0.52961053162E+02  0.61688397392E+02  0.30108987587E+03  0.32515084661E+03  0.91965363985E+02 0.  0.
        -13    1    4    4    0    0 -0.72294989318E+02  0.29197740429E+02  0.14595006603E+03  0.16547052699E+03  0.00000000000E+00 0.  1.
         13    1    4    4    0    0  0.19333936157E+02  0.32490656963E+02  0.15513980984E+03  0.15968031962E+03  0.00000000000E+00 0. -1.
        -13    1    3    3    0    0 -0.22288152113E+02 -0.18864522618E+02  0.84076808630E+02  0.89003043137E+02  0.00000000000E+00 0. -1.
         13    1    3    3    0    0  0.76117215938E+02  0.15519377513E+02  0.16582033363E+03  0.18311489477E+03  0.00000000000E+00 0.  1.
          1    1    1    2  501    0 -0.86801066424E+00 -0.58343252287E+02 -0.24131443600E+02  0.63142815111E+02  0.00000000000E+00 0. -1.
<scales pt_clust_5="13000.00000" pt_clust_6="13000.00000" pt_clust_7="13000.00000" pt_clust_8="13000.00000" pt_clust_9="58.34971"></scales>
<clustering>
<clus scale="   58.350">  2  9  1 -1</clus>
<clus scale="   91.965">  5  6 -1 -1</clus>
<clus scale="   93.225">  7  8 -1 -1</clus>
<clus scale="  110.877">  2  5  1 -1</clus>
<clus scale="   58.350">  2  5  1 -1</clus>
</clustering>
</event>
<event>
 9    1  0.1464797E-005  0.1305827E+03  0.7546771E-02  0.1232286E+00
          1   -1    0    0  502    0 -0.00000000000E+00  0.00000000000E+00  0.39659431659E+03  0.39659431659E+03  0.00000000000E+00 0. -1.
         21   -1    0    0  501  502  0.00000000000E+00 -0.00000000000E+00 -0.23596718437E+03  0.23596718437E+03  0.00000000000E+00 0. -1.
         23    2    1    2    0    0  0.94602561378E+02 -0.55012344389E+02  0.26873986808E+03  0.29865354173E+03  0.70688178917E+02 0.  0.
         23    2    1    2    0    0 -0.65857335766E+02 -0.46466406932E+01  0.76982966055E+02  0.13732235101E+03  0.92586559928E+02 0.  0.
        -11    1    3    3    0    0  0.40484254195E+02 -0.16128208443E+02  0.19260759774E+03  0.19747602552E+03  0.00000000000E+00 0.  1.
         11    1    3    3    0    0  0.54118307183E+02 -0.38884135947E+02  0.76132270332E+02  0.10117751621E+03  0.00000000000E+00 0. -1.
        -13    1    4    4    0    0 -0.62726088013E+02 -0.37217697960E+02  0.74883988706E+02  0.10453387453E+03  0.00000000000E+00 0. -1.
         13    1    4    4    0    0 -0.31312477532E+01  0.32571057267E+02  0.20989773489E+01  0.32788476480E+02  0.00000000000E+00 0.  1.
          1    1    1    2  501    0 -0.28745225612E+02  0.59658985082E+02 -0.18509570191E+03  0.19658560823E+03  0.00000000000E+00 0. -1.
<scales pt_clust_5="13000.00000" pt_clust_6="13000.00000" pt_clust_7="13000.00000" pt_clust_8="13000.00000" pt_clust_9="66.22298"></scales>
<clustering>
<clus scale="   66.223">  2  9  1 -1</clus>
<clus scale="   70.688">  5  6 -1 -1</clus>
<clus scale="   92.587">  7  8 -1 -1</clus>
<clus scale="  116.088">  1  5  2 -1</clus>
<clus scale="   66.223">  2  5  1 -1</clus>
</clustering>
</event>
<event>
 9    1  0.1464797E-005  0.1606377E+03  0.7546771E-02  0.1188063E+00
         21   -1    0    0  501  502  0.00000000000E+00  0.00000000000E+00  0.13215961917E+03  0.13215961917E+03  0.00000000000E+00 0. -1.
          2   -1    0    0  502    0 -0.00000000000E+00 -0.00000000000E+00 -0.56821737338E+03  0.56821737338E+03  0.00000000000E+00 0. -1.
         23    2    1    2    0    0  0.71915039128E+02 -0.97426728629E+02 -0.35496045816E+03  0.38593255848E+03  0.91012485593E+02 0.  0.
         23    2    1    2    0    0 -0.15797949654E+03  0.11448822262E+03 -0.66201743036E+02  0.22544969879E+03  0.91541364732E+02 0.  0.
        -13    1    3    3    0    0  0.72887117839E+02 -0.47744321208E+02 -0.29734351838E+03  0.30984709145E+03  0.00000000000E+00 0.  1.
         13    1    3    3    0    0 -0.97207871079E+00 -0.49682407421E+02 -0.57616939775E+02  0.76085467030E+02  0.00000000000E+00 0. -1.
        -13    1    4    4    0    0 -0.84010790378E+02  0.11205632083E+03 -0.55604931448E+02  0.15068623142E+03  0.00000000000E+00 0. -1.
         13    1    4    4    0    0 -0.73968706162E+02  0.24319017942E+01 -0.10596811588E+02  0.74763467371E+02  0.00000000000E+00 0.  1.
          2    1    1    2  501    0  0.86064457412E+02 -0.17061493996E+02 -0.14895553014E+02  0.88994735275E+02  0.00000000000E+00 0. -1.
<scales pt_clust_5="13000.00000" pt_clust_6="13000.00000" pt_clust_7="13000.00000" pt_clust_8="13000.00000" pt_clust_9="87.73930"></scales>
<clustering>
<clus scale="   87.739">  1  9  2 -1</clus>
<clus scale="   91.012">  5  6 -1 -1</clus>
<clus scale="   91.541">  7  8 -1 -1</clus>
<clus scale="  160.337">  2  5  1 -1</clus>
<clus scale="   87.739">  1  5  2 -1</clus>
</clustering>
</event>
<event>
 9    1  0.1464797E-005  0.1290180E+03  0.7546771E-02  0.1229745E+00
         21   -1    0    0  501  502  0.00000000000E+00  0.00000000000E+00  0.82692599740E+02  0.82692599740E+02  0.00000000000E+00 0.  1.
         -3   -1    0    0    0  501 -0.00000000000E+00 -0.00000000000E+00 -0.29114222070E+03  0.29114222070E+03  0.00000000000E+00 0.  1.
         23    2    1    2    0    0  0.81108816295E+02 -0.34862242690E+02 -0.17276750174E+03  0.21560662479E+03  0.94040368722E+02 0.  0.
         23    2    1    2    0    0 -0.89727547331E+02  0.12659901270E+02 -0.38883281743E+02  0.13419750837E+03  0.91026127042E+02 0.  0.
        -13    1    3    3    0    0  0.10125724639E+03 -0.18594824514E+02 -0.14196831102E+03  0.17536761041E+03  0.00000000000E+00 0.  1.
         13    1    3    3    0    0 -0.20148430098E+02 -0.16267418176E+02 -0.30799190724E+02  0.40239014386E+02  0.00000000000E+00 0. -1.
        -13    1    4    4    0    0 -0.23713315502E+02 -0.20177771903E+02  0.22372956974E+02  0.38340748751E+02  0.00000000000E+00 0.  1.
         13    1    4    4    0    0 -0.66014231829E+02  0.32837673173E+02 -0.61256238717E+02  0.95856759622E+02  0.00000000000E+00 0. -1.
         -3    1    1    2    0  502  0.86187310360E+01  0.22202341420E+02  0.32011625302E+01  0.24030687272E+02  0.00000000000E+00 0.  1.
<scales pt_clust_5="13000.00000" pt_clust_6="13000.00000" pt_clust_7="13000.00000" pt_clust_8="13000.00000" pt_clust_9="23.81652"></scales>
<clustering>
<clus scale="   23.817">  1  9  2 -1</clus>
<clus scale="   91.026">  7  8 -1 -1</clus>
<clus scale="   94.040">  5  6 -1 -1</clus>
<clus scale="  126.838">  1  7  2 -1</clus>
<clus scale="   23.817">  1  5  2 -1</clus>
</clustering>
</event>
<event>
 9    1  0.1464797E-005  0.2564728E+03  0.7546771E-02  0.1109393E+00
         -1   -1    0    0    0  501 -0.00000000000E+00  0.00000000000E+00  0.20966486564E+03  0.20966486564E+03  0.00000000000E+00 0.  1.
         21   -1    0    0  501  502  0.00000000000E+00 -0.00000000000E+00 -0.42211612146E+03  0.42211612146E+03  0.00000000000E+00 0. -1.
         23    2    1    2    0    0 -0.25764673201E+02 -0.21125406941E+03 -0.55863145425E+02  0.23734090541E+03  0.88982662006E+02 0.  0.
         23    2    1    2    0    0  0.24981784538E+02  0.27673248121E+03 -0.10362607306E+03  0.31022005600E+03  0.91066812895E+02 0.  0.
        -11    1    4    4    0    0 -0.21200555056E+02  0.60793825869E+02 -0.53664661281E+02  0.83816756492E+02  0.00000000000E+00 0.  1.
         11    1    4    4    0    0  0.46182339593E+02  0.21593865534E+03 -0.49961411782E+02  0.22640329951E+03  0.00000000000E+00 0. -1.
        -13    1    3    3    0    0 -0.16103844659E+02 -0.13812981852E+03 -0.79125325967E+02  0.15999999308E+03  0.00000000000E+00 0.  1.
         13    1    3    3    0    0 -0.96608285416E+01 -0.73124250894E+02  0.23262180542E+02  0.77340912333E+02  0.00000000000E+00 0. -1.
         -1    1    1    2    0  502  0.78288866286E+00 -0.65478411804E+02 -0.52962037339E+02  0.84220025684E+02  0.00000000000E+00 0.  1.
<scales pt_clust_5="13000.00000" pt_clust_6="13000.00000" pt_clust_7="13000.00000" pt_clust_8="13000.00000" pt_clust_9="65.48309"></scales>
<clustering>
<clus scale="   65.483">  2  9  1 -1</clus>
<clus scale="   88.983">  7  8 -1 -1</clus>
<clus scale="   91.067">  5  6 -1 -1</clus>
<clus scale="  255.740">  1  7  2 -1</clus>
<clus scale="   65.483">  2  5  1 -1</clus>
</clustering>
</event>
<event>
 9    1  0.1464797E-005  0.1024450E+03  0.7546771E-02  0.1276056E+00
          2   -1    0    0  502    0 -0.00000000000E+00  0.00000000000E+00  0.20141073787E+03  0.20141073787E+03  0.00000000000E+00 0. -1.
         21   -1    0    0  501  502  0.00000000000E+00 -0.00000000000E+00 -0.24164381752E+03  0.24164381752E+03  0.00000000000E+00 0. -1.
         23    2    1    2    0    0  0.44212450367E+02  0.18407020768E+01  0.15141664114E+03  0.18250975404E+03  0.91786067320E+02 0.  0.
         23    2    1    2    0    0 -0.29109266830E+02 -0.16004221321E+02 -0.39239069041E+02  0.10673414437E+03  0.93536027929E+02 0.  0.
        -11    1    4    4    0    0  0.25909922673E+02 -0.30864264932E+02 -0.59540116395E+01  0.40735453813E+02  0.00000000000E+00 0.  1.
         11    1    4    4    0    0 -0.55019189503E+02  0.14860043611E+02 -0.33285057401E+02  0.65998690562E+02  0.00000000000E+00 0. -1.
        -11    1    3    3    0    0  0.65417063337E+02 -0.22121527107E+02  0.92105560738E+02  0.11511814999E+03  0.00000000000E+00 0.  1.
         11    1    3    3    0    0 -0.21204612970E+02  0.23962229184E+02  0.59311080401E+02  0.67391604054E+02  0.00000000000E+00 0. -1.
          2    1    1    2  501    0 -0.15103183538E+02  0.14163519244E+02 -0.15241065175E+03  0.15381065697E+03  0.00000000000E+00 0. -1.
<scales pt_clust_5="13000.00000" pt_clust_6="13000.00000" pt_clust_7="13000.00000" pt_clust_8="13000.00000" pt_clust_9="20.70535"></scales>
<clustering>
<clus scale="   20.705">  2  9  1 -1</clus>
<clus scale="   91.786">  7  8 -1 -1</clus>
<clus scale="   93.536">  5  6 -1 -1</clus>
<clus scale="  100.850">  1  7  2 -1</clus>
<clus scale="   20.705">  2  5  1 -1</clus>
</clustering>
</event>
<event>
 9    1  0.1464797E-005  0.3671037E+03  0.7546771E-02  0.1055835E+00
          2   -1    0    0  502    0 -0.00000000000E+00  0.00000000000E+00  0.19476366186E+04  0.19476366186E+04  0.00000000000E+00 0. -1.
         21   -1    0    0  501  502  0.00000000000E+00 -0.00000000000E+00 -0.77511161873E+02  0.77511161873E+02  0.00000000000E+00 0.  1.
         23    2    1    2    0    0  0.32800018816E+03 -0.18087150211E+03  0.98131615335E+03  0.10539803800E+04  0.87147145670E+02 0.  0.
         23    2    1    2    0    0 -0.28713027669E+03  0.17860802162E+03  0.76585581717E+03  0.84157946588E+03  0.85885059976E+02 0.  0.
        -11    1    3    3    0    0  0.79396587124E+02 -0.16028310337E+02  0.14542348689E+03  0.16645935035E+03  0.00000000000E+00 0. -1.
         11    1    3    3    0    0  0.24860360103E+03 -0.16484319177E+03  0.83589266646E+03  0.88752102970E+03  0.00000000000E+00 0.  1.
        -13    1    4    4    0    0 -0.15288101267E+02  0.30873263647E+02  0.41641958403E+02  0.54045695002E+02  0.00000000000E+00 0.  1.
         13    1    4    4    0    0 -0.27184217543E+03  0.14773475798E+03  0.72421385876E+03  0.78753377088E+03  0.00000000000E+00 0. -1.
          2    1    1    2  501    0 -0.40869911464E+02  0.22634804855E+01  0.12295348623E+03  0.12958793456E+03  0.00000000000E+00 0. -1.
<scales pt_clust_5="13000.00000" pt_clust_6="13000.00000" pt_clust_7="13000.00000" pt_clust_8="13000.00000" pt_clust_9="40.93256"></scales>
<clustering>
<clus scale="   40.933">  2  9  1 -1</clus>
<clus scale="   85.885">  7  8 -1 -1</clus>
<clus scale="   87.147">  5  6 -1 -1</clus>
<clus scale="  366.806">  2  7  1 -1</clus>
<clus scale="   40.933">  2  5  1 -1</clus>
</clustering>
</event>
<event>
 9    1  0.1464797E-005  0.1436790E+03  0.7546771E-02  0.1208705E+00
         21   -1    0    0  501  502  0.00000000000E+00  0.00000000000E+00  0.14315849652E+03  0.14315849652E+03  0.00000000000E+00 0.  1.
         -1   -1    0    0    0  501 -0.00000000000E+00 -0.00000000000E+00 -0.39427565684E+03  0.39427565684E+03  0.00000000000E+00 0.  1.
         23    2    1    2    0    0  0.11644168034E+03  0.49879847624E+02 -0.26202156979E+03  0.30529351281E+03  0.92207167877E+02 0.  0.
         23    2    1    2    0    0 -0.50046268052E+02 -0.72596637377E+02 -0.52858392170E+02  0.13732451226E+03  0.91044556900E+02 0.  0.
        -11    1    4    4    0    0 -0.57128932484E+02 -0.23258614404E+02  0.38775629596E+01  0.61803831315E+02  0.00000000000E+00 0. -1.
         11    1    4    4    0    0  0.70826644318E+01 -0.49338022973E+02 -0.56735955130E+02  0.75520680947E+02  0.00000000000E+00 0.  1.
        -13    1    3    3    0    0  0.36647472005E+02 -0.20902690624E+02 -0.12321388288E+03  0.13023678672E+03  0.00000000000E+00 0. -1.
         13    1    3    3    0    0  0.79794208336E+02  0.70782538249E+02 -0.13880768691E+03  0.17505672609E+03  0.00000000000E+00 0.  1.
         -1    1    1    2    0  502 -0.66395412289E+02  0.22716789752E+02  0.63762801640E+02  0.94816128283E+02  0.00000000000E+00 0.  1.
<scales pt_clust_5="13000.00000" pt_clust_6="13000.00000" pt_clust_7="13000.00000" pt_clust_8="13000.00000" pt_clust_9="70.17409"></scales>
<clustering>
<clus scale="   70.174">  1  9  2 -1</clus>
<clus scale="   91.045">  5  6 -1 -1</clus>
<clus scale="   92.207">  7  8 -1 -1</clus>
<clus scale="  142.936">  1  5  2 -1</clus>
<clus scale="   70.174">  1  5  2 -1</clus>
</clustering>
</event>
<event>
 9    1  0.1464797E-005  0.9468919E+02  0.7546771E-02  0.1293276E+00
          1   -1    0    0  502    0 -0.00000000000E+00  0.00000000000E+00  0.60042652270E+02  0.60042652270E+02  0.00000000000E+00 0. -1.
         21   -1    0    0  501  502  0.00000000000E+00 -0.00000000000E+00 -0.24383702667E+03  0.24383702667E+03  0.00000000000E+00 0.  1.
         23    2    1    2    0    0  0.18586665372E+02 -0.17460461288E+01 -0.12755911257E+02  0.94477829792E+02  0.91732405634E+02 0.  0.
         23    2    1    2    0    0 -0.33097731288E+02  0.17895703878E+02 -0.12185080424E+03  0.15563561190E+03  0.89213839533E+02 0.  0.
        -11    1    3    3    0    0 -0.31909816864E+02  0.36554724435E+01 -0.26751542500E+02  0.41800046856E+02  0.00000000000E+00 0.  1.
         11    1    3    3    0    0  0.50496482236E+02 -0.54015185724E+01  0.13995631243E+02  0.52677782935E+02  0.00000000000E+00 0. -1.
        -11    1    4    4    0    0 -0.33824155794E+02  0.52363535850E+02 -0.77368779334E+02  0.99357643982E+02  0.00000000000E+00 0.  1.
         11    1    4    4    0    0  0.72642450571E+00 -0.34467831972E+02 -0.44482024909E+02  0.56277967922E+02  0.00000000000E+00 0. -1.
          1    1    1    2  501    0  0.14511065917E+02 -0.16149657749E+02 -0.49187658902E+02  0.53766237247E+02  0.00000000000E+00 0. -1.
<scales pt_clust_5="13000.00000" pt_clust_6="13000.00000" pt_clust_7="13000.00000" pt_clust_8="13000.00000" pt_clust_9="21.71134"></scales>
<clustering>
<clus scale="   21.711">  2  9  1 -1</clus>
<clus scale="   89.214">  7  8 -1 -1</clus>
<clus scale="   91.732">  5  6 -1 -1</clus>
<clus scale="   92.251">  2  7  1 -1</clus>
<clus scale="   21.711">  2  5  1 -1</clus>
</clustering>
</event>
<event>
 9    1  0.1464797E-005  0.1330624E+03  0.7546771E-02  0.1223949E+00
         21   -1    0    0  501  502  0.00000000000E+00  0.00000000000E+00  0.17252425788E+03  0.17252425788E+03  0.00000000000E+00 0. -1.
          3   -1    0    0  502    0 -0.00000000000E+00 -0.00000000000E+00 -0.21103214027E+03  0.21103214027E+03  0.00000000000E+00 0. -1.
         23    2    1    2    0    0 -0.17967080715E+02 -0.11146946351E+03 -0.11865045933E+03  0.18608910116E+03  0.88334391875E+02 0.  0.
         23    2    1    2    0    0  0.26066020307E+02  0.59593714122E+02  0.15066056028E+02  0.11385127120E+03  0.92218640913E+02 0.  0.
        -11    1    3    3    0    0 -0.24868061950E+02 -0.63126824423E+01  0.21922801551E+01  0.25750272951E+02  0.00000000000E+00 0. -1.
         11    1    3    3    0    0  0.69009812344E+01 -0.10515678107E+03 -0.12084273948E+03  0.16033882821E+03  0.00000000000E+00 0.  1.
        -13    1    4    4    0    0  0.41603848127E+02 -0.21003825135E+01 -0.13944028780E+02  0.43928666316E+02  0.00000000000E+00 0. -1.
         13    1    4    4    0    0 -0.15537827820E+02  0.61694096636E+02  0.29010084808E+02  0.69922604883E+02  0.00000000000E+00 0.  1.
          3    1    1    2  501    0 -0.80989395915E+01  0.51875749386E+02  0.65076520900E+02  0.83616025793E+02  0.00000000000E+00 0. -1.
<scales pt_clust_5="13000.00000" pt_clust_6="13000.00000" pt_clust_7="13000.00000" pt_clust_8="13000.00000" pt_clust_9="52.50415"></scales>
<clustering>
<clus scale="   52.504">  1  9  2 -1</clus>
<clus scale="   88.334">  5  6 -1 -1</clus>
<clus scale="   92.219">  7  8 -1 -1</clus>
<clus scale="  130.401">  2  5  1 -1</clus>
<clus scale="   52.504">  1  5  2 -1</clus>
</clustering>
</event>
<event>
 9    1  0.1464797E-005  0.1130972E+03  0.7546771E-02  0.1254972E+00
         -1   -1    0    0    0  501 -0.00000000000E+00  0.00000000000E+00  0.36533401413E+03  0.36533401413E+03  0.00000000000E+00 0.  1.
         21   -1    0    0  501  502  0.00000000000E+00 -0.00000000000E+00 -0.87261833171E+02  0.87261833171E+02  0.00000000000E+00 0.  1.
         23    2    1    2    0    0 -0.53732702743E+02 -0.40223117279E+02  0.20297852666E+03  0.23245855998E+03  0.91277583845E+02 0.  0.
         23    2    1    2    0    0  0.65907972593E+02  0.19727206663E+02  0.12224148725E+03  0.16730512193E+03  0.91186616802E+02 0.  0.
        -13    1    3    3    0    0  0.22047565103E+02 -0.90973800910E+01  0.88689158270E+02  0.91840210399E+02  0.00000000000E+00 0.  1.
         13    1    3    3    0    0 -0.75780267846E+02 -0.31125737188E+02  0.11428936839E+03  0.14061834958E+03  0.00000000000E+00 0. -1.
        -13    1    4    4    0    0  0.61964761915E+02  0.51650515476E+02  0.98550831248E+02  0.12735648318E+03  0.00000000000E+00 0.  1.
         13    1    4    4    0    0  0.39432106778E+01 -0.31923308812E+02  0.23690656003E+02  0.39948638748E+02  0.00000000000E+00 0. -1.
         -1    1    1    2    0  502 -0.12175269850E+02  0.20495910616E+02 -0.47147832956E+02  0.52832165395E+02  0.00000000000E+00 0.  1.
<scales pt_clust_5="13000.00000" pt_clust_6="13000.00000" pt_clust_7="13000.00000" pt_clust_8="13000.00000" pt_clust_9="23.83945"></scales>
<clustering>
<clus scale="   23.839">  2  9  1 -1</clus>
<clus scale="   91.187">  7  8 -1 -1</clus>
<clus scale="   91.278">  5  6 -1 -1</clus>
<clus scale="  113.024">  2  7  1 -1</clus>
<clus scale="   23.839">  2  5  1 -1</clus>
</clustering>
</event>
<event>
 9    1  0.1464797E-005  0.1178853E+03  0.7546771E-02  0.1246893E+00
         -3   -1    0    0    0  501 -0.00000000000E+00  0.00000000000E+00  0.30323823525E+03  0.30323823525E+03  0.00000000000E+00 0.  1.
         21   -1    0    0  501  502  0.00000000000E+00 -0.00000000000E+00 -0.63883402950E+02  0.63883402950E+02  0.00000000000E+00 0. -1.
         23    2    1    2    0    0 -0.62291381435E+02 -0.44384488941E+01  0.86248837076E+02  0.13946542543E+03  0.90065681384E+02 0.  0.
         23    2    1    2    0    0  0.85715531865E+02  0.32751148891E+02  0.10128427436E+03  0.16412834048E+03  0.90883539544E+02 0.  0.
        -11    1    4    4    0    0  0.80270347230E+02 -0.10316322815E+02  0.43578906431E+02  0.91917768938E+02  0.00000000000E+00 0. -1.
         11    1    4    4    0    0  0.54451846347E+01  0.43067471707E+02  0.57705367925E+02  0.72210571541E+02  0.00000000000E+00 0.  1.
        -13    1    3    3    0    0 -0.38826274306E+02 -0.13743449374E+02 -0.79464336835E+01  0.41946487165E+02  0.00000000000E+00 0. -1.
         13    1    3    3    0    0 -0.23465107129E+02  0.93050004797E+01  0.94195270759E+02  0.97518938263E+02  0.00000000000E+00 0.  1.
         -3    1    1    2    0  502 -0.23424150430E+02 -0.28312699997E+02  0.51821720872E+02  0.63527872297E+02  0.00000000000E+00 0.  1.
<scales pt_clust_5="13000.00000" pt_clust_6="13000.00000" pt_clust_7="13000.00000" pt_clust_8="13000.00000" pt_clust_9="36.74644"></scales>
<clustering>
<clus scale="   36.746">  2  9  1 -1</clus>
<clus scale="   90.066">  7  8 -1 -1</clus>
<clus scale="   90.884">  5  6 -1 -1</clus>
<clus scale="  117.256">  1  7  2 -1</clus>
<clus scale="   36.746">  2  5  1 -1</clus>
</clustering>
</event>
<event>
 9    1  0.1464797E-005  0.2071271E+03  0.7546771E-02  0.1143869E+00
         -1   -1    0    0    0  501 -0.00000000000E+00  0.00000000000E+00  0.56972532415E+03  0.56972532415E+03  0.00000000000E+00 0.  1.
         21   -1    0    0  501  502  0.00000000000E+00 -0.00000000000E+00 -0.10667149827E+03  0.10667149827E+03  0.00000000000E+00 0.  1.
         23    2    1    2    0    0  0.10956623326E+03  0.12992123369E+03  0.24263631816E+03  0.30979428866E+03  0.90641226605E+02 0.  0.
         23    2    1    2    0    0 -0.13278309879E+03 -0.16102025532E+03  0.23314973080E+03  0.32575793197E+03  0.90556939666E+02 0.  0.
        -11    1    4    4    0    0  0.10702361127E+02 -0.18821961953E+02  0.75469663002E+01  0.22929533048E+02  0.00000000000E+00 0. -1.
         11    1    4    4    0    0 -0.14348545991E+03 -0.14219829337E+03  0.22560276450E+03  0.30282839892E+03  0.00000000000E+00 0.  1.
        -11    1    3    3    0    0  0.11929483743E+03  0.96803102561E+02  0.22066429742E+03  0.26887698127E+03  0.00000000000E+00 0.  1.
         11    1    3    3    0    0 -0.97286041645E+01  0.33118131126E+02  0.21972020741E+02  0.40917307386E+02  0.00000000000E+00 0. -1.
         -1    1    1    2    0  502  0.23216865524E+02  0.31099021633E+02 -0.12732223079E+02  0.40844601795E+02  0.00000000000E+00 0.  1.
<scales pt_clust_5="13000.00000" pt_clust_6="13000.00000" pt_clust_7="13000.00000" pt_clust_8="13000.00000" pt_clust_9="38.80943"></scales>
<clustering>
<clus scale="   38.809">  2  9  1 -1</clus>
<clus scale="   90.557">  5  6 -1 -1</clus>
<clus scale="   90.641">  7  8 -1 -1</clus>
<clus scale="  207.090">  2  5  1 -1</clus>
<clus scale="   38.809">  2  5  1 -1</clus>
</clustering>
</event>
<event>
 9    1  0.1762268E-005  0.1128286E+03  0.7546771E-02  0.1256054E+00
         21   -1    0    0  501  502  0.00000000000E+00  0.00000000000E+00  0.29234264764E+03  0.29234264764E+03  0.00000000000E+00 0. -1.
          1   -1    0    0  502    0 -0.00000000000E+00 -0.00000000000E+00 -0.48209642598E+03  0.48209642598E+03  0.00000000000E+00 0. -1.
         23    2    1    2    0    0 -0.19848871194E+02  0.82984041961E+02 -0.34421937754E+03  0.36625908490E+03  0.91533646734E+02 0.  0.
         23    2    1    2    0    0  0.10396364039E+02 -0.31937117779E+02 -0.10580819040E+03  0.14277919010E+03  0.89791202753E+02 0.  0.
        -13    1    3    3    0    0  0.28049140341E+02  0.84735266503E+01 -0.14942880322E+03  0.15227449610E+03  0.00000000000E+00 0.  1.
         13    1    3    3    0    0 -0.47898011535E+02  0.74510515310E+02 -0.19479057432E+03  0.21398458880E+03  0.00000000000E+00 0. -1.
        -13    1    4    4    0    0  0.32015164238E+01 -0.58010441958E+02 -0.37087235545E+02  0.68926947734E+02  0.00000000000E+00 0.  1.
         13    1    4    4    0    0  0.71948476151E+01  0.26073324178E+02 -0.68720954857E+02  0.73852242365E+02  0.00000000000E+00 0. -1.
          1    1    1    2  501    0  0.94525071547E+01 -0.51046924181E+02  0.26027378960E+03  0.26540079863E+03  0.00000000000E+00 0. -1.
<scales pt_clust_5="13000.00000" pt_clust_6="13000.00000" pt_clust_7="13000.00000" pt_clust_8="13000.00000" pt_clust_9="51.91472"></scales>
<clustering>
<clus scale="   51.915">  1  9  2 -1</clus>
<clus scale="   89.791">  7  8 -1 -1</clus>
<clus scale="   91.534">  5  6 -1 -1</clus>
<clus scale="  111.420">  1  7  2 -1</clus>
<clus scale="   51.915">  1  5  2 -1</clus>
</clustering>
</event>
<event>
 9    1  0.1464797E-005  0.1324379E+03  0.7546771E-02  0.1224171E+00
          2   -1    0    0  502    0 -0.00000000000E+00  0.00000000000E+00  0.10273109698E+04  0.10273109698E+04  0.00000000000E+00 0.  1.
         21   -1    0    0  501  502  0.00000000000E+00 -0.00000000000E+00 -0.44485448042E+02  0.44485448042E+02  0.00000000000E+00 0.  1.
         23    2    1    2    0    0  0.13922595621E+03  0.20316264006E+02  0.61781551435E+03  0.64007249855E+03  0.90554824118E+02 0.  0.
         23    2    1    2    0    0 -0.50740722216E+02  0.36378583497E+02  0.26221436330E+03  0.28471750169E+03  0.91704205014E+02 0.  0.
        -11    1    3    3    0    0  0.12716434407E+03 -0.15563434627E+02  0.50843741882E+03  0.52432966706E+03  0.00000000000E+00 0.  1.
         11    1    3    3    0    0  0.12061612133E+02  0.35879698633E+02  0.10937809553E+03  0.11574283149E+03  0.00000000000E+00 0. -1.
        -13    1    4    4    0    0 -0.24931531126E+02 -0.25079789811E+02  0.43444225041E+02  0.56017656062E+02  0.00000000000E+00 0. -1.
         13    1    4    4    0    0 -0.25809191090E+02  0.61458373309E+02  0.21877013826E+03  0.22869984562E+03  0.00000000000E+00 0.  1.
          2    1    1    2  501    0 -0.88485233990E+02 -0.56694847504E+02  0.10279564410E+03  0.14700641760E+03  0.00000000000E+00 0.  1.
<scales pt_clust_5="13000.00000" pt_clust_6="13000.00000" pt_clust_7="13000.00000" pt_clust_8="13000.00000" pt_clust_9="105.09016"></scales>
<clustering>
<clus scale="   90.555">  5  6 -1 -1</clus>
<clus scale="   91.704">  7  8 -1 -1</clus>
<clus scale="  105.090">  2  9  1 -1</clus>
<clus scale="  131.645">  1  5  2 -1</clus>
<clus scale="  105.090">  2  5  1 -1</clus>
</clustering>
</event>
<event>
 9    1  0.1464797E-005  0.9247453E+02  0.7546771E-02  0.1300081E+00
         21   -1    0    0  501  502  0.00000000000E+00  0.00000000000E+00  0.18176219635E+03  0.18176219635E+03  0.00000000000E+00 0. -1.
          2   -1    0    0  502    0 -0.00000000000E+00 -0.00000000000E+00 -0.25605179214E+03  0.25605179214E+03  0.00000000000E+00 0. -1.
         23    2    1    2    0    0 -0.14412293288E+02  0.21160020973E+02 -0.17872234842E+03  0.19989340354E+03  0.85791807690E+02 0.  0.
         23    2    1    2    0    0 -0.12533469665E+02  0.80471569574E+01 -0.30570229402E+02  0.97190564917E+02  0.91047363423E+02 0.  0.
        -11    1    4    4    0    0  0.22077320986E+02 -0.16978705309E+02  0.17495493344E+02  0.32890375845E+02  0.00000000000E+00 0.  1.
         11    1    4    4    0    0 -0.34610790650E+02  0.25025862267E+02 -0.48065722746E+02  0.64300189072E+02  0.00000000000E+00 0. -1.
        -13    1    3    3    0    0  0.82476615606E+01 -0.18980095178E+02 -0.66238108867E+01  0.21728847297E+02  0.00000000000E+00 0.  1.
         13    1    3    3    0    0 -0.22659954849E+02  0.40140116151E+02 -0.17209853754E+03  0.17816455624E+03  0.00000000000E+00 0. -1.
          2    1    1    2  501    0  0.26945762953E+02 -0.29207177931E+02  0.13500298202E+03  0.14073002004E+03  0.00000000000E+00 0. -1.
<scales pt_clust_5="13000.00000" pt_clust_6="13000.00000" pt_clust_7="13000.00000" pt_clust_8="13000.00000" pt_clust_9="39.73831"></scales>
<clustering>
<clus scale="   39.738">  1  9  2 -1</clus>
<clus scale="   85.792">  7  8 -1 -1</clus>
<clus scale="   87.305">  2  7  1 -1</clus>
<clus scale="   91.047">  5  6 -1 -1</clus>
<clus scale="   39.738">  1  5  2 -1</clus>
</clustering>
</event>
<event>
 9    1  0.1464797E-005  0.1302440E+03  0.7546771E-02  0.1227308E+00
         -2   -1    0    0    0  501 -0.00000000000E+00  0.00000000000E+00  0.81453457574E+02  0.81453457574E+02  0.00000000000E+00 0.  1.
         21   -1    0    0  501  502  0.00000000000E+00 -0.00000000000E+00 -0.25394506330E+03  0.25394506330E+03  0.00000000000E+00 0. -1.
         23    2    1    2    0    0  0.76497476811E+02 -0.32687583389E+02 -0.52602785675E+02  0.13473228684E+03  0.92007575721E+02 0.  0.
         23    2    1    2    0    0 -0.91191328929E+02  0.48503884757E+02 -0.98319641732E+02  0.17014912191E+03  0.92819644621E+02 0.  0.
        -13    1    4    4    0    0 -0.54148436160E+02  0.67994245463E+02 -0.33842742268E+02  0.93277016241E+02  0.00000000000E+00 0.  1.
         13    1    4    4    0    0 -0.37042892769E+02 -0.19490360706E+02 -0.64476899464E+02  0.76872105667E+02  0.00000000000E+00 0. -1.
        -13    1    3    3    0    0  0.41755941066E+02  0.24210485602E+02  0.23684478369E+01  0.48325104993E+02  0.00000000000E+00 0. -1.
         13    1    3    3    0    0  0.34741535744E+02 -0.56898068991E+02 -0.54971233512E+02  0.86407181846E+02  0.00000000000E+00 0.  1.
         -2    1    1    2    0  502  0.14693852118E+02 -0.15816301368E+02 -0.21569178317E+02  0.30517112122E+02  0.00000000000E+00 0.  1.
<scales pt_clust_5="13000.00000" pt_clust_6="13000.00000" pt_clust_7="13000.00000" pt_clust_8="13000.00000" pt_clust_9="21.58853"></scales>
<clustering>
<clus scale="   21.589">  2  9  1 -1</clus>
<clus scale="   92.008">  7  8 -1 -1</clus>
<clus scale="   92.820">  5  6 -1 -1</clus>
<clus scale="  129.666">  1  7  2 -1</clus>
<clus scale="   21.589">  2  5  1 -1</clus>
</clustering>
</event>
<event>
 9    1  0.1464797E-005  0.9963520E+02  0.7546771E-02  0.1282095E+00
         21   -1    0    0  501  502  0.00000000000E+00  0.00000000000E+00  0.22967064045E+03  0.22967064045E+03  0.00000000000E+00 0. -1.
         -4   -1    0    0    0  501 -0.00000000000E+00 -0.00000000000E+00 -0.94233183766E+02  0.94233183766E+02  0.00000000000E+00 0.  1.
         23    2    1    2    0    0 -0.21730459618E+02  0.19091337509E+02 -0.41068308361E+02  0.10684649955E+03  0.94302049133E+02 0.  0.
         23    2    1    2    0    0  0.37783198854E+02 -0.31643990825E+02  0.15827060172E+03  0.18971174507E+03  0.92260774852E+02 0.  0.
        -13    1    3    3    0    0 -0.23422026368E+02  0.56353065649E+02 -0.21338321373E+02  0.64649696722E+02  0.00000000000E+00 0.  1.
         13    1    3    3    0    0  0.16915667498E+01 -0.37261728140E+02 -0.19729986988E+02  0.42196802825E+02  0.00000000000E+00 0. -1.
        -13    1    4    4    0    0  0.29591680639E+02 -0.57438803041E+02  0.14665948181E+03  0.16026193329E+03  0.00000000000E+00 0. -1.
         13    1    4    4    0    0  0.81915182149E+01  0.25794812217E+02  0.11611119911E+02  0.29449811774E+02  0.00000000000E+00 0.  1.
         -4    1    1    2    0  502 -0.16052739236E+02  0.12552653315E+02  0.18235163321E+02  0.27345579598E+02  0.00000000000E+00 0.  1.
<scales pt_clust_5="13000.00000" pt_clust_6="13000.00000" pt_clust_7="13000.00000" pt_clust_8="13000.00000" pt_clust_9="20.37792"></scales>
<clustering>
<clus scale="   20.378">  1  9  2 -1</clus>
<clus scale="   92.261">  7  8 -1 -1</clus>
<clus scale="   94.302">  5  6 -1 -1</clus>
<clus scale="   97.705">  1  7  2 -1</clus>
<clus scale="   20.378">  1  5  2 -1</clus>
</clustering>
</event>
<event>
 9    1  0.1464797E-005  0.9096843E+02  0.7546771E-02  0.1301373E+00
          1   -1    0    0  502    0 -0.00000000000E+00  0.00000000000E+00  0.46294820437E+03  0.46294820437E+03  0.00000000000E+00 0. -1.
         21   -1    0    0  501  502  0.00000000000E+00 -0.00000000000E+00 -0.69129520869E+02  0.69129520869E+02  0.00000000000E+00 0. -1.
         23    2    1    2    0    0 -0.15916973926E+02 -0.25625256418E+02  0.23931915410E+03  0.25701432311E+03  0.88728242058E+02 0.  0.
         23    2    1    2    0    0  0.58963745128E+01 -0.44655802120E+02  0.17432103429E+03  0.20135633560E+03  0.90153441398E+02 0.  0.
        -11    1    4    4    0    0 -0.14021935478E+02  0.23956793608E+02  0.65949641142E+02  0.71553461141E+02  0.00000000000E+00 0.  1.
         11    1    4    4    0    0  0.19918309991E+02 -0.68612595728E+02  0.10837139314E+03  0.12980287446E+03  0.00000000000E+00 0. -1.
        -13    1    3    3    0    0 -0.31926358381E+02  0.13363634097E+02  0.38288507779E+02  0.51612875368E+02  0.00000000000E+00 0.  1.
         13    1    3    3    0    0  0.16009384455E+02 -0.38988890515E+02  0.20103064632E+03  0.20540144774E+03  0.00000000000E+00 0. -1.
          1    1    1    2  501    0  0.10020599413E+02  0.70281058537E+02 -0.19821504879E+02  0.73707066536E+02  0.00000000000E+00 0. -1.
<scales pt_clust_5="13000.00000" pt_clust_6="13000.00000" pt_clust_7="13000.00000" pt_clust_8="13000.00000" pt_clust_9="70.99183"></scales>
<clustering>
<clus scale="   70.992">  2  9  1 -1</clus>
<clus scale="   88.728">  7  8 -1 -1</clus>
<clus scale="   89.556">  1  7  2 -1</clus>
<clus scale="   90.153">  5  6 -1 -1</clus>
<clus scale="   70.992">  2  5  1 -1</clus>
</clustering>
</event>
<event>
 9    1  0.1464797E-005  0.1041672E+03  0.7546771E-02  0.1271873E+00
          1   -1    0    0  502    0 -0.00000000000E+00  0.00000000000E+00  0.17775067767E+03  0.17775067767E+03  0.00000000000E+00 0. -1.
         21   -1    0    0  501  502  0.00000000000E+00 -0.00000000000E+00 -0.15720282560E+03  0.15720282560E+03  0.00000000000E+00 0. -1.
         23    2    1    2    0    0 -0.38540712180E+02  0.19279134013E+02  0.92239336892E+02  0.13604870222E+03  0.90244571036E+02 0.  0.
         23    2    1    2    0    0  0.56262942321E+02 -0.58284968749E+02 -0.69762335709E+01  0.12129296994E+03  0.90003669154E+02 0.  0.
        -11    1    3    3    0    0 -0.38925863303E+02 -0.19923445330E+02  0.98744199935E+01  0.44829350630E+02  0.00000000000E+00 0. -1.
         11    1    3    3    0    0  0.38515112241E+00  0.39202579343E+02  0.82364916898E+02  0.91219351589E+02  0.00000000000E+00 0.  1.
        -13    1    4    4    0    0  0.65893175706E+02 -0.28731967879E+02 -0.34537091034E+02  0.79751158236E+02  0.00000000000E+00 0. -1.
         13    1    4    4    0    0 -0.96302333855E+01 -0.29553000869E+02  0.27560857464E+02  0.41541811703E+02  0.00000000000E+00 0.  1.
          1    1    1    2  501    0 -0.17722230140E+02  0.39005834736E+02 -0.64715251253E+02  0.77611831117E+02  0.00000000000E+00 0. -1.
<scales pt_clust_5="13000.00000" pt_clust_6="13000.00000" pt_clust_7="13000.00000" pt_clust_8="13000.00000" pt_clust_9="42.84312"></scales>
<clustering>
<clus scale="   42.843">  2  9  1 -1</clus>
<clus scale="   90.004">  7  8 -1 -1</clus>
<clus scale="   90.245">  5  6 -1 -1</clus>
<clus scale="  103.959">  2  7  1 -1</clus>
<clus scale="   42.843">  2  5  1 -1</clus>
</clustering>
</event>
<event>
 9    1  0.1464797E-005  0.1460700E+03  0.7546771E-02  0.1228267E+00
         21   -1    0    0  501  502  0.00000000000E+00  0.00000000000E+00  0.56952451403E+03  0.56952451403E+03  0.00000000000E+00 0. -1.
          3   -1    0    0  502    0 -0.00000000000E+00 -0.00000000000E+00 -0.19016761836E+03  0.19016761836E+03  0.00000000000E+00 0. -1.
         23    2    1    2    0    0 -0.24346064700E+02 -0.20971473557E+02 -0.82708810074E+02  0.12231567056E+03  0.84189324930E+02 0.  0.
         23    2    1    2    0    0  0.34952159594E+02 -0.87727089319E+02 -0.24619275762E+02  0.13858779111E+03  0.98401074409E+02 0.  0.
        -11    1    3    3    0    0 -0.15495859892E+02 -0.51433572808E+02 -0.69778103095E+02  0.88059739706E+02  0.00000000000E+00 0. -1.
         11    1    3    3    0    0 -0.88502048082E+01  0.30462099251E+02 -0.12930706979E+02  0.34255930858E+02  0.00000000000E+00 0.  1.
        -11    1    4    4    0    0  0.20137316414E+02 -0.10399001926E+03 -0.38355374279E+02  0.11265243163E+03  0.00000000000E+00 0. -1.
         11    1    4    4    0    0  0.14814843179E+02  0.16262929937E+02  0.13736098518E+02  0.25935359474E+02  0.00000000000E+00 0.  1.
          3    1    1    2  501    0 -0.10606094894E+02  0.10869856288E+03  0.48668498150E+03  0.49878867072E+03  0.00000000000E+00 0. -1.
<scales pt_clust_5="13000.00000" pt_clust_6="13000.00000" pt_clust_7="13000.00000" pt_clust_8="13000.00000" pt_clust_9="107.95219"></scales>
<clustering>
<clus scale="   84.189">  5  6 -1 -1</clus>
<clus scale="   90.113">  2  5  1 -1</clus>
<clus scale="   98.401">  7  8 -1 -1</clus>
<clus scale="  107.952">  1  9  2 -1</clus>
<clus scale="  107.952">  1  5  2 -1</clus>
</clustering>
</event>
<event>
 9    1  0.1464797E-005  0.1962718E+03  0.7546771E-02  0.1153027E+00
         21   -1    0    0  501  502  0.00000000000E+00  0.00000000000E+00  0.18376559378E+03  0.18376559378E+03  0.00000000000E+00 0. -1.
          3   -1    0    0  502    0 -0.00000000000E+00 -0.00000000000E+00 -0.82428389256E+03  0.82428389256E+03  0.00000000000E+00 0. -1.
         23    2    1    2    0    0  0.63794095809E+02  0.19703347640E+03 -0.60742390251E+03  0.64811583628E+03  0.90545361136E+02 0.  0.
         23    2    1    2    0    0 -0.61846253154E+02 -0.10734584158E+03 -0.14894613505E+03  0.21340962026E+03  0.89502101316E+02 0.  0.
        -11    1    4    4    0    0 -0.23048880197E+02  0.68985813536E+01 -0.56508563867E+02  0.61417091215E+02  0.00000000000E+00 0. -1.
         11    1    4    4    0    0 -0.38797372957E+02 -0.11424442293E+03 -0.92437571179E+02  0.15199252904E+03  0.00000000000E+00 0.  1.
        -13    1    3    3    0    0  0.35098738307E+02  0.19401451919E+03 -0.52742480360E+03  0.56307235640E+03  0.00000000000E+00 0. -1.
         13    1    3    3    0    0  0.28695357502E+02  0.30189572018E+01 -0.79999098912E+02  0.85043479888E+02  0.00000000000E+00 0.  1.
          3    1    1    2  501    0 -0.19478426547E+01 -0.89687634821E+02  0.11585173878E+03  0.14652402980E+03  0.00000000000E+00 0. -1.
<scales pt_clust_5="13000.00000" pt_clust_6="13000.00000" pt_clust_7="13000.00000" pt_clust_8="13000.00000" pt_clust_9="89.70878"></scales>
<clustering>
<clus scale="   89.502">  5  6 -1 -1</clus>
<clus scale="   89.709">  1  9  2 -1</clus>
<clus scale="   90.545">  7  8 -1 -1</clus>
<clus scale="  195.793">  1  5  2 -1</clus>
<clus scale="   89.709">  1  5  2 -1</clus>
</clustering>
</event>
<event>
 9    1  0.1464797E-005  0.1265511E+03  0.7546771E-02  0.1237889E+00
         21   -1    0    0  501  502  0.00000000000E+00  0.00000000000E+00  0.80059114767E+02  0.80059114767E+02  0.00000000000E+00 0. -1.
          1   -1    0    0  502    0 -0.00000000000E+00 -0.00000000000E+00 -0.57075861443E+03  0.57075861443E+03  0.00000000000E+00 0. -1.
         23    2    1    2    0    0 -0.88343479689E+02  0.26371506889E+02 -0.43998955282E+03  0.46004650533E+03  0.97734096886E+02 0.  0.
         23    2    1    2    0    0  0.29204661742E+02 -0.56606078885E+02 -0.66807579135E+02  0.12242897560E+03  0.80426618748E+02 0.  0.
        -11    1    3    3    0    0 -0.98280931226E+02  0.48852562876E+02 -0.35598412545E+03  0.37251900879E+03  0.00000000000E+00 0. -1.
         11    1    3    3    0    0  0.99374515373E+01 -0.22481055987E+02 -0.84005427376E+02  0.87527496537E+02  0.00000000000E+00 0.  1.
        -11    1    4    4    0    0  0.33418937039E+02 -0.33559674324E+02 -0.81865850668E+02  0.94578510239E+02  0.00000000000E+00 0.  1.
         11    1    4    4    0    0 -0.42142752966E+01 -0.23046404561E+02  0.15058271533E+02  0.27850465364E+02  0.00000000000E+00 0. -1.
          1    1    1    2  501    0  0.59138817947E+02  0.30234571996E+02  0.16097632295E+02  0.68342248262E+02  0.00000000000E+00 0. -1.
<scales pt_clust_5="13000.00000" pt_clust_6="13000.00000" pt_clust_7="13000.00000" pt_clust_8="13000.00000" pt_clust_9="66.41934"></scales>
<clustering>
<clus scale="   66.419">  1  9  2 -1</clus>
<clus scale="   80.427">  7  8 -1 -1</clus>
<clus scale="   97.734">  5  6 -1 -1</clus>
<clus scale="  113.717">  1  7  2 -1</clus>
<clus scale="   66.419">  1  5  2 -1</clus>
</clustering>
</event>
<event>
 9    1  0.1464797E-005  0.9635547E+02  0.7546771E-02  0.1289471E+00
          1   -1    0    0  502    0 -0.00000000000E+00  0.00000000000E+00  0.10323425420E+03  0.10323425420E+03  0.00000000000E+00 0. -1.
         21   -1    0    0  501  502  0.00000000000E+00 -0.00000000000E+00 -0.18505371022E+03  0.18505371022E+03  0.00000000000E+00 0. -1.
         23    2    1    2    0    0  0.40540361359E+02  0.14468482715E+02 -0.74887680560E+01  0.10103537710E+03  0.91099988401E+02 0.  0.
         23    2    1    2    0    0  0.54160374479E+01  0.38564074237E+02 -0.50017289085E+02  0.11298560911E+03  0.93528056615E+02 0.  0.
        -11    1    4    4    0    0 -0.17672766880E+02 -0.26551001938E+02 -0.11624493600E+02  0.33947183161E+02  0.00000000000E+00 0. -1.
         11    1    4    4    0    0  0.23088804328E+02  0.65115076176E+02 -0.38392795485E+02  0.79038425945E+02  0.00000000000E+00 0.  1.
        -13    1    3    3    0    0  0.24340633301E+02 -0.36652191626E+02 -0.15840373788E+02  0.46762880816E+02  0.00000000000E+00 0.  1.
         13    1    3    3    0    0  0.16199728058E+02  0.51120674341E+02  0.83516057317E+01  0.54272496280E+02  0.00000000000E+00 0. -1.
          1    1    1    2  501    0 -0.45956398807E+02 -0.53032556953E+02 -0.24313398876E+02  0.74266978214E+02  0.00000000000E+00 0. -1.
<scales pt_clust_5="13000.00000" pt_clust_6="13000.00000" pt_clust_7="13000.00000" pt_clust_8="13000.00000" pt_clust_9="70.17437"></scales>
<clustering>
<clus scale="   70.174">  2  9  1 -1</clus>
<clus scale="   91.100">  7  8 -1 -1</clus>
<clus scale="   93.528">  5  6 -1 -1</clus>
<clus scale="   94.000">  1  7  2 -1</clus>
<clus scale="   70.174">  2  5  1 -1</clus>
</clustering>
</event>
<event>
 9    1  0.1464797E-005  0.1791280E+03  0.7546771E-02  0.1169103E+00
         21   -1    0    0  501  502  0.00000000000E+00  0.00000000000E+00  0.24178004145E+03  0.24178004145E+03  0.00000000000E+00 0. -1.
          2   -1    0    0  502    0 -0.00000000000E+00 -0.00000000000E+00 -0.29034969739E+03  0.29034969739E+03  0.00000000000E+00 0. -1.
         23    2    1    2    0    0  0.13905269381E+03  0.92897498773E+02 -0.14669506010E+03  0.24020465791E+03  0.90626928061E+02 0.  0.
         23    2    1    2    0    0 -0.89988263283E+02 -0.96526136289E+02 -0.20569509195E+02  0.16343785273E+03  0.94200023786E+02 0.  0.
        -11    1    4    4    0    0 -0.31273684767E+02 -0.74907419566E+02  0.26226914544E+02  0.85305427210E+02  0.00000000000E+00 0. -1.
         11    1    4    4    0    0 -0.58714578516E+02 -0.21618716722E+02 -0.46796423739E+02  0.78132425521E+02  0.00000000000E+00 0.  1.
        -11    1    3    3    0    0  0.10612970419E+03  0.97895053595E+02 -0.78574305916E+02  0.16438028221E+03  0.00000000000E+00 0. -1.
         11    1    3    3    0    0  0.32922989626E+02 -0.49975548221E+01 -0.68120754180E+02  0.75824375699E+02  0.00000000000E+00 0.  1.
          2    1    1    2  501    0 -0.49064430529E+02  0.36286375155E+01  0.11869491335E+03  0.12848722819E+03  0.00000000000E+00 0. -1.
<scales pt_clust_5="13000.00000" pt_clust_6="13000.00000" pt_clust_7="13000.00000" pt_clust_8="13000.00000" pt_clust_9="49.19843"></scales>
<clustering>
<clus scale="   49.198">  1  9  2 -1</clus>
<clus scale="   90.627">  7  8 -1 -1</clus>
<clus scale="   94.200">  5  6 -1 -1</clus>
<clus scale="  177.275">  2  7  1 -1</clus>
<clus scale="   49.198">  1  5  2 -1</clus>
</clustering>
</event>
<event>
 9    1  0.1464797E-005  0.1569716E+03  0.7546771E-02  0.1216934E+00
          2   -1    0    0  502    0 -0.00000000000E+00  0.00000000000E+00  0.21779747456E+03  0.21779747456E+03  0.00000000000E+00 0. -1.
         21   -1    0    0  501  502  0.00000000000E+00 -0.00000000000E+00 -0.23818260125E+03  0.23818260125E+03  0.00000000000E+00 0. -1.
         23    2    1    2    0    0  0.24863030661E+02 -0.56353735520E+01  0.96995519432E+02  0.13370422738E+03  0.88423763214E+02 0.  0.
         23    2    1    2    0    0 -0.89604303517E+02 -0.10189219098E+03 -0.22044948494E+02  0.16466079589E+03  0.90643522429E+02 0.  0.
        -11    1    4    4    0    0 -0.56065331967E+02 -0.11269858370E+03 -0.27930672763E+02  0.12893569986E+03  0.00000000000E+00 0. -1.
         11    1    4    4    0    0 -0.33538971549E+02  0.10806392724E+02  0.58857242693E+01  0.35725096032E+02  0.00000000000E+00 0.  1.
        -11    1    3    3    0    0  0.48952361484E+02  0.21257223226E+02  0.72703084416E+02  0.90188367974E+02  0.00000000000E+00 0.  1.
         11    1    3    3    0    0 -0.24089330823E+02 -0.26892596778E+02  0.24292435015E+02  0.43515859407E+02  0.00000000000E+00 0. -1.
          2    1    1    2  501    0  0.64741272856E+02  0.10752756453E+03 -0.95335697626E+02  0.15761505254E+03  0.00000000000E+00 0. -1.
<scales pt_clust_5="13000.00000" pt_clust_6="13000.00000" pt_clust_7="13000.00000" pt_clust_8="13000.00000" pt_clust_9="128.15547"></scales>
<clustering>
<clus scale="   88.424">  7  8 -1 -1</clus>
<clus scale="   90.644">  5  6 -1 -1</clus>
<clus scale="   92.025">  1  7  2 -1</clus>
<clus scale="  128.155">  2  9  1 -1</clus>
<clus scale="  128.155">  2  5  1 -1</clus>
</clustering>
</event>
<event>
 9    1  0.1464797E-005  0.1178246E+03  0.7546771E-02  0.1247993E+00
          1   -1    0    0  502    0 -0.00000000000E+00  0.00000000000E+00  0.13221554874E+03  0.13221554874E+03  0.00000000000E+00 0. -1.
         21   -1    0    0  501  502  0.00000000000E+00 -0.00000000000E+00 -0.26674533458E+03  0.26674533458E+03  0.00000000000E+00 0. -1.
         23    2    1    2    0    0 -0.66482010091E+02  0.23770930785E+01  0.60739104889E+02  0.13032308573E+03  0.94177277371E+02 0.  0.
         23    2    1    2    0    0  0.83092227785E+02 -0.19180278139E+02 -0.73128556096E+02  0.14423318471E+03  0.90461176579E+02 0.  0.
        -11    1    3    3    0    0 -0.20131314677E+02 -0.10276345740E+02  0.76490617046E+02  0.79760188117E+02  0.00000000000E+00 0. -1.
         11    1    3    3    0    0 -0.46350695414E+02  0.12653438818E+02 -0.15751512157E+02  0.50562897608E+02  0.00000000000E+00 0.  1.
        -13    1    4    4    0    0  0.17616741020E+02 -0.43214864705E+02 -0.53425940127E+01  0.46972517565E+02  0.00000000000E+00 0.  1.
         13    1    4    4    0    0  0.65475486765E+02  0.24034586566E+02 -0.67785962083E+02  0.97260667148E+02  0.00000000000E+00 0. -1.
          1    1    1    2  501    0 -0.16610217694E+02  0.16803185060E+02 -0.12214033464E+03  0.12440461288E+03  0.00000000000E+00 0. -1.
<scales pt_clust_5="13000.00000" pt_clust_6="13000.00000" pt_clust_7="13000.00000" pt_clust_8="13000.00000" pt_clust_9="23.62724"></scales>
<clustering>
<clus scale="   23.627">  2  9  1 -1</clus>
<clus scale="   90.461">  7  8 -1 -1</clus>
<clus scale="   94.177">  5  6 -1 -1</clus>
<clus scale="  114.876">  2  7  1 -1</clus>
<clus scale="   23.627">  2  5  1 -1</clus>
</clustering>
</event>
<event>
 9    1  0.1464797E-005  0.1233415E+03  0.7546771E-02  0.1238369E+00
          2   -1    0    0  502    0 -0.00000000000E+00  0.00000000000E+00  0.29389301706E+03  0.29389301706E+03  0.00000000000E+00 0. -1.
         21   -1    0    0  501  502  0.00000000000E+00 -0.00000000000E+00 -0.17342756692E+03  0.17342756692E+03  0.00000000000E+00 0. -1.
         23    2    1    2    0    0 -0.29521543281E+02 -0.62769424278E+02  0.11331180273E+03  0.16167695973E+03  0.92132255638E+02 0.  0.
         23    2    1    2    0    0  0.48902357637E+02  0.83690110582E+02  0.12649813656E+03  0.18293910856E+03  0.89830193675E+02 0.  0.
        -11    1    3    3    0    0  0.18403681816E+01 -0.65454719207E+02  0.11252488240E+03  0.13019046195E+03  0.00000000000E+00 0. -1.
         11    1    3    3    0    0 -0.31361911462E+02  0.26852949294E+01  0.78692032716E+00  0.31486497789E+02  0.00000000000E+00 0.  1.
        -13    1    4    4    0    0  0.15450842494E+02  0.60099187555E+02  0.12771026380E+03  0.14198785990E+03  0.00000000000E+00 0.  1.
         13    1    4    4    0    0  0.33451515142E+02  0.23590923027E+02 -0.12121272388E+01  0.40951248662E+02  0.00000000000E+00 0. -1.
          2    1    1    2  501    0 -0.19380814356E+02 -0.20920686304E+02 -0.11934448915E+03  0.12270451569E+03  0.00000000000E+00 0. -1.
<scales pt_clust_5="13000.00000" pt_clust_6="13000.00000" pt_clust_7="13000.00000" pt_clust_8="13000.00000" pt_clust_9="28.51826"></scales>
<clustering>
<clus scale="   28.518">  2  9  1 -1</clus>
<clus scale="   89.830">  7  8 -1 -1</clus>
<clus scale="   92.132">  5  6 -1 -1</clus>
<clus scale="  121.632">  2  7  1 -1</clus>
<clus scale="   28.518">  2  5  1 -1</clus>
</clustering>
</event>
<event>
 9    1  0.1464797E-005  0.1179181E+03  0.7546771E-02  0.1246604E+00
         21   -1    0    0  501  502  0.00000000000E+00  0.00000000000E+00  0.50932000944E+03  0.50932000944E+03  0.00000000000E+00 0.  1.
         -1   -1    0    0    0  501 -0.00000000000E+00 -0.00000000000E+00 -0.15255626584E+03  0.15255626584E+03  0.00000000000E+00 0.  1.
         23    2    1    2    0    0  0.79759377064E+02 -0.85931076821E+02 -0.60750011890E+02  0.15991779791E+03  0.90207704503E+02 0.  0.
         23    2    1    2    0    0 -0.99678517657E+01  0.25118301246E+02  0.23409561031E+02  0.97128677609E+02  0.90308833123E+02 0.  0.
        -11    1    4    4    0    0  0.22403648923E+02  0.39682606411E+02 -0.11860846557E+02  0.47088346942E+02  0.00000000000E+00 0.  1.
         11    1    4    4    0    0 -0.32371500689E+02 -0.14564305165E+02  0.35270407588E+02  0.50040330667E+02  0.00000000000E+00 0. -1.
        -13    1    3    3    0    0  0.49632875496E+02 -0.10020194597E+03 -0.33126223438E+02  0.11662417839E+03  0.00000000000E+00 0. -1.
         13    1    3    3    0    0  0.30126501569E+02  0.14270869148E+02 -0.27623788452E+02  0.43293619523E+02  0.00000000000E+00 0.  1.
         -1    1    1    2    0  502 -0.69791525299E+02  0.60812775575E+02  0.39410419446E+03  0.40482979975E+03  0.00000000000E+00 0.  1.
<scales pt_clust_5="13000.00000" pt_clust_6="13000.00000" pt_clust_7="13000.00000" pt_clust_8="13000.00000" pt_clust_9="92.56917"></scales>
<clustering>
<clus scale="   90.208">  7  8 -1 -1</clus>
<clus scale="   90.309">  5  6 -1 -1</clus>
<clus scale="   92.569">  1  9  2 -1</clus>
<clus scale="  117.841">  2  7  1 -1</clus>
<clus scale="   92.569">  1  5  2 -1</clus>
</clustering>
</event>
<event>
 9    1  0.1464797E-005  0.1891231E+03  0.7546771E-02  0.1159397E+00
         21   -1    0    0  501  502  0.00000000000E+00  0.00000000000E+00  0.91446823470E+02  0.91446823470E+02  0.00000000000E+00 0.  1.
          2   -1    0    0  502    0 -0.00000000000E+00 -0.00000000000E+00 -0.59006469385E+03  0.59006469385E+03  0.00000000000E+00 0. -1.
         23    2    1    2    0    0 -0.10358709507E+03 -0.12410379678E+03 -0.37552007472E+03  0.41884168040E+03  0.90999934499E+02 0.  0.
         23    2    1    2    0    0  0.13402900146E+03  0.11397036130E+03 -0.11509735009E+03  0.22960318744E+03  0.92288716527E+02 0.  0.
        -13    1    4    4    0    0  0.11577486275E+03  0.62643998128E+02 -0.11550322352E+03  0.17512590897E+03  0.00000000000E+00 0. -1.
         13    1    4    4    0    0  0.18254138704E+02  0.51326363176E+02  0.40587343591E+00  0.54477278474E+02  0.00000000000E+00 0.  1.
        -13    1    3    3    0    0  0.14972453001E+02 -0.25318357065E+02 -0.83897097063E+02  0.88903973190E+02  0.00000000000E+00 0.  1.
         13    1    3    3    0    0 -0.11855954808E+03 -0.98785439717E+02 -0.29162297766E+03  0.32993770721E+03  0.00000000000E+00 0. -1.
          2    1    1    2  501    0 -0.30441906382E+02  0.10133435478E+02 -0.80004455737E+01  0.33066649484E+02  0.00000000000E+00 0. -1.
<scales pt_clust_5="13000.00000" pt_clust_6="13000.00000" pt_clust_7="13000.00000" pt_clust_8="13000.00000" pt_clust_9="32.08420"></scales>
<clustering>
<clus scale="   32.084">  1  9  2 -1</clus>
<clus scale="   91.000">  7  8 -1 -1</clus>
<clus scale="   92.289">  5  6 -1 -1</clus>
<clus scale="  188.498">  2  7  1 -1</clus>
<clus scale="   32.084">  1  5  2 -1</clus>
</clustering>
</event>
<event>
 9    1  0.1464797E-005  0.9985775E+02  0.7546771E-02  0.1280920E+00
         21   -1    0    0  501  502  0.00000000000E+00  0.00000000000E+00  0.19849508942E+03  0.19849508942E+03  0.00000000000E+00 0. -1.
          2   -1    0    0  502    0 -0.00000000000E+00 -0.00000000000E+00 -0.31508074635E+03  0.31508074635E+03  0.00000000000E+00 0. -1.
         23    2    1    2    0    0  0.57912933424E+01 -0.31671966644E+02 -0.23666345560E+03  0.25612764546E+03  0.92493929542E+02 0.  0.
         23    2    1    2    0    0  0.40404986983E+02  0.96885777422E+02  0.10696613328E+03  0.17646144324E+03  0.93152941121E+02 0.  0.
        -13    1    4    4    0    0  0.32592123494E+02 -0.67205345618E+01  0.11070457620E+02  0.35070887223E+02  0.00000000000E+00 0.  1.
         13    1    4    4    0    0  0.78128634884E+01  0.10360631198E+03  0.95895675663E+02  0.14139055601E+03  0.00000000000E+00 0. -1.
        -13    1    3    3    0    0  0.87685163525E+01 -0.63726377887E+02 -0.13608086777E+03  0.15051890476E+03  0.00000000000E+00 0. -1.
         13    1    3    3    0    0 -0.29772230101E+01  0.32054411243E+02 -0.10058258783E+03  0.10560874070E+03  0.00000000000E+00 0.  1.
          2    1    1    2  501    0 -0.46196280325E+02 -0.65213810778E+02  0.13111665382E+02  0.80986747071E+02  0.00000000000E+00 0. -1.
<scales pt_clust_5="13000.00000" pt_clust_6="13000.00000" pt_clust_7="13000.00000" pt_clust_8="13000.00000" pt_clust_9="79.91832"></scales>
<clustering>
<clus scale="   79.918">  1  9  2 -1</clus>
<clus scale="   92.494">  7  8 -1 -1</clus>
<clus scale="   93.153">  5  6 -1 -1</clus>
<clus scale="   99.243">  2  7  1 -1</clus>
<clus scale="   79.918">  1  5  2 -1</clus>
</clustering>
</event>
<event>
 9    1  0.1464797E-005  0.1512825E+03  0.7546771E-02  0.1205608E+00
         21   -1    0    0  501  502  0.00000000000E+00  0.00000000000E+00  0.67701887092E+02  0.67701887092E+02  0.00000000000E+00 0. -1.
         -1   -1    0    0    0  501 -0.00000000000E+00 -0.00000000000E+00 -0.52131866268E+03  0.52131866268E+03  0.00000000000E+00 0.  1.
         23    2    1    2    0    0  0.30467331303E+01 -0.92118202330E+02 -0.32973191443E+03  0.35434656311E+03  0.91341697006E+02 0.  0.
         23    2    1    2    0    0 -0.26852331134E+02  0.98942664510E+02 -0.63226177891E+02  0.16915486246E+03  0.11876497537E+03 0.  0.
        -13    1    4    4    0    0 -0.52998994534E+02  0.33201969463E+01 -0.42170827747E+02  0.67810735449E+02  0.00000000000E+00 0.  1.
         13    1    4    4    0    0  0.26146663399E+02  0.95622467564E+02 -0.21055350144E+02  0.10134412701E+03  0.00000000000E+00 0. -1.
        -13    1    3    3    0    0  0.21937684245E+02 -0.22430329631E+02 -0.22155286192E+02  0.38408832105E+02  0.00000000000E+00 0. -1.
         13    1    3    3    0    0 -0.18890951115E+02 -0.69687872699E+02 -0.30757662824E+03  0.31593773100E+03  0.00000000000E+00 0.  1.
         -1    1    1    2    0  502  0.23805598004E+02 -0.68244621800E+01 -0.60658683273E+02  0.65519124206E+02  0.00000000000E+00 0.  1.
<scales pt_clust_5="13000.00000" pt_clust_6="13000.00000" pt_clust_7="13000.00000" pt_clust_8="13000.00000" pt_clust_9="24.76450"></scales>
<clustering>
<clus scale="   24.764">  1  9  2 -1</clus>
<clus scale="   91.342">  7  8 -1 -1</clus>
<clus scale="  118.765">  5  6 -1 -1</clus>
<clus scale="  130.861">  2  7  1 -1</clus>
<clus scale="   24.764">  1  5  2 -1</clus>
</clustering>
</event>
<event>
 9    1  0.1464797E-005  0.2192455E+03  0.7546771E-02  0.1134830E+00
         21   -1    0    0  501  502  0.00000000000E+00  0.00000000000E+00  0.36164854360E+02  0.36164854360E+02  0.00000000000E+00 0. -1.
          2   -1    0    0  502    0 -0.00000000000E+00 -0.00000000000E+00 -0.21641006109E+04  0.21641006109E+04  0.00000000000E+00 0. -1.
         23    2    1    2    0    0  0.31612123646E+02 -0.14435671386E+03 -0.48169263816E+03  0.51148247629E+03  0.88024648222E+02 0.  0.
         23    2    1    2    0    0 -0.76274977314E+02  0.24109745345E+03 -0.11322129052E+04  0.11638252752E+04  0.92937367367E+02 0.  0.
        -13    1    3    3    0    0  0.12415313942E+02 -0.82996169333E+02 -0.39346036663E+03  0.40231028356E+03  0.00000000000E+00 0.  1.
         13    1    3    3    0    0  0.19196809703E+02 -0.61360544523E+02 -0.88232271530E+02  0.10917219273E+03  0.00000000000E+00 0. -1.
        -13    1    4    4    0    0 -0.21113893829E+02  0.30408326486E+02 -0.66725593476E+02  0.76307061645E+02  0.00000000000E+00 0.  1.
         13    1    4    4    0    0 -0.55161083485E+02  0.21068912696E+03 -0.10654873118E+04  0.10875182136E+04  0.00000000000E+00 0. -1.
          2    1    1    2  501    0  0.44662853668E+02 -0.96740739595E+02 -0.51403021309E+03  0.52495771369E+03  0.00000000000E+00 0. -1.
<scales pt_clust_5="13000.00000" pt_clust_6="13000.00000" pt_clust_7="13000.00000" pt_clust_8="13000.00000" pt_clust_9="106.55305"></scales>
<clustering>
<clus scale="   88.025">  5  6 -1 -1</clus>
<clus scale="   92.937">  7  8 -1 -1</clus>
<clus scale="  106.553">  1  9  2 -1</clus>
<clus scale="  217.209">  2  5  1 -1</clus>
<clus scale="  106.553">  1  5  2 -1</clus>
</clustering>
</event>
<event>
 9    1  0.1464797E-005  0.9870421E+02  0.7546771E-02  0.1283167E+00
         21   -1    0    0  501  502  0.00000000000E+00  0.00000000000E+00  0.51468274103E+03  0.51468274103E+03  0.00000000000E+00 0. -1.
         -2   -1    0    0    0  501 -0.00000000000E+00 -0.00000000000E+00 -0.51329233308E+03  0.51329233308E+03  0.00000000000E+00 0.  1.
         23    2    1    2    0    0  0.28905616149E+02 -0.15543612212E+02 -0.48921614691E+03  0.49908092887E+03  0.93124629564E+02 0.  0.
         23    2    1    2    0    0 -0.26682493300E+02 -0.53166413679E+02  0.18451851740E+03  0.21518106516E+03  0.93365863938E+02 0.  0.
        -11    1    3    3    0    0  0.18595421659E+02 -0.54341258656E+02 -0.24939596089E+03  0.25592402664E+03  0.00000000000E+00 0.  1.
         11    1    3    3    0    0  0.10310194490E+02  0.38797646444E+02 -0.23982018602E+03  0.24315690223E+03  0.00000000000E+00 0. -1.
        -13    1    4    4    0    0 -0.26160124644E+02  0.10986577978E+02  0.11436599991E+02  0.30591711890E+02  0.00000000000E+00 0.  1.
         13    1    4    4    0    0 -0.52236865619E+00 -0.64152991657E+02  0.17308191741E+03  0.18458935327E+03  0.00000000000E+00 0. -1.
         -2    1    1    2    0  502 -0.22231228491E+01  0.68710025891E+02  0.30608803746E+03  0.31371308008E+03  0.00000000000E+00 0.  1.
<scales pt_clust_5="13000.00000" pt_clust_6="13000.00000" pt_clust_7="13000.00000" pt_clust_8="13000.00000" pt_clust_9="68.74598"></scales>
<clustering>
<clus scale="   68.746">  1  9  2 -1</clus>
<clus scale="   93.125">  5  6 -1 -1</clus>
<clus scale="   93.366">  7  8 -1 -1</clus>
<clus scale="   98.476">  2  5  1 -1</clus>
<clus scale="   68.746">  1  5  2 -1</clus>
</clustering>
</event>
<event>
 9    1  0.1464797E-005  0.1020593E+03  0.7546771E-02  0.1276247E+00
         -3   -1    0    0    0  501 -0.00000000000E+00  0.00000000000E+00  0.19666467563E+03  0.19666467563E+03  0.00000000000E+00 0.  1.
         21   -1    0    0  501  502  0.00000000000E+00 -0.00000000000E+00 -0.78608907785E+02  0.78608907785E+02  0.00000000000E+00 0.  1.
         23    2    1    2    0    0 -0.17299258505E+02 -0.24523842553E+02  0.45877323708E+02  0.10598250206E+03  0.90702142829E+02 0.  0.
         23    2    1    2    0    0  0.52928805761E+02  0.38120042624E+02  0.69113538323E+02  0.13103255366E+03  0.90212265296E+02 0.  0.
        -11    1    4    4    0    0  0.48747202879E+02  0.63054650058E+02  0.69499684195E+02  0.10574679563E+03  0.00000000000E+00 0.  1.
         11    1    4    4    0    0  0.41816028820E+01 -0.24934607434E+02 -0.38614587176E+00  0.25285758031E+02  0.00000000000E+00 0. -1.
        -11    1    3    3    0    0  0.33573665080E+02 -0.27884866163E+02  0.13914446992E+02  0.45807953272E+02  0.00000000000E+00 0.  1.
         11    1    3    3    0    0 -0.50872923585E+02  0.33610236098E+01  0.31962876716E+02  0.60174548787E+02  0.00000000000E+00 0. -1.
         -3    1    1    2    0  502 -0.35629547256E+02 -0.13596200070E+02  0.30649058159E+01  0.38258527699E+02  0.00000000000E+00 0.  1.
<scales pt_clust_5="13000.00000" pt_clust_6="13000.00000" pt_clust_7="13000.00000" pt_clust_8="13000.00000" pt_clust_9="38.13556"></scales>
<clustering>
<clus scale="   38.136">  2  9  1 -1</clus>
<clus scale="   90.212">  5  6 -1 -1</clus>
<clus scale="   90.702">  7  8 -1 -1</clus>
<clus scale="  101.624">  2  5  1 -1</clus>
<clus scale="   38.136">  2  5  1 -1</clus>
</clustering>
</event>
<event>
 9    1  0.1464797E-005  0.1232550E+03  0.7546771E-02  0.1238882E+00
          1   -1    0    0  502    0 -0.00000000000E+00  0.00000000000E+00  0.47652064533E+03  0.47652064533E+03  0.00000000000E+00 0. -1.
         21   -1    0    0  501  502  0.00000000000E+00 -0.00000000000E+00 -0.51382167330E+02  0.51382167330E+02  0.00000000000E+00 0.  1.
         23    2    1    2    0    0  0.67410892942E+02 -0.11876290792E+00  0.24239477343E+03  0.26961675512E+03  0.96921235375E+02 0.  0.
         23    2    1    2    0    0 -0.88299345617E+02  0.13677107797E+02  0.19217205494E+03  0.23165806546E+03  0.93549574455E+02 0.  0.
        -11    1    3    3    0    0 -0.24043217811E+02 -0.79222275590E+01  0.67676370464E+02  0.72255997200E+02  0.00000000000E+00 0. -1.
         11    1    3    3    0    0  0.91454110753E+02  0.78034646511E+01  0.17471840296E+03  0.19736075792E+03  0.00000000000E+00 0.  1.
        -11    1    4    4    0    0 -0.93431844151E+02  0.40086814257E+02  0.14082662318E+03  0.17369110506E+03  0.00000000000E+00 0.  1.
         11    1    4    4    0    0  0.51324985343E+01 -0.26409706461E+02  0.51345431758E+02  0.57966960408E+02  0.00000000000E+00 0. -1.
          1    1    1    2  501    0  0.20888452674E+02 -0.13558344889E+02 -0.94283503656E+01  0.26627992073E+02  0.00000000000E+00 0. -1.
<scales pt_clust_5="13000.00000" pt_clust_6="13000.00000" pt_clust_7="13000.00000" pt_clust_8="13000.00000" pt_clust_9="24.90293"></scales>
<clustering>
<clus scale="   24.903">  2  9  1 -1</clus>
<clus scale="   93.550">  7  8 -1 -1</clus>
<clus scale="   96.921">  5  6 -1 -1</clus>
<clus scale="  120.622">  2  7  1 -1</clus>
<clus scale="   24.903">  2  5  1 -1</clus>
</clustering>
</event>
<event>
 9    1  0.1464797E-005  0.9370380E+02  0.7546771E-02  0.1295224E+00
         -1   -1    0    0    0  501 -0.00000000000E+00  0.00000000000E+00  0.49611771902E+03  0.49611771902E+03  0.00000000000E+00 0.  1.
         21   -1    0    0  501  502  0.00000000000E+00 -0.00000000000E+00 -0.16737494809E+03  0.16737494809E+03  0.00000000000E+00 0.  1.
         23    2    1    2    0    0 -0.12187546001E+02  0.21700925328E+02  0.24993101535E+03  0.26715439456E+03  0.91030168975E+02 0.  0.
         23    2    1    2    0    0  0.34476449724E+02  0.25958004607E+02  0.22239142207E+03  0.24342231701E+03  0.89073207064E+02 0.  0.
        -11    1    4    4    0    0  0.11210876841E+02  0.42433182106E+02  0.20582035632E+03  0.21044780298E+03  0.00000000000E+00 0.  1.
         11    1    4    4    0    0  0.23265572883E+02 -0.16475177498E+02  0.16571065754E+02  0.32974514028E+02  0.00000000000E+00 0. -1.
        -13    1    3    3    0    0  0.42536293584E+01  0.55513259373E+02  0.12868793341E+03  0.14021554669E+03  0.00000000000E+00 0.  1.
         13    1    3    3    0    0 -0.16441175359E+02 -0.33812334045E+02  0.12124308193E+03  0.12693884787E+03  0.00000000000E+00 0. -1.
         -1    1    1    2    0  502 -0.22288903723E+02 -0.47658929935E+02 -0.14357966649E+03  0.15291595555E+03  0.00000000000E+00 0.  1.
<scales pt_clust_5="13000.00000" pt_clust_6="13000.00000" pt_clust_7="13000.00000" pt_clust_8="13000.00000" pt_clust_9="52.61339"></scales>
<clustering>
<clus scale="   52.613">  2  9  1 -1</clus>
<clus scale="   89.073">  5  6 -1 -1</clus>
<clus scale="   91.030">  7  8 -1 -1</clus>
<clus scale="   91.804">  2  5  1 -1</clus>
<clus scale="   52.613">  2  5  1 -1</clus>
</clustering>
</event>
<event>
 9    1  0.1464797E-005  0.1037724E+03  0.7546771E-02  0.1273806E+00
         21   -1    0    0  501  502  0.00000000000E+00  0.00000000000E+00  0.34325514459E+03  0.34325514459E+03  0.00000000000E+00 0. -1.
         -1   -1    0    0    0  501 -0.00000000000E+00 -0.00000000000E+00 -0.13822506608E+03  0.13822506608E+03  0.00000000000E+00 0.  1.
         23    2    1    2    0    0  0.17297040185E+02  0.46338580395E+02 -0.93493396259E+02  0.14079359196E+03  0.92926684876E+02 0.  0.
         23    2    1    2    0    0 -0.31976566165E+02 -0.18641247630E+02  0.99778583944E+02  0.13948482361E+03  0.90167917275E+02 0.  0.
        -11    1    4    4    0    0  0.15491615801E+02 -0.41226399889E+02  0.36349629295E+02  0.57104305949E+02  0.00000000000E+00 0.  1.
         11    1    4    4    0    0 -0.47468181965E+02  0.22585152260E+02  0.63428954649E+02  0.82380517658E+02  0.00000000000E+00 0. -1.
        -11    1    3    3    0    0 -0.26779229306E+02 -0.59746376820E+01 -0.33617751724E+01  0.27642810095E+02  0.00000000000E+00 0. -1.
         11    1    3    3    0    0  0.44076269491E+02  0.52313218077E+02 -0.90131621086E+02  0.11315078187E+03  0.00000000000E+00 0.  1.
         -1    1    1    2    0  502  0.14679525979E+02 -0.27697332766E+02  0.19874489082E+03  0.20120179510E+03  0.00000000000E+00 0.  1.
<scales pt_clust_5="13000.00000" pt_clust_6="13000.00000" pt_clust_7="13000.00000" pt_clust_8="13000.00000" pt_clust_9="31.34694"></scales>
<clustering>
<clus scale="   31.347">  1  9  2 -1</clus>
<clus scale="   90.168">  5  6 -1 -1</clus>
<clus scale="   92.927">  7  8 -1 -1</clus>
<clus scale="  101.309">  1  5  2 -1</clus>
<clus scale="   31.347">  1  5  2 -1</clus>
</clustering>
</event>
<event>
 9    1  0.1464797E-005  0.1566073E+03  0.7546771E-02  0.1212220E+00
         21   -1    0    0  501  502  0.00000000000E+00  0.00000000000E+00  0.50681099197E+02  0.50681099197E+02  0.00000000000E+00 0. -1.
          1   -1    0    0  502    0 -0.00000000000E+00 -0.00000000000E+00 -0.79083092155E+03  0.79083092155E+03  0.00000000000E+00 0. -1.
         23    2    1    2    0    0  0.35480123664E+02  0.27215317492E+02 -0.21753234462E+03  0.24043008145E+03  0.92123777744E+02 0.  0.
         23    2    1    2    0    0  0.42065872283E+02 -0.12689151187E+03 -0.36309951316E+03  0.39762504895E+03  0.91615662944E+02 0.  0.
        -11    1    3    3    0    0  0.73362441064E+01 -0.31869385396E+02 -0.42942716248E+02  0.53977357122E+02  0.00000000000E+00 0.  1.
         11    1    3    3    0    0  0.28143879557E+02  0.59084702889E+02 -0.17458962837E+03  0.18645272432E+03  0.00000000000E+00 0. -1.
        -13    1    4    4    0    0  0.45387437248E+02 -0.18946949753E+02 -0.72513262026E+02  0.87619515717E+02  0.00000000000E+00 0.  1.
         13    1    4    4    0    0 -0.33215649645E+01 -0.10794456211E+03 -0.29058625114E+03  0.31000553323E+03  0.00000000000E+00 0. -1.
          1    1    1    2  501    0 -0.77545995947E+02  0.99676194374E+02 -0.15951796457E+03  0.20345689036E+03  0.00000000000E+00 0. -1.
<scales pt_clust_5="13000.00000" pt_clust_6="13000.00000" pt_clust_7="13000.00000" pt_clust_8="13000.00000" pt_clust_9="127.01340"></scales>
<clustering>
<clus scale="   91.616">  7  8 -1 -1</clus>
<clus scale="   92.124">  5  6 -1 -1</clus>
<clus scale="  102.403">  2  5  1 -1</clus>
<clus scale="  127.013">  1  9  2 -1</clus>
<clus scale="  127.013">  1  5  2 -1</clus>
</clustering>
</event>
<event>
 9    1  0.1464797E-005  0.1070130E+03  0.7546771E-02  0.1266830E+00
         21   -1    0    0  501  502  0.00000000000E+00  0.00000000000E+00  0.34406737504E+03  0.34406737504E+03  0.00000000000E+00 0. -1.
          1   -1    0    0  502    0 -0.00000000000E+00 -0.00000000000E+00 -0.72561004102E+02  0.72561004102E+02  0.00000000000E+00 0. -1.
         23    2    1    2    0    0 -0.53162349086E+02  0.22031770176E+01 -0.41720860429E+01  0.10639055102E+03  0.92035067751E+02 0.  0.
         23    2    1    2    0    0  0.57714688008E+02 -0.27307534144E+02  0.18123123160E+03  0.21240516016E+03  0.90523511450E+02 0.  0.
        -11    1    3    3    0    0 -0.56608263510E+02  0.22993986939E+02  0.28572158257E+02  0.67450627576E+02  0.00000000000E+00 0. -1.
         11    1    3    3    0    0  0.34459144237E+01 -0.20790809921E+02 -0.32744244299E+02  0.38939923448E+02  0.00000000000E+00 0.  1.
        -11    1    4    4    0    0  0.77096888442E+02 -0.20783549415E+02  0.17266217519E+03  0.19023173467E+03  0.00000000000E+00 0.  1.
         11    1    4    4    0    0 -0.19382200435E+02 -0.65239847292E+01  0.85690564052E+01  0.22173425493E+02  0.00000000000E+00 0. -1.
          1    1    1    2  501    0 -0.45523389218E+01  0.25104357127E+02  0.94447225388E+02  0.97832667958E+02  0.00000000000E+00 0. -1.
<scales pt_clust_5="13000.00000" pt_clust_6="13000.00000" pt_clust_7="13000.00000" pt_clust_8="13000.00000" pt_clust_9="25.51377"></scales>
<clustering>
<clus scale="   25.514">  1  9  2 -1</clus>
<clus scale="   90.524">  7  8 -1 -1</clus>
<clus scale="   92.035">  5  6 -1 -1</clus>
<clus scale="  105.716">  1  7  2 -1</clus>
<clus scale="   25.514">  1  5  2 -1</clus>
</clustering>
</event>
<event>
 9    1  0.1464797E-005  0.1845970E+03  0.7546771E-02  0.1167237E+00
          2   -1    0    0  502    0 -0.00000000000E+00  0.00000000000E+00  0.66083271200E+03  0.66083271200E+03  0.00000000000E+00 0. -1.
         21   -1    0    0  501  502  0.00000000000E+00 -0.00000000000E+00 -0.11360128315E+03  0.11360128315E+03  0.00000000000E+00 0.  1.
         23    2    1    2    0    0 -0.60157131599E+02  0.94747069991E+02  0.23198444501E+03  0.28705525059E+03  0.12644384686E+03 0.  0.
         23    2    1    2    0    0  0.15781820351E+03  0.51057007818E+02  0.11594997869E+03  0.22183061270E+03  0.90835124075E+02 0.  0.
        -11    1    4    4    0    0  0.31954848819E+02 -0.89284666410E+01 -0.92467213519E+01  0.34443166744E+02  0.00000000000E+00 0. -1.
         11    1    4    4    0    0  0.12586335469E+03  0.59985474459E+02  0.12519670004E+03  0.18738744596E+03  0.00000000000E+00 0.  1.
        -11    1    3    3    0    0  0.18669964805E+02  0.65455725916E+02  0.43813252047E+02  0.80948259376E+02  0.00000000000E+00 0. -1.
         11    1    3    3    0    0 -0.78827096404E+02  0.29291344075E+02  0.18817119297E+03  0.20610699122E+03  0.00000000000E+00 0.  1.
          2    1    1    2  501    0 -0.97661071913E+02 -0.14580407781E+03  0.19929700515E+03  0.26554813186E+03  0.00000000000E+00 0. -1.
<scales pt_clust_5="13000.00000" pt_clust_6="13000.00000" pt_clust_7="13000.00000" pt_clust_8="13000.00000" pt_clust_9="160.70176"></scales>
<clustering>
<clus scale="   90.835">  5  6 -1 -1</clus>
<clus scale="  126.444">  7  8 -1 -1</clus>
<clus scale="  169.068">  1  7  2 -1</clus>
<clus scale="  160.702">  2  9  1 -1</clus>
<clus scale="  160.702">  2  5  1 -1</clus>
</clustering>
</event>
<event>
 9    1  0.1464797E-005  0.1020370E+03  0.7546771E-02  0.1276718E+00
          1   -1    0    0  502    0 -0.00000000000E+00  0.00000000000E+00  0.26293810737E+03  0.26293810737E+03  0.00000000000E+00 0. -1.
         21   -1    0    0  501  502  0.00000000000E+00 -0.00000000000E+00 -0.16129339187E+03  0.16129339187E+03  0.00000000000E+00 0. -1.
         23    2    1    2    0    0  0.35849426929E+02  0.14146320455E+02  0.14751595796E+03  0.17791434415E+03  0.91691091208E+02 0.  0.
         23    2    1    2    0    0 -0.46148559736E+02 -0.34890704326E+02  0.70062497682E+02  0.12809264959E+03  0.90287997443E+02 0.  0.
        -13    1    3    3    0    0 -0.29876056219E+02 -0.52590854053E+01  0.54578322910E+02  0.62442213655E+02  0.00000000000E+00 0. -1.
         13    1    3    3    0    0  0.65725483148E+02  0.19405405860E+02  0.92937635050E+02  0.11547213049E+03  0.00000000000E+00 0.  1.
        -13    1    4    4    0    0 -0.18260849643E+02 -0.21217996859E+02 -0.18958128399E+02  0.33809357473E+02  0.00000000000E+00 0.  1.
         13    1    4    4    0    0 -0.27887710093E+02 -0.13672707467E+02  0.89020626081E+02  0.94283292112E+02  0.00000000000E+00 0. -1.
          1    1    1    2  501    0  0.10299132807E+02  0.20744383871E+02 -0.11593374014E+03  0.11822450551E+03  0.00000000000E+00 0. -1.
<scales pt_clust_5="13000.00000" pt_clust_6="13000.00000" pt_clust_7="13000.00000" pt_clust_8="13000.00000" pt_clust_9="23.16035"></scales>
<clustering>
<clus scale="   23.160">  2  9  1 -1</clus>
<clus scale="   90.288">  7  8 -1 -1</clus>
<clus scale="   91.691">  5  6 -1 -1</clus>
<clus scale="  100.778">  2  7  1 -1</clus>
<clus scale="   23.160">  2  5  1 -1</clus>
</clustering>
</event>
<event>
 9    1  0.1464797E-005  0.1030481E+03  0.7546771E-02  0.1274348E+00
         21   -1    0    0  501  502  0.00000000000E+00  0.00000000000E+00  0.13665803199E+03  0.13665803199E+03  0.00000000000E+00 0.  1.
         -3   -1    0    0    0  501 -0.00000000000E+00 -0.00000000000E+00 -0.17577861501E+03  0.17577861501E+03  0.00000000000E+00 0.  1.
         23    2    1    2    0    0 -0.12544301170E+02  0.63970730173E+02 -0.96964617410E+02  0.14806617540E+03  0.90949664411E+02 0.  0.
         23    2    1    2    0    0 -0.15867491047E+02 -0.94915484504E+01  0.29355902172E+02  0.96644665181E+02  0.90202857779E+02 0.  0.
        -11    1    3    3    0    0  0.13168991349E+02  0.66628875006E+02 -0.10119303474E+03  0.12187230857E+03  0.00000000000E+00 0.  1.
         11    1    3    3    0    0 -0.25713292519E+02 -0.26581448327E+01  0.42284173258E+01  0.26193866824E+02  0.00000000000E+00 0. -1.
        -13    1    4    4    0    0  0.25397052077E+02  0.47796137063E+01 -0.18561455051E+02  0.31817959944E+02  0.00000000000E+00 0. -1.
         13    1    4    4    0    0 -0.41264543124E+02 -0.14271162157E+02  0.47917357223E+02  0.64826705236E+02  0.00000000000E+00 0.  1.
         -3    1    1    2    0  502  0.28411792217E+02 -0.54479181723E+02  0.28488132220E+02  0.67725806422E+02  0.00000000000E+00 0.  1.
<scales pt_clust_5="13000.00000" pt_clust_6="13000.00000" pt_clust_7="13000.00000" pt_clust_8="13000.00000" pt_clust_9="61.44275"></scales>
<clustering>
<clus scale="   61.443">  1  9  2 -1</clus>
<clus scale="   90.203">  7  8 -1 -1</clus>
<clus scale="   90.950">  5  6 -1 -1</clus>
<clus scale="  102.390">  1  7  2 -1</clus>
<clus scale="   61.443">  1  5  2 -1</clus>
</clustering>
</event>
<event>
 9    1  0.1464797E-005  0.1671720E+03  0.7546771E-02  0.1181167E+00
         21   -1    0    0  501  502  0.00000000000E+00  0.00000000000E+00  0.58617400054E+02  0.58617400054E+02  0.00000000000E+00 0. -1.
          2   -1    0    0  502    0 -0.00000000000E+00 -0.00000000000E+00 -0.69605317346E+03  0.69605317346E+03  0.00000000000E+00 0. -1.
         23    2    1    2    0    0 -0.13739008888E+03 -0.51422981464E+02 -0.46102614224E+03  0.49256801181E+03  0.92508285530E+02 0.  0.
         23    2    1    2    0    0  0.11112040796E+03  0.59778453566E+02 -0.17591375918E+03  0.23453163610E+03  0.90212133800E+02 0.  0.
        -13    1    3    3    0    0 -0.14637158090E+03 -0.29236731714E+02 -0.40567600454E+03  0.43226432519E+03  0.00000000000E+00 0. -1.
         13    1    3    3    0    0  0.89814920200E+01 -0.22186249750E+02 -0.55350137699E+02  0.60303686622E+02  0.00000000000E+00 0.  1.
        -13    1    4    4    0    0  0.92514125732E+02  0.31008545802E+02 -0.62065638393E+02  0.11563968541E+03  0.00000000000E+00 0.  1.
         13    1    4    4    0    0  0.18606282232E+02  0.28769907764E+02 -0.11384812079E+03  0.11889195069E+03  0.00000000000E+00 0. -1.
          2    1    1    2  501    0  0.26269680915E+02 -0.83554721027E+01 -0.49587198493E+00  0.27570925600E+02  0.00000000000E+00 0. -1.
<scales pt_clust_5="13000.00000" pt_clust_6="13000.00000" pt_clust_7="13000.00000" pt_clust_8="13000.00000" pt_clust_9="27.56647"></scales>
<clustering>
<clus scale="   27.566">  1  9  2 -1</clus>
<clus scale="   90.212">  7  8 -1 -1</clus>
<clus scale="   92.508">  5  6 -1 -1</clus>
<clus scale="  165.912">  1  7  2 -1</clus>
<clus scale="   27.566">  1  5  2 -1</clus>
</clustering>
</event>
<event>
 9    1  0.1464797E-005  0.2468858E+03  0.7546771E-02  0.1116606E+00
         -2   -1    0    0    0  501 -0.00000000000E+00  0.00000000000E+00  0.23524929933E+03  0.23524929933E+03  0.00000000000E+00 0.  1.
         21   -1    0    0  501  502  0.00000000000E+00 -0.00000000000E+00 -0.62585326466E+03  0.62585326466E+03  0.00000000000E+00 0.  1.
         23    2    1    2    0    0 -0.20575881699E+03 -0.79240835409E+02 -0.16626780370E+03  0.29100400718E+03  0.91774445690E+02 0.  0.
         23    2    1    2    0    0 -0.81407280595E+01  0.23771877750E+03 -0.83986666135E+02  0.26915627931E+03  0.93887453767E+02 0.  0.
        -11    1    4    4    0    0  0.35513333499E+02  0.16918395869E+03 -0.70930684979E+02  0.18685708659E+03  0.00000000000E+00 0. -1.
         11    1    4    4    0    0 -0.43654061559E+02  0.68534818803E+02 -0.13055981156E+02  0.82299192724E+02  0.00000000000E+00 0.  1.
        -11    1    3    3    0    0 -0.23725198819E+00 -0.21481647511E+02 -0.18844080238E+01  0.21565446017E+02  0.00000000000E+00 0. -1.
         11    1    3    3    0    0 -0.20552156500E+03 -0.57759187898E+02 -0.16438339568E+03  0.26943856116E+03  0.00000000000E+00 0.  1.
         -2    1    1    2    0  502  0.21389954505E+03 -0.15847794209E+03 -0.14034949549E+03  0.30094227750E+03  0.00000000000E+00 0.  1.
<scales pt_clust_5="13000.00000" pt_clust_6="13000.00000" pt_clust_7="13000.00000" pt_clust_8="13000.00000" pt_clust_9="228.33696"></scales>
<clustering>
<clus scale="   91.774">  7  8 -1 -1</clus>
<clus scale="   93.887">  5  6 -1 -1</clus>
<clus scale="  238.827">  1  7  2 -1</clus>
<clus scale="  228.337">  2  9  1 -1</clus>
<clus scale="  228.337">  2  5  1 -1</clus>
</clustering>
</event>
<event>
 9    1  0.1464797E-005  0.1274916E+03  0.7546771E-02  0.1231679E+00
         -1   -1    0    0    0  501 -0.00000000000E+00  0.00000000000E+00  0.42125813752E+03  0.42125813752E+03  0.00000000000E+00 0.  1.
         21   -1    0    0  501  502  0.00000000000E+00 -0.00000000000E+00 -0.84567774198E+02  0.84567774198E+02  0.00000000000E+00 0.  1.
         23    2    1    2    0    0 -0.37519436552E+02  0.74031454006E+02  0.21217348862E+03  0.24576220389E+03  0.92158056002E+02 0.  0.
         23    2    1    2    0    0  0.81174126889E+02 -0.61328955662E+02  0.15423619788E+03  0.20574682627E+03  0.90512275998E+02 0.  0.
        -11    1    3    3    0    0 -0.53668606891E+02  0.72305534160E+01  0.11026894370E+03  0.12284885108E+03  0.00000000000E+00 0. -1.
         11    1    3    3    0    0  0.16149170339E+02  0.66800900590E+02  0.10190454492E+03  0.12291335280E+03  0.00000000000E+00 0.  1.
        -13    1    4    4    0    0  0.71981301149E+02  0.53922001971E+00  0.98285559411E+02  0.12182630940E+03  0.00000000000E+00 0.  1.
         13    1    4    4    0    0  0.91928257404E+01 -0.61868175681E+02  0.55950638470E+02  0.83920516874E+02  0.00000000000E+00 0. -1.
         -1    1    1    2    0  502 -0.43654690337E+02 -0.12702498344E+02 -0.29719323173E+02  0.54316881561E+02  0.00000000000E+00 0.  1.
<scales pt_clust_5="13000.00000" pt_clust_6="13000.00000" pt_clust_7="13000.00000" pt_clust_8="13000.00000" pt_clust_9="45.46521"></scales>
<clustering>
<clus scale="   45.465">  2  9  1 -1</clus>
<clus scale="   90.512">  7  8 -1 -1</clus>
<clus scale="   92.158">  5  6 -1 -1</clus>
<clus scale="  126.307">  2  7  1 -1</clus>
<clus scale="   45.465">  2  5  1 -1</clus>
</clustering>
</event>
<event>
 9    1  0.1464797E-005  0.1108276E+03  0.7546771E-02  0.1259317E+00
         21   -1    0    0  501  502  0.00000000000E+00  0.00000000000E+00  0.31186906503E+02  0.31186906503E+02  0.00000000000E+00 0.  1.
          1   -1    0    0  502    0 -0.00000000000E+00 -0.00000000000E+00 -0.81877073721E+03  0.81877073721E+03  0.00000000000E+00 0. -1.
         23    2    1    2    0    0 -0.27203975120E+02 -0.56771004340E+02 -0.30468153030E+03  0.32407221552E+03  0.90713630540E+02 0.  0.
         23    2    1    2    0    0 -0.45351222351E+02  0.75111893809E+02 -0.22948304345E+03  0.26164696638E+03  0.89989653996E+02 0.  0.
        -11    1    3    3    0    0 -0.50727776446E+02 -0.53209723178E+02 -0.28117409296E+03  0.29062596666E+03  0.00000000000E+00 0.  1.
         11    1    3    3    0    0  0.23523801326E+02 -0.35612811617E+01 -0.23507437346E+02  0.33446248862E+02  0.00000000000E+00 0. -1.
        -13    1    4    4    0    0  0.12897215546E+02  0.52985864193E+02 -0.60031152269E+02  0.81102276268E+02  0.00000000000E+00 0. -1.
         13    1    4    4    0    0 -0.58248437897E+02  0.22126029616E+02 -0.16945189118E+03  0.18054469012E+03  0.00000000000E+00 0.  1.
          1    1    1    2  501    0  0.72555197471E+02 -0.18340889469E+02 -0.25341925695E+03  0.26423846181E+03  0.00000000000E+00 0. -1.
<scales pt_clust_5="13000.00000" pt_clust_6="13000.00000" pt_clust_7="13000.00000" pt_clust_8="13000.00000" pt_clust_9="74.83749"></scales>
<clustering>
<clus scale="   74.837">  1  9  2 -1</clus>
<clus scale="   89.990">  7  8 -1 -1</clus>
<clus scale="   90.714">  5  6 -1 -1</clus>
<clus scale="  110.236">  1  7  2 -1</clus>
<clus scale="   74.837">  1  5  2 -1</clus>
</clustering>
</event>
<event>
 9    1  0.1464797E-005  0.1187284E+03  0.7546771E-02  0.1245371E+00
         21   -1    0    0  501  502  0.00000000000E+00  0.00000000000E+00  0.68320851219E+02  0.68320851219E+02  0.00000000000E+00 0. -1.
         -3   -1    0    0    0  501 -0.00000000000E+00 -0.00000000000E+00 -0.34024072769E+03  0.34024072769E+03  0.00000000000E+00 0.  1.
         23    2    1    2    0    0  0.65224993187E+01 -0.78113687684E+02 -0.23415173258E+03  0.26324602228E+03  0.91253181724E+02 0.  0.
         23    2    1    2    0    0  0.13053172049E+02  0.68574789327E+02 -0.17988177982E+02  0.11589711781E+03  0.90750649238E+02 0.  0.
        -11    1    4    4    0    0  0.51579961919E+02  0.37044753868E+02 -0.18382552671E+02  0.66111455161E+02  0.00000000000E+00 0.  1.
         11    1    4    4    0    0 -0.38526789870E+02  0.31530035459E+02  0.39437468931E+00  0.49785662647E+02  0.00000000000E+00 0. -1.
        -13    1    3    3    0    0 -0.37957464737E+02 -0.18710327055E+02 -0.55493686748E+02  0.69788213450E+02  0.00000000000E+00 0. -1.
         13    1    3    3    0    0  0.44479964055E+02 -0.59403360629E+02 -0.17865804583E+03  0.19345780883E+03  0.00000000000E+00 0.  1.
         -3    1    1    2    0  502 -0.19575671368E+02  0.95388983569E+01 -0.19779965908E+02  0.29418438821E+02  0.00000000000E+00 0.  1.
<scales pt_clust_5="13000.00000" pt_clust_6="13000.00000" pt_clust_7="13000.00000" pt_clust_8="13000.00000" pt_clust_9="21.77609"></scales>
<clustering>
<clus scale="   21.776">  1  9  2 -1</clus>
<clus scale="   90.751">  5  6 -1 -1</clus>
<clus scale="   91.253">  7  8 -1 -1</clus>
<clus scale="  118.343">  1  5  2 -1</clus>
<clus scale="   21.776">  1  5  2 -1</clus>
</clustering>
</event>
<event>
 9    1  0.1464797E-005  0.1001000E+03  0.7546771E-02  0.1280265E+00
          1   -1    0    0  502    0 -0.00000000000E+00  0.00000000000E+00  0.37584225512E+03  0.37584225512E+03  0.00000000000E+00 0. -1.
         21   -1    0    0  501  502  0.00000000000E+00 -0.00000000000E+00 -0.13523910925E+03  0.13523910925E+03  0.00000000000E+00 0. -1.
         23    2    1    2    0    0  0.93167076674E+01  0.39635187551E+02  0.17054891410E+03  0.19776624250E+03  0.91470243452E+02 0.  0.
         23    2    1    2    0    0  0.33791566583E+02 -0.38312147128E+02  0.17278462471E+03  0.20189875243E+03  0.91098238773E+02 0.  0.
        -11    1    4    4    0    0 -0.25678993501E+02  0.77629304459E+01  0.66283353535E+02  0.71506340643E+02  0.00000000000E+00 0. -1.
         11    1    4    4    0    0  0.59470560084E+02 -0.46075077574E+02  0.10650127118E+03  0.13039241179E+03  0.00000000000E+00 0.  1.
        -11    1    3    3    0    0  0.55259806311E+01 -0.23340266845E+02  0.10124311975E+03  0.10404553722E+03  0.00000000000E+00 0.  1.
         11    1    3    3    0    0  0.37907270363E+01  0.62975454396E+02  0.69305794354E+02  0.93720705284E+02  0.00000000000E+00 0. -1.
          1    1    1    2  501    0 -0.43108274250E+02 -0.13230404223E+01 -0.10273039294E+03  0.11141636943E+03  0.00000000000E+00 0. -1.
<scales pt_clust_5="13000.00000" pt_clust_6="13000.00000" pt_clust_7="13000.00000" pt_clust_8="13000.00000" pt_clust_9="43.12857"></scales>
<clustering>
<clus scale="   43.129">  2  9  1 -1</clus>
<clus scale="   91.098">  5  6 -1 -1</clus>
<clus scale="   91.470">  7  8 -1 -1</clus>
<clus scale="   99.760">  2  5  1 -1</clus>
<clus scale="   43.129">  2  5  1 -1</clus>
</clustering>
</event>
<event>
 9    1  0.1464797E-005  0.1207941E+03  0.7546771E-02  0.1244455E+00
         21   -1    0    0  501  502  0.00000000000E+00  0.00000000000E+00  0.21684803011E+03  0.21684803011E+03  0.00000000000E+00 0. -1.
         -2   -1    0    0    0  501 -0.00000000000E+00 -0.00000000000E+00 -0.14640359772E+03  0.14640359772E+03  0.00000000000E+00 0.  1.
         23    2    1    2    0    0  0.67006823442E+02  0.27517546399E+02 -0.47739651971E+02  0.12533878380E+03  0.90463288730E+02 0.  0.
         23    2    1    2    0    0 -0.84948844040E+02 -0.37354124765E+02  0.59881577051E+01  0.12386636080E+03  0.81825305163E+02 0.  0.
        -11    1    4    4    0    0 -0.27361687104E+02  0.76220457812E+01 -0.30935863119E+02  0.41997441946E+02  0.00000000000E+00 0.  1.
         11    1    4    4    0    0 -0.57587156936E+02 -0.44976170546E+02  0.36924020824E+02  0.81868918856E+02  0.00000000000E+00 0. -1.
        -11    1    3    3    0    0  0.78230232591E+01  0.48162300909E+02 -0.41062269016E+01  0.48965988412E+02  0.00000000000E+00 0.  1.
         11    1    3    3    0    0  0.59183800183E+02 -0.20644754510E+02 -0.43633425069E+02  0.76372795393E+02  0.00000000000E+00 0. -1.
         -2    1    1    2    0  502  0.17942020598E+02  0.98365783657E+01  0.11219592665E+03  0.11404648322E+03  0.00000000000E+00 0.  1.
<scales pt_clust_5="13000.00000" pt_clust_6="13000.00000" pt_clust_7="13000.00000" pt_clust_8="13000.00000" pt_clust_9="20.46153"></scales>
<clustering>
<clus scale="   20.462">  1  9  2 -1</clus>
<clus scale="   81.825">  5  6 -1 -1</clus>
<clus scale="   90.463">  7  8 -1 -1</clus>
<clus scale="  114.468">  1  5  2 -1</clus>
<clus scale="   20.462">  1  5  2 -1</clus>
</clustering>
</event>
<event>
 9    1  0.1464797E-005  0.1132473E+03  0.7546771E-02  0.1255568E+00
         21   -1    0    0  501  502  0.00000000000E+00  0.00000000000E+00  0.28848287200E+02  0.28848287200E+02  0.00000000000E+00 0. -1.
         -3   -1    0    0    0  501 -0.00000000000E+00 -0.00000000000E+00 -0.72900466198E+03  0.72900466198E+03  0.00000000000E+00 0.  1.
         23    2    1    2    0    0  0.34057380049E+02 -0.57345821742E+02 -0.48185045516E+03  0.49560769502E+03  0.94861361054E+02 0.  0.
         23    2    1    2    0    0 -0.14307603083E+02  0.52476684665E+02 -0.21674683713E+03  0.24184444721E+03  0.92471808130E+02 0.  0.
        -11    1    3    3    0    0 -0.15741679660E+02 -0.63724641150E+02 -0.26199361284E+03  0.27009125039E+03  0.00000000000E+00 0.  1.
         11    1    3    3    0    0  0.49799059709E+02  0.63788194087E+01 -0.21985684232E+03  0.22551644463E+03  0.00000000000E+00 0. -1.
        -13    1    4    4    0    0 -0.31105232976E+00 -0.24842460040E+02 -0.28218992276E+02  0.37597288459E+02  0.00000000000E+00 0.  1.
         13    1    4    4    0    0 -0.13996550753E+02  0.77319144705E+02 -0.18852784485E+03  0.20424715875E+03  0.00000000000E+00 0. -1.
         -3    1    1    2    0  502 -0.19749776967E+02  0.48691370763E+01 -0.15590824914E+01  0.20400806952E+02  0.00000000000E+00 0.  1.
<scales pt_clust_5="13000.00000" pt_clust_6="13000.00000" pt_clust_7="13000.00000" pt_clust_8="13000.00000" pt_clust_9="20.34115"></scales>
<clustering>
<clus scale="   20.341">  1  9  2 -1</clus>
<clus scale="   92.472">  7  8 -1 -1</clus>
<clus scale="   94.861">  5  6 -1 -1</clus>
<clus scale="  111.253">  1  7  2 -1</clus>
<clus scale="   20.341">  1  5  2 -1</clus>
</clustering>
</event>
<event>
 9    1  0.1464797E-005  0.1258188E+03  0.7546771E-02  0.1233915E+00
          1   -1    0    0  502    0 -0.00000000000E+00  0.00000000000E+00  0.26866949109E+03  0.26866949109E+03  0.00000000000E+00 0. -1.
         21   -1    0    0  501  502  0.00000000000E+00 -0.00000000000E+00 -0.78435502734E+02  0.78435502734E+02  0.00000000000E+00 0. -1.
         23    2    1    2    0    0  0.91283443836E+02 -0.47260091885E+01  0.13026619858E+03  0.18358313920E+03  0.91534060464E+02 0.  0.
         23    2    1    2    0    0 -0.78831875099E+02 -0.19848473724E+02  0.59824211848E+02  0.13597249185E+03  0.91110678717E+02 0.  0.
        -11    1    4    4    0    0 -0.96600833376E+02 -0.44446605336E+01  0.38037073700E+02  0.10391484491E+03  0.00000000000E+00 0.  1.
         11    1    4    4    0    0  0.17768958276E+02 -0.15403813190E+02  0.21787138148E+02  0.32057646946E+02  0.00000000000E+00 0. -1.
        -13    1    3    3    0    0  0.30515989189E+02 -0.54379420064E+01 -0.84593177062E+01  0.32130310698E+02  0.00000000000E+00 0.  1.
         13    1    3    3    0    0  0.60767454647E+02  0.71193281787E+00  0.13872551629E+03  0.15145282851E+03  0.00000000000E+00 0. -1.
          1    1    1    2  501    0 -0.12451568737E+02  0.24574482913E+02  0.14357792638E+00  0.27549362770E+02  0.00000000000E+00 0. -1.
<scales pt_clust_5="13000.00000" pt_clust_6="13000.00000" pt_clust_7="13000.00000" pt_clust_8="13000.00000" pt_clust_9="27.54899"></scales>
<clustering>
<clus scale="   27.549">  2  9  1 -1</clus>
<clus scale="   91.111">  5  6 -1 -1</clus>
<clus scale="   91.534">  7  8 -1 -1</clus>
<clus scale="  125.511">  2  5  1 -1</clus>
<clus scale="   27.549">  2  5  1 -1</clus>
</clustering>
</event>
<event>
 9    1  0.1464797E-005  0.1039219E+03  0.7546771E-02  0.1272676E+00
          3   -1    0    0  502    0 -0.00000000000E+00  0.00000000000E+00  0.97567723601E+02  0.97567723601E+02  0.00000000000E+00 0. -1.
         21   -1    0    0  501  502  0.00000000000E+00 -0.00000000000E+00 -0.22114257208E+03  0.22114257208E+03  0.00000000000E+00 0.  1.
         23    2    1    2    0    0 -0.13526929165E+02  0.34232561363E+02  0.57059813400E+01  0.99676579324E+02  0.92455482112E+02 0.  0.
         23    2    1    2    0    0  0.22424162700E+02 -0.59752194613E+02 -0.29149570142E+02  0.11531929301E+03  0.91518708835E+02 0.  0.
        -13    1    4    4    0    0  0.29141198389E+02 -0.81672601341E+02 -0.13997442922E+02  0.87838212992E+02  0.00000000000E+00 0. -1.
         13    1    4    4    0    0 -0.67170356895E+01  0.21920406728E+02 -0.15152127220E+02  0.27481080016E+02  0.00000000000E+00 0.  1.
        -13    1    3    3    0    0  0.19047306347E+02  0.28177623359E+02 -0.33912830465E+02  0.48029765848E+02  0.00000000000E+00 0. -1.
         13    1    3    3    0    0 -0.32574235511E+02  0.60549380039E+01  0.39618811805E+02  0.51646813476E+02  0.00000000000E+00 0.  1.
          3    1    1    2  501    0 -0.88972335353E+01  0.25519633250E+02 -0.10013125968E+03  0.10371442335E+03  0.00000000000E+00 0. -1.
<scales pt_clust_5="13000.00000" pt_clust_6="13000.00000" pt_clust_7="13000.00000" pt_clust_8="13000.00000" pt_clust_9="27.02614"></scales>
<clustering>
<clus scale="   27.026">  2  9  1 -1</clus>
<clus scale="   91.519">  5  6 -1 -1</clus>
<clus scale="   92.455">  7  8 -1 -1</clus>
<clus scale="  103.089">  2  5  1 -1</clus>
<clus scale="   27.026">  2  5  1 -1</clus>
</clustering>
</event>
<event>
 9    1  0.1464797E-005  0.1635686E+03  0.7546771E-02  0.1185023E+00
          2   -1    0    0  502    0 -0.00000000000E+00  0.00000000000E+00  0.16118632706E+04  0.16118632706E+04  0.00000000000E+00 0. -1.
         21   -1    0    0  501  502  0.00000000000E+00 -0.00000000000E+00 -0.55616907899E+02  0.55616907899E+02  0.00000000000E+00 0. -1.
         23    2    1    2    0    0  0.83322081729E+02  0.10394901271E+03  0.34732175150E+03  0.38333140610E+03  0.92534324947E+02 0.  0.
         23    2    1    2    0    0  0.40957669390E+02 -0.17430132842E+03  0.28099121667E+03  0.34529026892E+03  0.90613587241E+02 0.  0.
        -11    1    4    4    0    0  0.88384360276E+01 -0.13652261094E+03  0.13961908548E+03  0.19547386086E+03  0.00000000000E+00 0. -1.
         11    1    4    4    0    0  0.32119233363E+02 -0.37778717482E+02  0.14137213119E+03  0.14981640806E+03  0.00000000000E+00 0.  1.
        -13    1    3    3    0    0  0.94172557075E+02  0.82277898290E+02  0.21428552894E+03  0.24810564477E+03  0.00000000000E+00 0. -1.
         13    1    3    3    0    0 -0.10850475346E+02  0.21671114418E+02  0.13303622256E+03  0.13522576134E+03  0.00000000000E+00 0.  1.
          2    1    1    2  501    0 -0.12427975112E+03  0.70352315715E+02  0.92793339453E+03  0.93885850347E+03  0.00000000000E+00 0. -1.
<scales pt_clust_5="13000.00000" pt_clust_6="13000.00000" pt_clust_7="13000.00000" pt_clust_8="13000.00000" pt_clust_9="142.81080"></scales>
<clustering>
<clus scale="   90.614">  5  6 -1 -1</clus>
<clus scale="   92.534">  7  8 -1 -1</clus>
<clus scale="  142.811">  2  9  1 -1</clus>
<clus scale="  162.490">  2  5  1 -1</clus>
<clus scale="  142.811">  2  5  1 -1</clus>
</clustering>
</event>
<event>
 9    1  0.1464797E-005  0.9322907E+02  0.7546771E-02  0.1295572E+00
         21   -1    0    0  501  502  0.00000000000E+00  0.00000000000E+00  0.82818376737E+02  0.82818376737E+02  0.00000000000E+00 0. -1.
          2   -1    0    0  502    0 -0.00000000000E+00 -0.00000000000E+00 -0.18987284676E+03  0.18987284676E+03  0.00000000000E+00 0. -1.
         23    2    1    2    0    0 -0.19735504490E+02 -0.61300326557E+01 -0.12434822543E+03  0.15566658158E+03  0.91337484176E+02 0.  0.
         23    2    1    2    0    0 -0.84567670039E+00 -0.29464669324E+01  0.69753526673E+01  0.92277171360E+02  0.91962078994E+02 0.  0.
        -11    1    3    3    0    0  0.99578452138E+01  0.24423656755E+02 -0.23936812411E+01  0.26484021606E+02  0.00000000000E+00 0.  1.
         11    1    3    3    0    0 -0.29693349704E+02 -0.30553689410E+02 -0.12195454419E+03  0.12918255997E+03  0.00000000000E+00 0. -1.
        -13    1    4    4    0    0  0.24787570607E+02 -0.15714816010E+01  0.42034996407E+02  0.48824523899E+02  0.00000000000E+00 0.  1.
         13    1    4    4    0    0 -0.25633247308E+02 -0.13749853314E+01 -0.35059643740E+02  0.43452647461E+02  0.00000000000E+00 0. -1.
          2    1    1    2  501    0  0.20581181190E+02  0.90764995881E+01  0.10318402739E+02  0.24747470558E+02  0.00000000000E+00 0. -1.
<scales pt_clust_5="13000.00000" pt_clust_6="13000.00000" pt_clust_7="13000.00000" pt_clust_8="13000.00000" pt_clust_9="22.49373"></scales>
<clustering>
<clus scale="   22.494">  1  9  2 -1</clus>
<clus scale="   91.337">  5  6 -1 -1</clus>
<clus scale="   91.962">  7  8 -1 -1</clus>
<clus scale="   92.613">  2  5  1 -1</clus>
<clus scale="   22.494">  1  5  2 -1</clus>
</clustering>
</event>
<event>
 9    1  0.1464797E-005  0.1045129E+03  0.7546771E-02  0.1271325E+00
         21   -1    0    0  501  502  0.00000000000E+00  0.00000000000E+00  0.59054423352E+02  0.59054423352E+02  0.00000000000E+00 0.  1.
         -1   -1    0    0    0  501 -0.00000000000E+00 -0.00000000000E+00 -0.54581410863E+03  0.54581410863E+03  0.00000000000E+00 0.  1.
         23    2    1    2    0    0  0.20913054942E+02  0.46666403678E+02 -0.33813695858E+03  0.35391238321E+03  0.91116755515E+02 0.  0.
         23    2    1    2    0    0 -0.15509281350E+00 -0.54264776391E+02 -0.18230604798E+03  0.21066726206E+03  0.90556668252E+02 0.  0.
        -11    1    3    3    0    0 -0.28222457777E+02 -0.71565258354E+01 -0.65057722154E+02  0.71275733576E+02  0.00000000000E+00 0.  1.
         11    1    3    3    0    0  0.49135512719E+02  0.53822929514E+02 -0.27307923642E+03  0.28263664963E+03  0.00000000000E+00 0. -1.
        -11    1    4    4    0    0 -0.19907563778E+02 -0.64850570928E+02 -0.17401880525E+03  0.18677379963E+03  0.00000000000E+00 0.  1.
         11    1    4    4    0    0  0.19752470964E+02  0.10585794537E+02 -0.82872427253E+01  0.23893462436E+02  0.00000000000E+00 0. -1.
         -1    1    1    2    0  502 -0.20757962128E+02  0.75983727127E+01  0.33683321280E+02  0.40288886706E+02  0.00000000000E+00 0.  1.
<scales pt_clust_5="13000.00000" pt_clust_6="13000.00000" pt_clust_7="13000.00000" pt_clust_8="13000.00000" pt_clust_9="22.10494"></scales>
<clustering>
<clus scale="   22.105">  1  9  2 -1</clus>
<clus scale="   90.557">  7  8 -1 -1</clus>
<clus scale="   91.117">  5  6 -1 -1</clus>
<clus scale="  104.025">  1  7  2 -1</clus>
<clus scale="   22.105">  1  5  2 -1</clus>
</clustering>
</event>
<event>
 9    1  0.1464797E-005  0.1464358E+03  0.7546771E-02  0.1204965E+00
         21   -1    0    0  501  502  0.00000000000E+00  0.00000000000E+00  0.13319012614E+03  0.13319012614E+03  0.00000000000E+00 0.  1.
          1   -1    0    0  502    0 -0.00000000000E+00 -0.00000000000E+00 -0.51997061020E+03  0.51997061020E+03  0.00000000000E+00 0. -1.
         23    2    1    2    0    0 -0.10857336738E+03  0.39578361700E+02 -0.43665339477E+03  0.46080411516E+03  0.91211965077E+02 0.  0.
         23    2    1    2    0    0  0.11066239638E+03 -0.10754746997E+02  0.11244532952E+02  0.14411435366E+03  0.90998224453E+02 0.  0.
        -11    1    4    4    0    0  0.96036257435E+01  0.21597584583E+02  0.28049881914E+02  0.36680801009E+02  0.00000000000E+00 0.  1.
         11    1    4    4    0    0  0.10105877064E+03 -0.32352331580E+02 -0.16805348962E+02  0.10743355265E+03  0.00000000000E+00 0. -1.
        -13    1    3    3    0    0 -0.72757788947E+02  0.68776007020E+02 -0.27419998174E+03  0.29190660318E+03  0.00000000000E+00 0. -1.
         13    1    3    3    0    0 -0.35815578431E+02 -0.29197645321E+02 -0.16245341302E+03  0.16889751198E+03  0.00000000000E+00 0.  1.
          1    1    1    2  501    0 -0.20890290045E+01 -0.28823614703E+02  0.38628377751E+02  0.48242267509E+02  0.00000000000E+00 0. -1.
<scales pt_clust_5="13000.00000" pt_clust_6="13000.00000" pt_clust_7="13000.00000" pt_clust_8="13000.00000" pt_clust_9="28.89922"></scales>
<clustering>
<clus scale="   28.899">  1  9  2 -1</clus>
<clus scale="   90.998">  5  6 -1 -1</clus>
<clus scale="   91.212">  7  8 -1 -1</clus>
<clus scale="  146.303">  1  5  2 -1</clus>
<clus scale="   28.899">  1  5  2 -1</clus>
</clustering>
</event>
<event>
 9    1  0.1464797E-005  0.1002458E+03  0.7546771E-02  0.1280118E+00
         21   -1    0    0  501  502  0.00000000000E+00  0.00000000000E+00  0.12013927349E+03  0.12013927349E+03  0.00000000000E+00 0. -1.
          1   -1    0    0  502    0 -0.00000000000E+00 -0.00000000000E+00 -0.47832943288E+03  0.47832943288E+03  0.00000000000E+00 0. -1.
         23    2    1    2    0    0  0.17451827750E+01 -0.34221485684E+02 -0.23170563953E+03  0.25419965087E+03  0.98771470417E+02 0.  0.
         23    2    1    2    0    0 -0.31463586915E+02 -0.60844220710E+02 -0.19532339440E+03  0.22319278728E+03  0.83497397536E+02 0.  0.
        -11    1    3    3    0    0  0.26316934830E+02  0.20198143916E+02 -0.33302827478E+02  0.47006642026E+02  0.00000000000E+00 0.  1.
         11    1    3    3    0    0 -0.24571752055E+02 -0.54419629600E+02 -0.19840281205E+03  0.20719300885E+03  0.00000000000E+00 0. -1.
        -13    1    4    4    0    0 -0.53145990569E+02 -0.65213350636E+02 -0.13642261348E+03  0.16027603341E+03  0.00000000000E+00 0. -1.
         13    1    4    4    0    0  0.21682403654E+02  0.43691299259E+01 -0.58900780919E+02  0.62916753869E+02  0.00000000000E+00 0.  1.
          1    1    1    2  501    0  0.29718404140E+02  0.95065706394E+02  0.68838874543E+02  0.12107626822E+03  0.00000000000E+00 0. -1.
<scales pt_clust_5="13000.00000" pt_clust_6="13000.00000" pt_clust_7="13000.00000" pt_clust_8="13000.00000" pt_clust_9="99.60257"></scales>
<clustering>
<clus scale="   83.497">  7  8 -1 -1</clus>
<clus scale="   98.771">  5  6 -1 -1</clus>
<clus scale="   99.603">  1  9  2 -1</clus>
<clus scale="   99.603">  1  7  2 -1</clus>
<clus scale="   99.603">  1  5  2 -1</clus>
</clustering>
</event>
<event>
 9    1  0.1464797E-005  0.1348673E+03  0.7546771E-02  0.1221504E+00
         21   -1    0    0  501  502  0.00000000000E+00  0.00000000000E+00  0.76942236098E+03  0.76942236098E+03  0.00000000000E+00 0. -1.
          1   -1    0    0  502    0 -0.00000000000E+00 -0.00000000000E+00 -0.46091346841E+02  0.46091346841E+02  0.00000000000E+00 0. -1.
         23    2    1    2    0    0  0.38253937730E+02 -0.50880630074E+02  0.19515402813E+03  0.22351929486E+03  0.88450993286E+02 0.  0.
         23    2    1    2    0    0 -0.82891680237E+02  0.11389166106E+03  0.23831441712E+03  0.29202236938E+03  0.92956773297E+02 0.  0.
        -11    1    4    4    0    0 -0.16578589438E+02  0.17464544214E+02  0.13114510522E+03  0.13333753618E+03  0.00000000000E+00 0.  1.
         11    1    4    4    0    0 -0.66313090799E+02  0.96427116844E+02  0.10716931190E+03  0.15868483320E+03  0.00000000000E+00 0. -1.
        -13    1    3    3    0    0  0.50734382370E+00 -0.48212681194E+02  0.17316802030E+03  0.17975506469E+03  0.00000000000E+00 0. -1.
         13    1    3    3    0    0  0.37746593907E+02 -0.26679488799E+01  0.21986007826E+02  0.43764230176E+02  0.00000000000E+00 0.  1.
          1    1    1    2  501    0  0.44637742507E+02 -0.63011030984E+02  0.28986256890E+03  0.29997204358E+03  0.00000000000E+00 0. -1.
<scales pt_clust_5="13000.00000" pt_clust_6="13000.00000" pt_clust_7="13000.00000" pt_clust_8="13000.00000" pt_clust_9="77.21993"></scales>
<clustering>
<clus scale="   77.220">  1  9  2 -1</clus>
<clus scale="   88.451">  7  8 -1 -1</clus>
<clus scale="   92.957">  5  6 -1 -1</clus>
<clus scale="  131.802">  2  7  1 -1</clus>
<clus scale="   77.220">  1  5  2 -1</clus>
</clustering>
</event>
<event>
 9    1  0.1464797E-005  0.9520080E+02  0.7546771E-02  0.1291483E+00
         21   -1    0    0  501  502  0.00000000000E+00  0.00000000000E+00  0.38930006285E+03  0.38930006285E+03  0.00000000000E+00 0. -1.
          1   -1    0    0  502    0 -0.00000000000E+00 -0.00000000000E+00 -0.16674669896E+03  0.16674669896E+03  0.00000000000E+00 0. -1.
         23    2    1    2    0    0 -0.24970960274E+02  0.22172877522E+02 -0.12410642680E+03  0.15726986512E+03  0.90643366813E+02 0.  0.
         23    2    1    2    0    0 -0.35381016578E+02 -0.31840701567E+02  0.91453193471E+02  0.13635312644E+03  0.89234757145E+02 0.  0.
        -13    1    4    4    0    0 -0.25720985867E+02 -0.53516111769E+01  0.10269267319E+03  0.10599997162E+03  0.00000000000E+00 0.  1.
         13    1    4    4    0    0 -0.96600307113E+01 -0.26489090390E+02 -0.11239479720E+02  0.30353154818E+02  0.00000000000E+00 0. -1.
        -13    1    3    3    0    0 -0.24666361941E+02 -0.10415781741E+02 -0.12167832381E+03  0.12458945544E+03  0.00000000000E+00 0. -1.
         13    1    3    3    0    0 -0.30459833241E+00  0.32588659263E+02 -0.24281029849E+01  0.32680409679E+02  0.00000000000E+00 0.  1.
          1    1    1    2  501    0  0.60351976852E+02  0.96678240453E+01  0.25520659722E+03  0.26242377026E+03  0.00000000000E+00 0. -1.
<scales pt_clust_5="13000.00000" pt_clust_6="13000.00000" pt_clust_7="13000.00000" pt_clust_8="13000.00000" pt_clust_9="61.12142"></scales>
<clustering>
<clus scale="   61.121">  1  9  2 -1</clus>
<clus scale="   89.235">  5  6 -1 -1</clus>
<clus scale="   90.643">  7  8 -1 -1</clus>
<clus scale="   93.861">  1  5  2 -1</clus>
<clus scale="   61.121">  1  5  2 -1</clus>
</clustering>
</event>
<event>
 9    1  0.1464797E-005  0.1033753E+03  0.7546771E-02  0.1274688E+00
         21   -1    0    0  501  502  0.00000000000E+00  0.00000000000E+00  0.37891005849E+02  0.37891005849E+02  0.00000000000E+00 0.  1.
          1   -1    0    0  502    0 -0.00000000000E+00 -0.00000000000E+00 -0.44655333875E+03  0.44655333875E+03  0.00000000000E+00 0. -1.
         23    2    1    2    0    0 -0.43337853221E+02  0.31487125258E+02 -0.15769968422E+03  0.19049984442E+03  0.92473735417E+02 0.  0.
         23    2    1    2    0    0  0.46208273897E+02  0.10208228720E+02 -0.12300001091E+03  0.15932957336E+03  0.89540481083E+02 0.  0.
        -11    1    3    3    0    0  0.25337808885E+02  0.11580017000E+02 -0.16897869611E+02  0.32582807587E+02  0.00000000000E+00 0. -1.
         11    1    3    3    0    0 -0.68675662106E+02  0.19907108257E+02 -0.14080181461E+03  0.15791703684E+03  0.00000000000E+00 0.  1.
        -13    1    4    4    0    0  0.51353960498E+01  0.42111697252E+02 -0.84734520119E+02  0.94761311926E+02  0.00000000000E+00 0.  1.
         13    1    4    4    0    0  0.41072877847E+02 -0.31903468532E+02 -0.38265490794E+02  0.64568261435E+02  0.00000000000E+00 0. -1.
          1    1    1    2  501    0 -0.28704206755E+01 -0.41695353977E+02 -0.12796263776E+03  0.13461492681E+03  0.00000000000E+00 0. -1.
<scales pt_clust_5="13000.00000" pt_clust_6="13000.00000" pt_clust_7="13000.00000" pt_clust_8="13000.00000" pt_clust_9="41.79406"></scales>
<clustering>
<clus scale="   41.794">  1  9  2 -1</clus>
<clus scale="   89.540">  7  8 -1 -1</clus>
<clus scale="   92.474">  5  6 -1 -1</clus>
<clus scale="  100.760">  1  7  2 -1</clus>
<clus scale="   41.794">  1  5  2 -1</clus>
</clustering>
</event>
<event>
 9    1  0.1464797E-005  0.1298873E+03  0.7546771E-02  0.1228789E+00
         21   -1    0    0  501  502  0.00000000000E+00  0.00000000000E+00  0.56872610296E+02  0.56872610296E+02  0.00000000000E+00 0.  1.
          2   -1    0    0  502    0 -0.00000000000E+00 -0.00000000000E+00 -0.49753658125E+03  0.49753658125E+03  0.00000000000E+00 0. -1.
         23    2    1    2    0    0 -0.41036609375E+02 -0.92347240582E+02 -0.35578116279E+03  0.37994335382E+03  0.86975284779E+02 0.  0.
         23    2    1    2    0    0  0.39858224248E+02  0.54542631522E+02 -0.55145383700E+02  0.12635251866E+03  0.91435053097E+02 0.  0.
        -11    1    3    3    0    0  0.17843441357E+02 -0.14802051807E+02 -0.20965162488E+02  0.31257433921E+02  0.00000000000E+00 0.  1.
         11    1    3    3    0    0 -0.58880050732E+02 -0.77545188775E+02 -0.33481600030E+03  0.34868591990E+03  0.00000000000E+00 0. -1.
        -11    1    4    4    0    0  0.23832579161E+02 -0.70271564035E+01 -0.57551192692E+02  0.62685824050E+02  0.00000000000E+00 0. -1.
         11    1    4    4    0    0  0.16025645087E+02  0.61569787925E+02  0.24058089925E+01  0.63666694610E+02  0.00000000000E+00 0.  1.
          2    1    1    2  501    0  0.11783851265E+01  0.37804609061E+02 -0.29737424458E+02  0.48113319062E+02  0.00000000000E+00 0. -1.
<scales pt_clust_5="13000.00000" pt_clust_6="13000.00000" pt_clust_7="13000.00000" pt_clust_8="13000.00000" pt_clust_9="37.82297"></scales>
<clustering>
<clus scale="   37.823">  1  9  2 -1</clus>
<clus scale="   86.975">  5  6 -1 -1</clus>
<clus scale="   91.435">  7  8 -1 -1</clus>
<clus scale="  126.787">  2  5  1 -1</clus>
<clus scale="   37.823">  1  5  2 -1</clus>
</clustering>
</event>
<event>
 9    1  0.1464797E-005  0.1843116E+03  0.7546771E-02  0.1163743E+00
         21   -1    0    0  501  502  0.00000000000E+00  0.00000000000E+00  0.16506589077E+03  0.16506589077E+03  0.00000000000E+00 0.  1.
         -1   -1    0    0    0  501 -0.00000000000E+00 -0.00000000000E+00 -0.40229974880E+03  0.40229974880E+03  0.00000000000E+00 0.  1.
         23    2    1    2    0    0  0.88905648580E+02 -0.65958020970E+02 -0.42715949160E+02  0.14937317721E+03  0.90735984460E+02 0.  0.
         23    2    1    2    0    0 -0.18490332605E+03  0.13976285070E+03 -0.12567636085E+03  0.27870188226E+03  0.90317756171E+02 0.  0.
        -11    1    4    4    0    0 -0.13608653014E+03  0.13700184329E+03 -0.12456498729E+03  0.22979444034E+03  0.00000000000E+00 0.  1.
         11    1    4    4    0    0 -0.48816795908E+02  0.27610074100E+01 -0.11113735628E+01  0.48907441927E+02  0.00000000000E+00 0. -1.
        -13    1    3    3    0    0 -0.18969249111E+02 -0.81187932643E+01 -0.42290762753E+01  0.21062580613E+02  0.00000000000E+00 0. -1.
         13    1    3    3    0    0  0.10787489769E+03 -0.57839227706E+02 -0.38486872884E+02  0.12831059659E+03  0.00000000000E+00 0.  1.
         -1    1    1    2    0  502  0.95997677472E+02 -0.73804829733E+02 -0.68841548019E+02  0.13929058010E+03  0.00000000000E+00 0.  1.
<scales pt_clust_5="13000.00000" pt_clust_6="13000.00000" pt_clust_7="13000.00000" pt_clust_8="13000.00000" pt_clust_9="121.08973"></scales>
<clustering>
<clus scale="   90.318">  5  6 -1 -1</clus>
<clus scale="   90.736">  7  8 -1 -1</clus>
<clus scale="  121.090">  1  9  2 -1</clus>
<clus scale="  184.106">  1  5  2 -1</clus>
<clus scale="  121.090">  1  5  2 -1</clus>
</clustering>
</event>
<event>
 9    1  0.1464797E-005  0.9634540E+02  0.7546771E-02  0.1291616E+00
         21   -1    0    0  501  502  0.00000000000E+00  0.00000000000E+00  0.28541412726E+03  0.28541412726E+03  0.00000000000E+00 0. -1.
         -1   -1    0    0    0  501 -0.00000000000E+00 -0.00000000000E+00 -0.86701551375E+02  0.86701551375E+02  0.00000000000E+00 0.  1.
         23    2    1    2    0    0 -0.17214418610E+01 -0.35463125500E+02 -0.18106733600E+02  0.93358131727E+02  0.84423280708E+02 0.  0.
         23    2    1    2    0    0 -0.50158877513E+02  0.14044021633E+02  0.82895783340E+02  0.13354784887E+03  0.90830443715E+02 0.  0.
        -11    1    3    3    0    0 -0.44050057797E+01  0.21354148472E+02 -0.28140790504E+02  0.35599267170E+02  0.00000000000E+00 0.  1.
         11    1    3    3    0    0  0.26835639188E+01 -0.56817273972E+02  0.10034056903E+02  0.57758864557E+02  0.00000000000E+00 0. -1.
        -13    1    4    4    0    0 -0.51327758490E+02 -0.29074911211E+02  0.62132993409E+02  0.85676123415E+02  0.00000000000E+00 0. -1.
         13    1    4    4    0    0  0.11688809771E+01  0.43118932844E+02  0.20762789931E+02  0.47871725455E+02  0.00000000000E+00 0.  1.
         -1    1    1    2    0  502  0.51880319374E+02  0.21419103867E+02  0.13392352615E+03  0.14520969804E+03  0.00000000000E+00 0.  1.
<scales pt_clust_5="13000.00000" pt_clust_6="13000.00000" pt_clust_7="13000.00000" pt_clust_8="13000.00000" pt_clust_9="56.12794"></scales>
<clustering>
<clus scale="   56.128">  1  9  2 -1</clus>
<clus scale="   84.423">  5  6 -1 -1</clus>
<clus scale="   90.330">  2  5  1 -1</clus>
<clus scale="   90.830">  7  8 -1 -1</clus>
<clus scale="   56.128">  1  5  2 -1</clus>
</clustering>
</event>
<event>
 9    1  0.1464797E-005  0.1331403E+03  0.7546771E-02  0.1222879E+00
         21   -1    0    0  501  502  0.00000000000E+00  0.00000000000E+00  0.11982589213E+03  0.11982589213E+03  0.00000000000E+00 0.  1.
         -1   -1    0    0    0  501 -0.00000000000E+00 -0.00000000000E+00 -0.43298643054E+03  0.43298643054E+03  0.00000000000E+00 0.  1.
         23    2    1    2    0    0 -0.90391661509E+02 -0.30978173250E+02 -0.31794380552E+03  0.34444647287E+03  0.91786761082E+02 0.  0.
         23    2    1    2    0    0  0.80291593933E+02  0.77451783608E+02  0.39136829017E+02  0.14969750195E+03  0.91826640274E+02 0.  0.
        -13    1    3    3    0    0 -0.49834881217E+02 -0.31291562668E+02 -0.28821240427E+03  0.29415823507E+03  0.00000000000E+00 0.  1.
         13    1    3    3    0    0 -0.40556780292E+02  0.31338941771E+00 -0.29731401251E+02  0.50288237799E+02  0.00000000000E+00 0. -1.
        -13    1    4    4    0    0 -0.20330329289E+02  0.72440436476E+01  0.88062405028E+01  0.23309833315E+02  0.00000000000E+00 0. -1.
         13    1    4    4    0    0  0.10062192322E+03  0.70207739960E+02  0.30330588514E+02  0.12638766863E+03  0.00000000000E+00 0.  1.
         -1    1    1    2    0  502  0.10100067577E+02 -0.46473610358E+02 -0.34353561899E+02  0.58668347854E+02  0.00000000000E+00 0.  1.
<scales pt_clust_5="13000.00000" pt_clust_6="13000.00000" pt_clust_7="13000.00000" pt_clust_8="13000.00000" pt_clust_9="47.55849"></scales>
<clustering>
<clus scale="   47.558">  1  9  2 -1</clus>
<clus scale="   91.787">  5  6 -1 -1</clus>
<clus scale="   91.827">  7  8 -1 -1</clus>
<clus scale="  133.113">  2  5  1 -1</clus>
<clus scale="   47.558">  1  5  2 -1</clus>
</clustering>
</event>
<event>
 9    1  0.1464797E-005  0.1086895E+03  0.7546771E-02  0.1267066E+00
          3   -1    0    0  502    0 -0.00000000000E+00  0.00000000000E+00  0.24779421210E+03  0.24779421210E+03  0.00000000000E+00 0. -1.
         21   -1    0    0  501  502  0.00000000000E+00 -0.00000000000E+00 -0.87877040494E+02  0.87877040494E+02  0.00000000000E+00 0.  1.
         23    2    1    2    0    0  0.21367324633E+02  0.39105990144E+02  0.16206976284E+03  0.18957670699E+03  0.87674846910E+02 0.  0.
         23    2    1    2    0    0 -0.43341931136E+02 -0.54309215197E+02 -0.27958897225E+01  0.11936562463E+03  0.97017119598E+02 0.  0.
        -11    1    3    3    0    0  0.10048218833E+02 -0.27476743851E+02  0.65459587365E+02  0.71700039974E+02  0.00000000000E+00 0. -1.
         11    1    3    3    0    0  0.11319105800E+02  0.66582733995E+02  0.96610175472E+02  0.11787666702E+03  0.00000000000E+00 0.  1.
        -13    1    4    4    0    0 -0.27764956559E+02 -0.76869821069E+02 -0.23464195855E+02  0.85031939241E+02  0.00000000000E+00 0.  1.
         13    1    4    4    0    0 -0.15576974577E+02  0.22560605872E+02  0.20668306133E+02  0.34333685393E+02  0.00000000000E+00 0. -1.
          3    1    1    2  501    0  0.21974606503E+02  0.15203225052E+02  0.64329848721E+00  0.26728920964E+02  0.00000000000E+00 0. -1.
<scales pt_clust_5="13000.00000" pt_clust_6="13000.00000" pt_clust_7="13000.00000" pt_clust_8="13000.00000" pt_clust_9="26.72118"></scales>
<clustering>
<clus scale="   26.721">  2  9  1 -1</clus>
<clus scale="   87.675">  5  6 -1 -1</clus>
<clus scale="   97.017">  7  8 -1 -1</clus>
<clus scale="  100.439">  1  5  2 -1</clus>
<clus scale="   26.721">  2  5  1 -1</clus>
</clustering>
</event>
<event>
 9    1  0.1464797E-005  0.1439279E+03  0.7546771E-02  0.1208768E+00
         21   -1    0    0  501  502  0.00000000000E+00  0.00000000000E+00  0.26704656196E+03  0.26704656196E+03  0.00000000000E+00 0. -1.
          3   -1    0    0  502    0 -0.00000000000E+00 -0.00000000000E+00 -0.18786689853E+03  0.18786689853E+03  0.00000000000E+00 0. -1.
         23    2    1    2    0    0  0.53799519950E+02 -0.91870399805E+02 -0.10395570315E+03  0.17442974486E+03  0.91018618784E+02 0.  0.
         23    2    1    2    0    0 -0.84769701852E+02  0.11380399261E+03  0.17462757542E+03  0.24159133630E+03  0.87945054375E+02 0.  0.
        -11    1    3    3    0    0  0.93890852454E+01 -0.90095844586E+02 -0.90370372111E+02  0.12795397723E+03  0.00000000000E+00 0. -1.
         11    1    3    3    0    0  0.44410434705E+02 -0.17745552190E+01 -0.13585331040E+02  0.46475767626E+02  0.00000000000E+00 0.  1.
        -13    1    4    4    0    0 -0.95894798932E+02  0.63846836292E+02  0.11154161292E+03  0.16035511335E+03  0.00000000000E+00 0. -1.
         13    1    4    4    0    0  0.11125097081E+02  0.49957156318E+02  0.63085962508E+02  0.81236222943E+02  0.00000000000E+00 0.  1.
          3    1    1    2  501    0  0.30970181901E+02 -0.21933592804E+02  0.85077911530E+01  0.38892379339E+02  0.00000000000E+00 0. -1.
<scales pt_clust_5="13000.00000" pt_clust_6="13000.00000" pt_clust_7="13000.00000" pt_clust_8="13000.00000" pt_clust_9="37.95042"></scales>
<clustering>
<clus scale="   37.950">  1  9  2 -1</clus>
<clus scale="   87.945">  7  8 -1 -1</clus>
<clus scale="   91.019">  5  6 -1 -1</clus>
<clus scale="  142.004">  1  7  2 -1</clus>
<clus scale="   37.950">  1  5  2 -1</clus>
</clustering>
</event>
<event>
 9    1  0.1464797E-005  0.1673119E+03  0.7546771E-02  0.1181042E+00
         21   -1    0    0  501  502  0.00000000000E+00  0.00000000000E+00  0.16601484224E+03  0.16601484224E+03  0.00000000000E+00 0. -1.
          3   -1    0    0  502    0 -0.00000000000E+00 -0.00000000000E+00 -0.23023297569E+03  0.23023297569E+03  0.00000000000E+00 0. -1.
         23    2    1    2    0    0  0.94974598178E+02  0.88508001366E+02 -0.53232491644E+02  0.16817583104E+03  0.92712304327E+02 0.  0.
         23    2    1    2    0    0 -0.91190806035E+02 -0.12146587608E+03 -0.43143809080E+02  0.18186932127E+03  0.90251535169E+02 0.  0.
        -11    1    4    4    0    0 -0.58449559418E+01 -0.65944754994E+02 -0.44977850231E+02  0.80036749263E+02  0.00000000000E+00 0.  1.
         11    1    4    4    0    0 -0.85345850094E+02 -0.55521121087E+02  0.18340411513E+01  0.10183257201E+03  0.00000000000E+00 0. -1.
        -13    1    3    3    0    0  0.73400936635E+01  0.69105863292E+02 -0.28159195256E+02  0.74982915346E+02  0.00000000000E+00 0. -1.
         13    1    3    3    0    0  0.87634504515E+02  0.19402138074E+02 -0.25073296388E+02  0.93192915692E+02  0.00000000000E+00 0.  1.
          3    1    1    2  501    0 -0.37837921427E+01  0.32957874716E+02  0.32158167273E+02  0.46202665628E+02  0.00000000000E+00 0. -1.
<scales pt_clust_5="13000.00000" pt_clust_6="13000.00000" pt_clust_7="13000.00000" pt_clust_8="13000.00000" pt_clust_9="33.17437"></scales>
<clustering>
<clus scale="   33.174">  1  9  2 -1</clus>
<clus scale="   90.252">  5  6 -1 -1</clus>
<clus scale="   92.712">  7  8 -1 -1</clus>
<clus scale="  165.961">  1  5  2 -1</clus>
<clus scale="   33.174">  1  5  2 -1</clus>
</clustering>
</event>
<event>
 9    1  0.1464797E-005  0.1832153E+03  0.7546771E-02  0.1171035E+00
          1   -1    0    0  502    0 -0.00000000000E+00  0.00000000000E+00  0.60487897042E+03  0.60487897042E+03  0.00000000000E+00 0. -1.
         21   -1    0    0  501  502  0.00000000000E+00 -0.00000000000E+00 -0.90970797688E+02  0.90970797688E+02  0.00000000000E+00 0. -1.
         23    2    1    2    0    0  0.98640225946E+02 -0.11700617517E+03  0.41447515933E+03  0.45732341319E+03  0.11804536140E+03 0.  0.
         23    2    1    2    0    0 -0.43246696185E+02  0.11579645630E+03  0.11101048322E+03  0.18192295955E+03  0.74118417450E+02 0.  0.
        -13    1    4    4    0    0  0.31891966058E+01  0.23350952723E+02 -0.73844853512E+01  0.24697542225E+02  0.00000000000E+00 0. -1.
         13    1    4    4    0    0 -0.46435892791E+02  0.92445503574E+02  0.11839496857E+03  0.15722541733E+03  0.00000000000E+00 0.  1.
        -13    1    3    3    0    0  0.33872176963E+02 -0.80318196886E+01  0.14448662642E+02  0.37690825831E+02  0.00000000000E+00 0.  1.
         13    1    3    3    0    0  0.64768048983E+02 -0.10897435549E+03  0.40002649669E+03  0.41963258736E+03  0.00000000000E+00 0. -1.
          1    1    1    2  501    0 -0.55393529760E+02  0.12097188773E+01 -0.11577469819E+02  0.56603395362E+02  0.00000000000E+00 0. -1.
<scales pt_clust_5="13000.00000" pt_clust_6="13000.00000" pt_clust_7="13000.00000" pt_clust_8="13000.00000" pt_clust_9="55.40674"></scales>
<clustering>
<clus scale="   55.407">  2  9  1 -1</clus>
<clus scale="   74.118">  5  6 -1 -1</clus>
<clus scale="  118.045">  7  8 -1 -1</clus>
<clus scale="  158.514">  2  5  1 -1</clus>
<clus scale="   55.407">  2  5  1 -1</clus>
</clustering>
</event>
<event>
 9    1  0.1464797E-005  0.1358367E+03  0.7546771E-02  0.1233264E+00
         21   -1    0    0  501  502  0.00000000000E+00  0.00000000000E+00  0.49726747583E+03  0.49726747583E+03  0.00000000000E+00 0. -1.
          2   -1    0    0  502    0 -0.00000000000E+00 -0.00000000000E+00 -0.65885065028E+03  0.65885065028E+03  0.00000000000E+00 0. -1.
         23    2    1    2    0    0  0.40047780730E+02  0.45091404132E+01 -0.59365555732E+03  0.60219956139E+03  0.92699697459E+02 0.  0.
         23    2    1    2    0    0  0.63043708075E+02 -0.31891624647E+02  0.50013589133E+01  0.11372847509E+03  0.88980714796E+02 0.  0.
        -11    1    3    3    0    0 -0.81276583606E+01 -0.36758704571E+02 -0.22039132156E+03  0.22358353206E+03  0.00000000000E+00 0.  1.
         11    1    3    3    0    0  0.48175439091E+02  0.41267844984E+02 -0.37326423576E+03  0.37861602933E+03  0.00000000000E+00 0. -1.
        -13    1    4    4    0    0  0.59295681759E+02  0.16015086817E+02  0.17897725349E+02  0.63974912690E+02  0.00000000000E+00 0.  1.
         13    1    4    4    0    0  0.37480263157E+01 -0.47906711464E+02 -0.12896366435E+02  0.49753562403E+02  0.00000000000E+00 0. -1.
          2    1    1    2  501    0 -0.10309148880E+03  0.27382484234E+02  0.42707102395E+03  0.44019008963E+03  0.00000000000E+00 0. -1.
<scales pt_clust_5="13000.00000" pt_clust_6="13000.00000" pt_clust_7="13000.00000" pt_clust_8="13000.00000" pt_clust_9="102.63542"></scales>
<clustering>
<clus scale="   88.981">  7  8 -1 -1</clus>
<clus scale="   92.700">  5  6 -1 -1</clus>
<clus scale="  101.081">  2  5  1 -1</clus>
<clus scale="  102.635">  1  9  2 -1</clus>
<clus scale="  102.635">  1  5  2 -1</clus>
</clustering>
</event>
<event>
 9    1  0.1464797E-005  0.1224830E+03  0.7546771E-02  0.1239569E+00
          2   -1    0    0  502    0 -0.00000000000E+00  0.00000000000E+00  0.29501179958E+03  0.29501179958E+03  0.00000000000E+00 0. -1.
         21   -1    0    0  501  502  0.00000000000E+00 -0.00000000000E+00 -0.11278757814E+03  0.11278757814E+03  0.00000000000E+00 0.  1.
         23    2    1    2    0    0  0.21893547866E+02 -0.88024789371E+02  0.20770071570E+03  0.24460070105E+03  0.91990350944E+02 0.  0.
         23    2    1    2    0    0 -0.10473033358E+02  0.55863099181E+02  0.17712988788E+02  0.10815202452E+03  0.90292525484E+02 0.  0.
        -11    1    3    3    0    0  0.33319754009E+02 -0.56384377277E+02  0.47497904836E+02  0.80903986131E+02  0.00000000000E+00 0.  1.
         11    1    3    3    0    0 -0.11426206142E+02 -0.31640412094E+02  0.16020281087E+03  0.16369671491E+03  0.00000000000E+00 0. -1.
        -13    1    4    4    0    0 -0.32893574768E+02  0.71246630775E+02  0.19638026523E+02  0.80893273784E+02  0.00000000000E+00 0. -1.
         13    1    4    4    0    0  0.22420541410E+02 -0.15383531595E+02 -0.19250377349E+01  0.27258750737E+02  0.00000000000E+00 0.  1.
          2    1    1    2  501    0 -0.11420514509E+02  0.32161690190E+02 -0.43189483047E+02  0.55046652154E+02  0.00000000000E+00 0. -1.
<scales pt_clust_5="13000.00000" pt_clust_6="13000.00000" pt_clust_7="13000.00000" pt_clust_8="13000.00000" pt_clust_9="34.12920"></scales>
<clustering>
<clus scale="   34.129">  2  9  1 -1</clus>
<clus scale="   90.293">  7  8 -1 -1</clus>
<clus scale="   91.990">  5  6 -1 -1</clus>
<clus scale="  121.213">  2  7  1 -1</clus>
<clus scale="   34.129">  2  5  1 -1</clus>
</clustering>
</event>
<event>
 9    1  0.1464797E-005  0.9222314E+02  0.7546771E-02  0.1299414E+00
         -1   -1    0    0    0  501 -0.00000000000E+00  0.00000000000E+00  0.14220110053E+03  0.14220110053E+03  0.00000000000E+00 0.  1.
         21   -1    0    0  501  502  0.00000000000E+00 -0.00000000000E+00 -0.98128600524E+02  0.98128600524E+02  0.00000000000E+00 0. -1.
         23    2    1    2    0    0 -0.57527327348E+01 -0.13287845695E+02  0.64144391758E+02  0.10919126552E+03  0.87169769389E+02 0.  0.
         23    2    1    2    0    0 -0.77004906347E+01  0.28354185544E+02  0.93336487048E+01  0.95463940086E+02  0.90349263775E+02 0.  0.
        -11    1    4    4    0    0 -0.91831515792E+01  0.61311766846E+02  0.51591810729E+01  0.62209968462E+02  0.00000000000E+00 0.  1.
         11    1    4    4    0    0  0.14826609446E+01 -0.32957581302E+02  0.41744676318E+01  0.33253971624E+02  0.00000000000E+00 0. -1.
        -13    1    3    3    0    0 -0.19798542502E+02 -0.45288862333E+02  0.21091106973E+02  0.53739167559E+02  0.00000000000E+00 0. -1.
         13    1    3    3    0    0  0.14045809767E+02  0.32001016638E+02  0.43053284784E+02  0.55452097964E+02  0.00000000000E+00 0.  1.
         -1    1    1    2    0  502  0.13453223369E+02 -0.15066339849E+02 -0.29405540459E+02  0.35674495443E+02  0.00000000000E+00 0.  1.
<scales pt_clust_5="13000.00000" pt_clust_6="13000.00000" pt_clust_7="13000.00000" pt_clust_8="13000.00000" pt_clust_9="20.19861"></scales>
<clustering>
<clus scale="   20.199">  2  9  1 -1</clus>
<clus scale="   87.170">  7  8 -1 -1</clus>
<clus scale="   89.111">  1  7  2 -1</clus>
<clus scale="   90.349">  5  6 -1 -1</clus>
<clus scale="   20.199">  2  5  1 -1</clus>
</clustering>
</event>
<event>
 9    1  0.1464797E-005  0.1398455E+03  0.7546771E-02  0.1232882E+00
         21   -1    0    0  501  502  0.00000000000E+00  0.00000000000E+00  0.25038237940E+03  0.25038237940E+03  0.00000000000E+00 0.  1.
         -2   -1    0    0    0  501 -0.00000000000E+00 -0.00000000000E+00 -0.31547312980E+03  0.31547312980E+03  0.00000000000E+00 0.  1.
         23    2    1    2    0    0  0.19667729355E+02  0.11196972843E+02 -0.82417780621E+02  0.12453785258E+03  0.90580320074E+02 0.  0.
         23    2    1    2    0    0  0.10926565954E+02  0.88575655726E+02 -0.17774898637E+03  0.22008194394E+03  0.94214241289E+02 0.  0.
        -13    1    3    3    0    0 -0.24097609272E+02  0.43225599906E+01 -0.75910200781E+02  0.79760503258E+02  0.00000000000E+00 0.  1.
         13    1    3    3    0    0  0.43765338626E+02  0.68744128519E+01 -0.65075798401E+01  0.44777349324E+02  0.00000000000E+00 0. -1.
        -13    1    4    4    0    0  0.50892181088E+02  0.45980583065E+02 -0.73118761981E+02  0.10025258834E+03  0.00000000000E+00 0.  1.
         13    1    4    4    0    0 -0.39965615134E+02  0.42595072661E+02 -0.10463022439E+03  0.11982935560E+03  0.00000000000E+00 0. -1.
         -2    1    1    2    0  502 -0.30594295309E+02 -0.99772628569E+02  0.19507601659E+03  0.22123571268E+03  0.00000000000E+00 0.  1.
<scales pt_clust_5="13000.00000" pt_clust_6="13000.00000" pt_clust_7="13000.00000" pt_clust_8="13000.00000" pt_clust_9="103.34618"></scales>
<clustering>
<clus scale="   90.580">  5  6 -1 -1</clus>
<clus scale="   93.365">  2  5  1 -1</clus>
<clus scale="   94.214">  7  8 -1 -1</clus>
<clus scale="  103.346">  1  9  2 -1</clus>
<clus scale="  103.346">  1  5  2 -1</clus>
</clustering>
</event>
<event>
 9    1  0.1464797E-005  0.1379275E+03  0.7546771E-02  0.1216396E+00
          4   -1    0    0  502    0 -0.00000000000E+00  0.00000000000E+00  0.48666314430E+03  0.48666314430E+03  0.00000000000E+00 0. -1.
         21   -1    0    0  501  502  0.00000000000E+00 -0.00000000000E+00 -0.11082640860E+03  0.11082640860E+03  0.00000000000E+00 0.  1.
         23    2    1    2    0    0  0.74305646963E+02 -0.57603383329E+02  0.29680083952E+03  0.32466589077E+03  0.92074553176E+02 0.  0.
         23    2    1    2    0    0 -0.93483535933E+02  0.75483512388E+02  0.13986422799E+03  0.20658487900E+03  0.93157811407E+02 0.  0.
        -11    1    3    3    0    0  0.46970208534E+02  0.18666550696E+02  0.11745805662E+03  0.12787116825E+03  0.00000000000E+00 0. -1.
         11    1    3    3    0    0  0.27335438429E+02 -0.76269934024E+02  0.17934278291E+03  0.19679472252E+03  0.00000000000E+00 0.  1.
        -11    1    4    4    0    0 -0.24509831548E+02 -0.42072416830E+01 -0.69834775986E+01  0.25830247472E+02  0.00000000000E+00 0.  1.
         11    1    4    4    0    0 -0.68973704385E+02  0.79690754071E+02  0.14684770559E+03  0.18075463153E+03  0.00000000000E+00 0. -1.
          4    1    1    2  501    0  0.19177888970E+02 -0.17880129059E+02 -0.60828331812E+02  0.66238783138E+02  0.00000000000E+00 0. -1.
<scales pt_clust_5="13000.00000" pt_clust_6="13000.00000" pt_clust_7="13000.00000" pt_clust_8="13000.00000" pt_clust_9="26.22004"></scales>
<clustering>
<clus scale="   26.220">  2  9  1 -1</clus>
<clus scale="   92.075">  5  6 -1 -1</clus>
<clus scale="   93.158">  7  8 -1 -1</clus>
<clus scale="  137.198">  1  5  2 -1</clus>
<clus scale="   26.220">  2  5  1 -1</clus>
</clustering>
</event>
<event>
 9    1  0.1464797E-005  0.1399562E+03  0.7546771E-02  0.1213739E+00
          2   -1    0    0  502    0 -0.00000000000E+00  0.00000000000E+00  0.39366143939E+03  0.39366143939E+03  0.00000000000E+00 0. -1.
         21   -1    0    0  501  502  0.00000000000E+00 -0.00000000000E+00 -0.21837455835E+03  0.21837455835E+03  0.00000000000E+00 0. -1.
         23    2    1    2    0    0 -0.73618407895E+02 -0.82951105300E+02  0.34458557673E+03  0.37367123021E+03  0.92684479506E+02 0.  0.
         23    2    1    2    0    0  0.39131987447E+02  0.46120001777E+02 -0.78936378208E+02  0.13486987972E+03  0.91107440117E+02 0.  0.
        -11    1    4    4    0    0  0.94143930382E+01 -0.27777795833E+02 -0.26342161362E+02  0.39422661032E+02  0.00000000000E+00 0.  1.
         11    1    4    4    0    0  0.29717594409E+02  0.73897797610E+02 -0.52594216846E+02  0.95447218684E+02  0.00000000000E+00 0. -1.
        -13    1    3    3    0    0 -0.28765522817E+02 -0.93615992836E+02  0.24833079814E+03  0.26694492826E+03  0.00000000000E+00 0. -1.
         13    1    3    3    0    0 -0.44852885078E+02  0.10664887536E+02  0.96254778586E+02  0.10672630194E+03  0.00000000000E+00 0.  1.
          2    1    1    2  501    0  0.34486420448E+02  0.36831103524E+02 -0.90362317482E+02  0.10349488781E+03  0.00000000000E+00 0. -1.
<scales pt_clust_5="13000.00000" pt_clust_6="13000.00000" pt_clust_7="13000.00000" pt_clust_8="13000.00000" pt_clust_9="50.45635"></scales>
<clustering>
<clus scale="   50.456">  2  9  1 -1</clus>
<clus scale="   91.107">  5  6 -1 -1</clus>
<clus scale="   92.684">  7  8 -1 -1</clus>
<clus scale="  138.917">  2  5  1 -1</clus>
<clus scale="   50.456">  2  5  1 -1</clus>
</clustering>
</event>
<event>
 9    1  0.1464797E-005  0.9132371E+02  0.7546771E-02  0.1299902E+00
         21   -1    0    0  501  502  0.00000000000E+00  0.00000000000E+00  0.42096470762E+03  0.42096470762E+03  0.00000000000E+00 0.  1.
         -1   -1    0    0    0  501 -0.00000000000E+00 -0.00000000000E+00 -0.65278109660E+02  0.65278109660E+02  0.00000000000E+00 0.  1.
         23    2    1    2    0    0 -0.13959106865E+02  0.22905063709E+02 -0.32268808550E+01  0.93897842665E+02  0.89927156571E+02 0.  0.
         23    2    1    2    0    0 -0.22552353335E+01  0.30030414877E+02  0.15939863482E+03  0.18529125511E+03  0.89543355613E+02 0.  0.
        -11    1    4    4    0    0 -0.14232458910E+02 -0.27153142536E+02  0.28126171446E+02  0.41604537690E+02  0.00000000000E+00 0. -1.
         11    1    4    4    0    0  0.11977223576E+02  0.57183557413E+02  0.13127246338E+03  0.14368671742E+03  0.00000000000E+00 0.  1.
        -13    1    3    3    0    0  0.32472634758E+02  0.24500795211E+02 -0.18915141640E+02  0.44861381581E+02  0.00000000000E+00 0.  1.
         13    1    3    3    0    0 -0.46431741623E+02 -0.15957315012E+01  0.15688260785E+02  0.49036461084E+02  0.00000000000E+00 0. -1.
         -1    1    1    2    0  502  0.16214342199E+02 -0.52935478586E+02  0.19951484399E+03  0.20705371950E+03  0.00000000000E+00 0.  1.
<scales pt_clust_5="13000.00000" pt_clust_6="13000.00000" pt_clust_7="13000.00000" pt_clust_8="13000.00000" pt_clust_9="55.36307"></scales>
<clustering>
<clus scale="   55.363">  1  9  2 -1</clus>
<clus scale="   89.543">  5  6 -1 -1</clus>
<clus scale="   89.927">  7  8 -1 -1</clus>
<clus scale="   90.946">  1  5  2 -1</clus>
<clus scale="   55.363">  1  5  2 -1</clus>
</clustering>
</event>
<event>
 9    1  0.1464797E-005  0.1139100E+03  0.7546771E-02  0.1253567E+00
          3   -1    0    0  502    0 -0.00000000000E+00  0.00000000000E+00  0.53764761500E+02  0.53764761500E+02  0.00000000000E+00 0. -1.
         21   -1    0    0  501  502  0.00000000000E+00 -0.00000000000E+00 -0.50582726925E+03  0.50582726925E+03  0.00000000000E+00 0.  1.
         23    2    1    2    0    0  0.19416134508E+02 -0.81435583460E+02 -0.59608978173E+02  0.13733703097E+03  0.91101532724E+02 0.  0.
         23    2    1    2    0    0  0.12502137689E+01  0.25695457618E+02 -0.27182673020E+03  0.28777494807E+03  0.90900109502E+02 0.  0.
        -13    1    4    4    0    0  0.29371353702E+02  0.40771696320E+02 -0.89183343334E+02  0.10236540611E+03  0.00000000000E+00 0. -1.
         13    1    4    4    0    0 -0.28121139933E+02 -0.15076238701E+02 -0.18264338686E+03  0.18540954196E+03  0.00000000000E+00 0.  1.
        -13    1    3    3    0    0 -0.27720526296E+02 -0.21340300702E+01 -0.56717384717E+00  0.27808332359E+02  0.00000000000E+00 0. -1.
         13    1    3    3    0    0  0.47136660804E+02 -0.79301553390E+02 -0.59041804326E+02  0.10952869861E+03  0.00000000000E+00 0.  1.
          3    1    1    2  501    0 -0.20666348277E+02  0.55740125842E+02 -0.12062679938E+03  0.13448005171E+03  0.00000000000E+00 0. -1.
<scales pt_clust_5="13000.00000" pt_clust_6="13000.00000" pt_clust_7="13000.00000" pt_clust_8="13000.00000" pt_clust_9="59.44796"></scales>
<clustering>
<clus scale="   59.448">  2  9  1 -1</clus>
<clus scale="   90.900">  5  6 -1 -1</clus>
<clus scale="   91.102">  7  8 -1 -1</clus>
<clus scale="  113.749">  2  5  1 -1</clus>
<clus scale="   59.448">  2  5  1 -1</clus>
</clustering>
</event>
<event>
 9    1  0.1464797E-005  0.1139097E+03  0.7546771E-02  0.1254019E+00
         21   -1    0    0  501  502  0.00000000000E+00  0.00000000000E+00  0.72991883337E+02  0.72991883337E+02  0.00000000000E+00 0. -1.
         -1   -1    0    0    0  501 -0.00000000000E+00 -0.00000000000E+00 -0.29306610438E+03  0.29306610438E+03  0.00000000000E+00 0.  1.
         23    2    1    2    0    0 -0.51064986569E+02  0.90254150359E+01 -0.10415320712E+03  0.15028086949E+03  0.95117602009E+02 0.  0.
         23    2    1    2    0    0  0.79578573931E+02  0.36243937185E+02 -0.75815531541E+02  0.14891316208E+03  0.93705723441E+02 0.  0.
        -11    1    3    3    0    0  0.64531843983E+01 -0.34425126850E+02 -0.23875619712E+02  0.42388420166E+02  0.00000000000E+00 0. -1.
         11    1    3    3    0    0 -0.57518170967E+02  0.43450541886E+02 -0.80277587406E+02  0.10789244932E+03  0.00000000000E+00 0.  1.
        -13    1    4    4    0    0  0.47634260500E+02 -0.13241676232E+01 -0.86221804075E+02  0.98513835024E+02  0.00000000000E+00 0.  1.
         13    1    4    4    0    0  0.31944313430E+02  0.37568104808E+02  0.10406272534E+02  0.50399327054E+02  0.00000000000E+00 0. -1.
         -1    1    1    2    0  502 -0.28513587361E+02 -0.45269352221E+02 -0.40105482386E+02  0.66863956151E+02  0.00000000000E+00 0.  1.
<scales pt_clust_5="13000.00000" pt_clust_6="13000.00000" pt_clust_7="13000.00000" pt_clust_8="13000.00000" pt_clust_9="53.50083"></scales>
<clustering>
<clus scale="   53.501">  1  9  2 -1</clus>
<clus scale="   93.706">  7  8 -1 -1</clus>
<clus scale="   95.118">  5  6 -1 -1</clus>
<clus scale="  112.733">  1  7  2 -1</clus>
<clus scale="   53.501">  1  5  2 -1</clus>
</clustering>
</event>
<event>
 9    1  0.1464797E-005  0.1149244E+03  0.7546771E-02  0.1252698E+00
         21   -1    0    0  501  502  0.00000000000E+00  0.00000000000E+00  0.22791486248E+03  0.22791486248E+03  0.00000000000E+00 0. -1.
          1   -1    0    0  502    0 -0.00000000000E+00 -0.00000000000E+00 -0.18173548395E+03  0.18173548395E+03  0.00000000000E+00 0. -1.
         23    2    1    2    0    0  0.38759364709E+02 -0.50481224024E+02 -0.66662840758E+02  0.12958462178E+03  0.91091149586E+02 0.  0.
         23    2    1    2    0    0 -0.21834451889E+02  0.69014358141E+02 -0.40073979139E+02  0.12510349223E+03  0.93836213931E+02 0.  0.
        -11    1    4    4    0    0 -0.18748661671E+02  0.32931640875E+02 -0.69022495895E+02  0.78740778665E+02  0.00000000000E+00 0. -1.
         11    1    4    4    0    0 -0.30857902178E+01  0.36082717266E+02  0.28948516756E+02  0.46362713563E+02  0.00000000000E+00 0.  1.
        -13    1    3    3    0    0  0.12883024510E+01  0.24253775667E+02 -0.29175489127E+02  0.37962014213E+02  0.00000000000E+00 0.  1.
         13    1    3    3    0    0  0.37471062258E+02 -0.74734999690E+02 -0.37487351631E+02  0.91622607569E+02  0.00000000000E+00 0. -1.
          1    1    1    2  501    0 -0.16924912820E+02 -0.18533134117E+02  0.15291619843E+03  0.15496223242E+03  0.00000000000E+00 0. -1.
<scales pt_clust_5="13000.00000" pt_clust_6="13000.00000" pt_clust_7="13000.00000" pt_clust_8="13000.00000" pt_clust_9="25.09840"></scales>
<clustering>
<clus scale="   25.098">  1  9  2 -1</clus>
<clus scale="   91.091">  7  8 -1 -1</clus>
<clus scale="   93.836">  5  6 -1 -1</clus>
<clus scale="  112.694">  2  7  1 -1</clus>
<clus scale="   25.098">  1  5  2 -1</clus>
</clustering>
</event>
<event>
 9    1  0.1464797E-005  0.1498043E+03  0.7546771E-02  0.1207493E+00
          1   -1    0    0  502    0 -0.00000000000E+00  0.00000000000E+00  0.57386402242E+03  0.57386402242E+03  0.00000000000E+00 0. -1.
         21   -1    0    0  501  502  0.00000000000E+00 -0.00000000000E+00 -0.24886790169E+03  0.24886790169E+03  0.00000000000E+00 0. -1.
         23    2    1    2    0    0  0.71689649555E+02  0.10598719401E+01  0.20104489318E+03  0.23007205548E+03  0.85869508291E+02 0.  0.
         23    2    1    2    0    0 -0.13515337348E+03  0.16223593468E+02  0.33084154993E+03  0.37556549300E+03  0.11429640863E+03 0.  0.
        -13    1    3    3    0    0  0.10904226139E+02 -0.35977199055E+02  0.45551966394E+02  0.59061346428E+02  0.00000000000E+00 0. -1.
         13    1    3    3    0    0  0.60785423416E+02  0.37037070995E+02  0.15549292679E+03  0.17101070905E+03  0.00000000000E+00 0.  1.
        -13    1    4    4    0    0 -0.79659574824E+02  0.65803206449E+02  0.19384761031E+03  0.21966475790E+03  0.00000000000E+00 0.  1.
         13    1    4    4    0    0 -0.55493798656E+02 -0.49579612981E+02  0.13699393962E+03  0.15590073510E+03  0.00000000000E+00 0. -1.
          1    1    1    2  501    0  0.63463723924E+02 -0.17283465408E+02 -0.20689032239E+03  0.21709437562E+03  0.00000000000E+00 0. -1.
<scales pt_clust_5="13000.00000" pt_clust_6="13000.00000" pt_clust_7="13000.00000" pt_clust_8="13000.00000" pt_clust_9="65.77509"></scales>
<clustering>
<clus scale="   65.775">  2  9  1 -1</clus>
<clus scale="   85.870">  5  6 -1 -1</clus>
<clus scale="  114.296">  7  8 -1 -1</clus>
<clus scale="  129.427">  1  5  2 -1</clus>
<clus scale="   65.775">  2  5  1 -1</clus>
</clustering>
</event>
<event>
 9    1  0.1464797E-005  0.1287490E+03  0.7546771E-02  0.1230100E+00
         21   -1    0    0  501  502  0.00000000000E+00  0.00000000000E+00  0.30315328051E+03  0.30315328051E+03  0.00000000000E+00 0. -1.
          3   -1    0    0  502    0 -0.00000000000E+00 -0.00000000000E+00 -0.16988002680E+03  0.16988002680E+03  0.00000000000E+00 0. -1.
         23    2    1    2    0    0  0.76117940083E+02  0.31589585410E+02 -0.65630169313E+02  0.13815096231E+03  0.89367368513E+02 0.  0.
         23    2    1    2    0    0 -0.10392083172E+03 -0.21326061536E+02  0.70583359899E+01  0.14076156268E+03  0.92247803527E+02 0.  0.
        -13    1    3    3    0    0 -0.20056061488E+02  0.11774531800E+02 -0.10237623261E+02  0.25410512225E+02  0.00000000000E+00 0. -1.
         13    1    3    3    0    0  0.96174001571E+02  0.19815053610E+02 -0.55392546052E+02  0.11274045009E+03  0.00000000000E+00 0.  1.
        -13    1    4    4    0    0 -0.34290575728E+02  0.24215073831E+02  0.33232592636E+02  0.53540812450E+02  0.00000000000E+00 0.  1.
         13    1    4    4    0    0 -0.69630255996E+02 -0.45541135367E+02 -0.26174256646E+02  0.87220750235E+02  0.00000000000E+00 0. -1.
          3    1    1    2  501    0  0.27802891641E+02 -0.10263523874E+02  0.19184508703E+03  0.19412078231E+03  0.00000000000E+00 0. -1.
<scales pt_clust_5="13000.00000" pt_clust_6="13000.00000" pt_clust_7="13000.00000" pt_clust_8="13000.00000" pt_clust_9="29.63681"></scales>
<clustering>
<clus scale="   29.637">  1  9  2 -1</clus>
<clus scale="   89.367">  5  6 -1 -1</clus>
<clus scale="   92.248">  7  8 -1 -1</clus>
<clus scale="  126.701">  2  5  1 -1</clus>
<clus scale="   29.637">  1  5  2 -1</clus>
</clustering>
</event>
<event>
 9    1  0.1464797E-005  0.1634074E+03  0.7546771E-02  0.1198793E+00
         21   -1    0    0  501  502  0.00000000000E+00  0.00000000000E+00  0.16189620966E+03  0.16189620966E+03  0.00000000000E+00 0. -1.
          1   -1    0    0  502    0 -0.00000000000E+00 -0.00000000000E+00 -0.55470843341E+03  0.55470843341E+03  0.00000000000E+00 0. -1.
         23    2    1    2    0    0  0.26102134817E+02  0.73284591422E+02 -0.34978460985E+03  0.36990637055E+03  0.91812291677E+02 0.  0.
         23    2    1    2    0    0  0.10908088101E+03 -0.10078068624E+03 -0.96745680751E+02  0.19865735349E+03  0.89719741592E+02 0.  0.
        -11    1    4    4    0    0  0.77868241752E+02 -0.63873344635E+02 -0.12441575502E+02  0.10147935765E+03  0.00000000000E+00 0. -1.
         11    1    4    4    0    0  0.31212639263E+02 -0.36907341603E+02 -0.84304105249E+02  0.97177995842E+02  0.00000000000E+00 0.  1.
        -13    1    3    3    0    0  0.54428494275E+02  0.20912178252E+02 -0.13571346055E+03  0.14770891497E+03  0.00000000000E+00 0. -1.
         13    1    3    3    0    0 -0.28326359458E+02  0.52372413169E+02 -0.21407114930E+03  0.22219745558E+03  0.00000000000E+00 0.  1.
          1    1    1    2  501    0 -0.13518301583E+03  0.27496094817E+02  0.53718066858E+02  0.14804091903E+03  0.00000000000E+00 0. -1.
<scales pt_clust_5="13000.00000" pt_clust_6="13000.00000" pt_clust_7="13000.00000" pt_clust_8="13000.00000" pt_clust_9="136.57365"></scales>
<clustering>
<clus scale="   89.720">  5  6 -1 -1</clus>
<clus scale="   91.812">  7  8 -1 -1</clus>
<clus scale="  120.339">  2  7  1 -1</clus>
<clus scale="  136.574">  1  9  2 -1</clus>
<clus scale="  136.574">  1  5  2 -1</clus>
</clustering>
</event>
<event>
 9    1  0.1464797E-005  0.3541698E+03  0.7546771E-02  0.1060979E+00
         21   -1    0    0  501  502  0.00000000000E+00  0.00000000000E+00  0.68977831879E+03  0.68977831879E+03  0.00000000000E+00 0.  1.
         -2   -1    0    0    0  501 -0.00000000000E+00 -0.00000000000E+00 -0.34554070428E+03  0.34554070428E+03  0.00000000000E+00 0.  1.
         23    2    1    2    0    0  0.17126917654E+03 -0.28612026993E+03 -0.13247605575E+03  0.37102261404E+03  0.94392452483E+02 0.  0.
         23    2    1    2    0    0 -0.14307460948E+03  0.35014933281E+03  0.43069978109E+03  0.58055912640E+03  0.92041831115E+02 0.  0.
        -11    1    4    4    0    0 -0.33109571996E+02  0.68592945660E+02  0.38347243639E+02  0.85274539265E+02  0.00000000000E+00 0. -1.
         11    1    4    4    0    0 -0.10996503748E+03  0.28155638715E+03  0.39235253745E+03  0.49528458714E+03  0.00000000000E+00 0.  1.
        -11    1    3    3    0    0  0.79513088238E+02 -0.51740067399E+02 -0.36394390901E+02  0.10160668022E+03  0.00000000000E+00 0. -1.
         11    1    3    3    0    0  0.91756088305E+02 -0.23438020253E+03 -0.96081664852E+02  0.26941593383E+03  0.00000000000E+00 0.  1.
         -2    1    1    2    0  502 -0.28194567064E+02 -0.64029062881E+02  0.46013889175E+02  0.83737282631E+02  0.00000000000E+00 0.  1.
<scales pt_clust_5="13000.00000" pt_clust_6="13000.00000" pt_clust_7="13000.00000" pt_clust_8="13000.00000" pt_clust_9="69.96181"></scales>
<clustering>
<clus scale="   69.962">  1  9  2 -1</clus>
<clus scale="   92.042">  5  6 -1 -1</clus>
<clus scale="   94.392">  7  8 -1 -1</clus>
<clus scale="  353.551">  1  5  2 -1</clus>
<clus scale="   69.962">  1  5  2 -1</clus>
</clustering>
</event>
<event>
 9    1  0.1464797E-005  0.9584640E+02  0.7546771E-02  0.1290263E+00
         21   -1    0    0  501  502  0.00000000000E+00  0.00000000000E+00  0.53541439557E+02  0.53541439557E+02  0.00000000000E+00 0.  1.
          3   -1    0    0  502    0 -0.00000000000E+00 -0.00000000000E+00 -0.24982922562E+03  0.24982922562E+03  0.00000000000E+00 0. -1.
         23    2    1    2    0    0  0.18498950207E+02  0.31777671072E+02 -0.12176944013E+03  0.15620214092E+03  0.90660248970E+02 0.  0.
         23    2    1    2    0    0 -0.91046415580E+01 -0.64530630373E+01 -0.75856806473E+02  0.12012448085E+03  0.92472154133E+02 0.  0.
        -11    1    4    4    0    0  0.27477577857E+02  0.30140708235E+02 -0.26658189466E+02  0.48725133590E+02  0.00000000000E+00 0.  1.
         11    1    4    4    0    0 -0.36582219415E+02 -0.36593771272E+02 -0.49198617007E+02  0.71399347257E+02  0.00000000000E+00 0. -1.
        -11    1    3    3    0    0 -0.33260206731E+02 -0.49913679991E+01 -0.51385750112E+02  0.61413764100E+02  0.00000000000E+00 0. -1.
         11    1    3    3    0    0  0.51759156938E+02  0.36769039071E+02 -0.70383690013E+02  0.94788376825E+02  0.00000000000E+00 0.  1.
          3    1    1    2  501    0 -0.93943086489E+01 -0.25324608035E+02  0.13384605366E+01  0.27044043405E+02  0.00000000000E+00 0. -1.
<scales pt_clust_5="13000.00000" pt_clust_6="13000.00000" pt_clust_7="13000.00000" pt_clust_8="13000.00000" pt_clust_9="27.01090"></scales>
<clustering>
<clus scale="   27.011">  1  9  2 -1</clus>
<clus scale="   90.660">  7  8 -1 -1</clus>
<clus scale="   92.472">  5  6 -1 -1</clus>
<clus scale="   94.099">  2  7  1 -1</clus>
<clus scale="   27.011">  1  5  2 -1</clus>
</clustering>
</event>
<event>
 9    1  0.1464797E-005  0.1222598E+03  0.7546771E-02  0.1241675E+00
         -2   -1    0    0    0  501 -0.00000000000E+00  0.00000000000E+00  0.56904450321E+03  0.56904450321E+03  0.00000000000E+00 0.  1.
         21   -1    0    0  501  502  0.00000000000E+00 -0.00000000000E+00 -0.52741759446E+02  0.52741759446E+02  0.00000000000E+00 0. -1.
         23    2    1    2    0    0 -0.53090184843E+02  0.48340850125E+02  0.41200160683E+03  0.42880540027E+03  0.94727724312E+02 0.  0.
         23    2    1    2    0    0  0.72404084636E+02 -0.69747540163E+02  0.89574379820E+02  0.16060571020E+03  0.87541726045E+02 0.  0.
        -11    1    3    3    0    0 -0.74264097793E+02  0.40045070570E+02  0.38173181187E+03  0.39094493230E+03  0.00000000000E+00 0.  1.
         11    1    3    3    0    0  0.21173912950E+02  0.82957795541E+01  0.30269794962E+02  0.37860467972E+02  0.00000000000E+00 0. -1.
        -13    1    4    4    0    0  0.78325249510E+02 -0.32821809417E+02  0.29615318699E+02  0.89939885400E+02  0.00000000000E+00 0. -1.
         13    1    4    4    0    0 -0.59211648731E+01 -0.36925730746E+02  0.59959061121E+02  0.70665824803E+02  0.00000000000E+00 0.  1.
         -2    1    1    2    0  502 -0.19313899793E+02  0.21406690038E+02  0.14726757112E+02  0.32375152180E+02  0.00000000000E+00 0.  1.
<scales pt_clust_5="13000.00000" pt_clust_6="13000.00000" pt_clust_7="13000.00000" pt_clust_8="13000.00000" pt_clust_9="28.83181"></scales>
<clustering>
<clus scale="   28.832">  2  9  1 -1</clus>
<clus scale="   87.542">  7  8 -1 -1</clus>
<clus scale="   94.728">  5  6 -1 -1</clus>
<clus scale="  116.780">  2  7  1 -1</clus>
<clus scale="   28.832">  2  5  1 -1</clus>
</clustering>
</event>
<event>
 9    1  0.1464797E-005  0.9866690E+02  0.7546771E-02  0.1284495E+00
         21   -1    0    0  501  502  0.00000000000E+00  0.00000000000E+00  0.49628799954E+02  0.49628799954E+02  0.00000000000E+00 0. -1.
          2   -1    0    0  502    0 -0.00000000000E+00 -0.00000000000E+00 -0.41478910645E+03  0.41478910645E+03  0.00000000000E+00 0. -1.
         23    2    1    2    0    0 -0.33902065640E+02 -0.16040060873E+01 -0.26416672903E+03  0.28085159360E+03  0.89115846034E+02 0.  0.
         23    2    1    2    0    0  0.39534409940E+02 -0.42628692645E+02 -0.70823228484E+02  0.12972854820E+03  0.91833498891E+02 0.  0.
        -11    1    4    4    0    0 -0.80864869962E-02  0.27796984801E+02 -0.20897625488E+02  0.34776186974E+02  0.00000000000E+00 0.  1.
         11    1    4    4    0    0  0.39542496427E+02 -0.70425677446E+02 -0.49925602996E+02  0.94952361224E+02  0.00000000000E+00 0. -1.
        -11    1    3    3    0    0 -0.53355218928E+02  0.12458804583E+02 -0.24217834147E+03  0.24829891316E+03  0.00000000000E+00 0. -1.
         11    1    3    3    0    0  0.19453153288E+02 -0.14062810670E+02 -0.21988387556E+02  0.32552680444E+02  0.00000000000E+00 0.  1.
          2    1    1    2  501    0 -0.56323443002E+01  0.44232698733E+02 -0.30170348983E+02  0.53837764601E+02  0.00000000000E+00 0. -1.
<scales pt_clust_5="13000.00000" pt_clust_6="13000.00000" pt_clust_7="13000.00000" pt_clust_8="13000.00000" pt_clust_9="44.58985"></scales>
<clustering>
<clus scale="   44.590">  1  9  2 -1</clus>
<clus scale="   89.116">  7  8 -1 -1</clus>
<clus scale="   91.833">  5  6 -1 -1</clus>
<clus scale="   96.143">  2  7  1 -1</clus>
<clus scale="   44.590">  1  5  2 -1</clus>
</clustering>
</event>
<event>
 9    1  0.1464797E-005  0.1334183E+03  0.7546771E-02  0.1222542E+00
         -2   -1    0    0    0  501 -0.00000000000E+00  0.00000000000E+00  0.19587166941E+03  0.19587166941E+03  0.00000000000E+00 0.  1.
         21   -1    0    0  501  502  0.00000000000E+00 -0.00000000000E+00 -0.21085647875E+03  0.21085647875E+03  0.00000000000E+00 0. -1.
         23    2    1    2    0    0 -0.80721136111E+02  0.41361325675E+02  0.70548032654E+02  0.14626983991E+03  0.90505138411E+02 0.  0.
         23    2    1    2    0    0  0.11322341673E+03 -0.61098801127E+02 -0.12837955505E+03  0.20317125037E+03  0.90800006757E+02 0.  0.
        -13    1    4    4    0    0  0.54547280901E+02  0.89582237426E+01 -0.86486969965E+02  0.10264332224E+03  0.00000000000E+00 0.  1.
         13    1    4    4    0    0  0.58676135824E+02 -0.70057024870E+02 -0.41892585082E+02  0.10052792813E+03  0.00000000000E+00 0. -1.
        -13    1    3    3    0    0 -0.49532178672E+02  0.97058636414E+01  0.85581324360E+02  0.99356950398E+02  0.00000000000E+00 0.  1.
         13    1    3    3    0    0 -0.31188957439E+02  0.31655462034E+02 -0.15033291706E+02  0.46912889510E+02  0.00000000000E+00 0. -1.
         -2    1    1    2    0  502 -0.32502280615E+02  0.19737475452E+02  0.42846713052E+02  0.57287057890E+02  0.00000000000E+00 0.  1.
<scales pt_clust_5="13000.00000" pt_clust_6="13000.00000" pt_clust_7="13000.00000" pt_clust_8="13000.00000" pt_clust_9="38.02588"></scales>
<clustering>
<clus scale="   38.026">  2  9  1 -1</clus>
<clus scale="   90.505">  7  8 -1 -1</clus>
<clus scale="   90.800">  5  6 -1 -1</clus>
<clus scale="  133.218">  1  7  2 -1</clus>
<clus scale="   38.026">  2  5  1 -1</clus>
</clustering>
</event>
<event>
 9    1  0.1464797E-005  0.9867990E+02  0.7546771E-02  0.1283913E+00
         21   -1    0    0  501  502  0.00000000000E+00  0.00000000000E+00  0.50666885346E+02  0.50666885346E+02  0.00000000000E+00 0.  1.
          2   -1    0    0  502    0 -0.00000000000E+00 -0.00000000000E+00 -0.55431407695E+03  0.55431407695E+03  0.00000000000E+00 0. -1.
         23    2    1    2    0    0 -0.28434608028E+02  0.22973540629E+02 -0.45385963239E+03  0.46462465729E+03  0.92472675635E+02 0.  0.
         23    2    1    2    0    0  0.82511117826E-01 -0.28530719604E+02 -0.17140406329E+02  0.96760889786E+02  0.90856301343E+02 0.  0.
        -13    1    4    4    0    0 -0.44134703280E+02 -0.22200467059E+02 -0.14759515560E+01  0.49425815161E+02  0.00000000000E+00 0. -1.
         13    1    4    4    0    0  0.44217214398E+02 -0.63302525445E+01 -0.15664454773E+02  0.47335074625E+02  0.00000000000E+00 0.  1.
        -13    1    3    3    0    0 -0.14180129072E+02 -0.35798303437E+02 -0.19868345660E+03  0.20238011394E+03  0.00000000000E+00 0. -1.
         13    1    3    3    0    0 -0.14254478955E+02  0.58771844066E+02 -0.25517617579E+03  0.26224454335E+03  0.00000000000E+00 0.  1.
          2    1    1    2  501    0  0.28352096910E+02  0.55571789747E+01 -0.32647152882E+02  0.43595415226E+02  0.00000000000E+00 0. -1.
<scales pt_clust_5="13000.00000" pt_clust_6="13000.00000" pt_clust_7="13000.00000" pt_clust_8="13000.00000" pt_clust_9="28.89158"></scales>
<clustering>
<clus scale="   28.892">  1  9  2 -1</clus>
<clus scale="   90.856">  5  6 -1 -1</clus>
<clus scale="   92.473">  7  8 -1 -1</clus>
<clus scale="   97.167">  1  5  2 -1</clus>
<clus scale="   28.892">  1  5  2 -1</clus>
</clustering>
</event>
<event>
 9    1  0.1464797E-005  0.1612710E+03  0.7546771E-02  0.1201039E+00
         -1   -1    0    0    0  501 -0.00000000000E+00  0.00000000000E+00  0.50191288413E+03  0.50191288413E+03  0.00000000000E+00 0.  1.
         21   -1    0    0  501  502  0.00000000000E+00 -0.00000000000E+00 -0.16470006227E+03  0.16470006227E+03  0.00000000000E+00 0.  1.
         23    2    1    2    0    0  0.63333995842E+00  0.78414056196E+02  0.29137077283E+03  0.31481970516E+03  0.89807316896E+02 0.  0.
         23    2    1    2    0    0 -0.64902493161E+02  0.56687499552E+02  0.13036733754E+03  0.17995762556E+03  0.89237313245E+02 0.  0.
        -11    1    4    4    0    0 -0.64180287718E+01  0.33835697428E+02  0.10790955439E+03  0.11327187401E+03  0.00000000000E+00 0.  1.
         11    1    4    4    0    0 -0.58484464389E+02  0.22851802124E+02  0.22457783151E+02  0.66685751546E+02  0.00000000000E+00 0. -1.
        -11    1    3    3    0    0 -0.25815323101E+02 -0.71476240310E+01  0.41592292421E+02  0.49471590079E+02  0.00000000000E+00 0. -1.
         11    1    3    3    0    0  0.26448663060E+02  0.85561680227E+02  0.24977848041E+03  0.26534811508E+03  0.00000000000E+00 0.  1.
         -1    1    1    2    0  502  0.64269153203E+02 -0.13510155575E+03 -0.84525288517E+02  0.17183561568E+03  0.00000000000E+00 0.  1.
<scales pt_clust_5="13000.00000" pt_clust_6="13000.00000" pt_clust_7="13000.00000" pt_clust_8="13000.00000" pt_clust_9="134.33178"></scales>
<clustering>
<clus scale="   89.237">  5  6 -1 -1</clus>
<clus scale="   89.807">  7  8 -1 -1</clus>
<clus scale="  119.225">  1  7  2 -1</clus>
<clus scale="  134.332">  2  9  1 -1</clus>
<clus scale="  134.332">  2  5  1 -1</clus>
</clustering>
</event>
<event>
 9    1  0.1464797E-005  0.1083512E+03  0.7546771E-02  0.1263916E+00
         21   -1    0    0  501  502  0.00000000000E+00  0.00000000000E+00  0.41524767490E+03  0.41524767490E+03  0.00000000000E+00 0.  1.
          2   -1    0    0  502    0 -0.00000000000E+00 -0.00000000000E+00 -0.70481370040E+02  0.70481370040E+02  0.00000000000E+00 0.  1.
         23    2    1    2    0    0  0.57586758393E+02  0.12911748521E+02  0.31339658098E+01  0.10832795612E+03  0.90786432590E+02 0.  0.
         23    2    1    2    0    0 -0.64729573615E+02  0.22769292888E+02  0.30673773411E+03  0.32698492099E+03  0.90126259361E+02 0.  0.
        -13    1    3    3    0    0  0.79212357182E+02  0.23770427670E+02  0.96610326366E+01  0.83264436068E+02  0.00000000000E+00 0.  1.
         13    1    3    3    0    0 -0.21625598789E+02 -0.10858679149E+02 -0.65270668269E+01  0.25063520048E+02  0.00000000000E+00 0. -1.
        -13    1    4    4    0    0 -0.74260268434E+02  0.46491350964E+02  0.24295126488E+03  0.25826604556E+03  0.00000000000E+00 0.  1.
         13    1    4    4    0    0  0.95306948183E+01 -0.23722058076E+02  0.63786469235E+02  0.68718875432E+02  0.00000000000E+00 0. -1.
          2    1    1    2  501    0  0.71428152222E+01 -0.35681041409E+02  0.34894604937E+02  0.50416167834E+02  0.00000000000E+00 0.  1.
<scales pt_clust_5="13000.00000" pt_clust_6="13000.00000" pt_clust_7="13000.00000" pt_clust_8="13000.00000" pt_clust_9="36.38898"></scales>
<clustering>
<clus scale="   36.389">  1  9  2 -1</clus>
<clus scale="   90.126">  7  8 -1 -1</clus>
<clus scale="   90.786">  5  6 -1 -1</clus>
<clus scale="  107.799">  1  7  2 -1</clus>
<clus scale="   36.389">  1  5  2 -1</clus>
</clustering>
</event>
<event>
 9    1  0.1464797E-005  0.1182908E+03  0.7546771E-02  0.1247006E+00
          1   -1    0    0  502    0 -0.00000000000E+00  0.00000000000E+00  0.49175492126E+03  0.49175492126E+03  0.00000000000E+00 0. -1.
         21   -1    0    0  501  502  0.00000000000E+00 -0.00000000000E+00 -0.54368242420E+02  0.54368242420E+02  0.00000000000E+00 0. -1.
         23    2    1    2    0    0  0.58765642890E+02  0.50078205032E+02  0.27721424482E+03  0.30201193056E+03  0.91663740204E+02 0.  0.
         23    2    1    2    0    0 -0.61446661945E+02 -0.20579512548E+02  0.17628873524E+03  0.21039038073E+03  0.94800767556E+02 0.  0.
        -13    1    4    4    0    0 -0.12955347723E+02  0.36783114273E+02  0.71774824646E+02  0.81685151547E+02  0.00000000000E+00 0. -1.
         13    1    4    4    0    0 -0.48491314222E+02 -0.57362626821E+02  0.10451391059E+03  0.12870522918E+03  0.00000000000E+00 0.  1.
        -13    1    3    3    0    0  0.56179838035E+02  0.14500291790E+02  0.66302239454E+02  0.88104594774E+02  0.00000000000E+00 0.  1.
         13    1    3    3    0    0  0.25858048549E+01  0.35577913243E+02  0.21091200536E+03  0.21390733579E+03  0.00000000000E+00 0. -1.
          1    1    1    2  501    0  0.26810190553E+01 -0.29498692484E+02 -0.16116301213E+02  0.33720852395E+02  0.00000000000E+00 0. -1.
<scales pt_clust_5="13000.00000" pt_clust_6="13000.00000" pt_clust_7="13000.00000" pt_clust_8="13000.00000" pt_clust_9="29.62028"></scales>
<clustering>
<clus scale="   29.620">  2  9  1 -1</clus>
<clus scale="   91.664">  7  8 -1 -1</clus>
<clus scale="   94.801">  5  6 -1 -1</clus>
<clus scale="  115.792">  1  7  2 -1</clus>
<clus scale="   29.620">  2  5  1 -1</clus>
</clustering>
</event>
<event>
 9    1  0.1464797E-005  0.9640014E+02  0.7546771E-02  0.1288665E+00
         -3   -1    0    0    0  501 -0.00000000000E+00  0.00000000000E+00  0.51224105962E+03  0.51224105962E+03  0.00000000000E+00 0.  1.
         21   -1    0    0  501  502  0.00000000000E+00 -0.00000000000E+00 -0.33180086841E+02  0.33180086841E+02  0.00000000000E+00 0.  1.
         23    2    1    2    0    0  0.42748681535E+02  0.12392062104E+02  0.26788147675E+03  0.28715734601E+03  0.93369389017E+02 0.  0.
         23    2    1    2    0    0  0.82482444644E+01 -0.12795163129E+02  0.16409543262E+03  0.18885372929E+03  0.92231612384E+02 0.  0.
        -13    1    4    4    0    0  0.25237369255E+02  0.18900701586E+02  0.14449922599E+03  0.14789924827E+03  0.00000000000E+00 0.  1.
         13    1    4    4    0    0 -0.16989124791E+02 -0.31695864715E+02  0.19596206632E+02  0.40954481019E+02  0.00000000000E+00 0. -1.
        -13    1    3    3    0    0 -0.40225193843E-02  0.43207638338E+02  0.69001084885E+02  0.81412835243E+02  0.00000000000E+00 0. -1.
         13    1    3    3    0    0  0.42752704055E+02 -0.30815576234E+02  0.19888039186E+03  0.20574451076E+03  0.00000000000E+00 0.  1.
         -3    1    1    2    0  502 -0.50996926000E+02  0.40310102520E+00  0.47084063409E+02  0.69410071164E+02  0.00000000000E+00 0.  1.
<scales pt_clust_5="13000.00000" pt_clust_6="13000.00000" pt_clust_7="13000.00000" pt_clust_8="13000.00000" pt_clust_9="50.99852"></scales>
<clustering>
<clus scale="   50.999">  2  9  1 -1</clus>
<clus scale="   92.232">  5  6 -1 -1</clus>
<clus scale="   93.369">  7  8 -1 -1</clus>
<clus scale="   95.299">  2  5  1 -1</clus>
<clus scale="   50.999">  2  5  1 -1</clus>
</clustering>
</event>
<event>
 9    1  0.1464797E-005  0.1615959E+03  0.7546771E-02  0.1187339E+00
         21   -1    0    0  501  502  0.00000000000E+00  0.00000000000E+00  0.42806317736E+02  0.42806317736E+02  0.00000000000E+00 0. -1.
          1   -1    0    0  502    0 -0.00000000000E+00 -0.00000000000E+00 -0.11950135110E+04  0.11950135110E+04  0.00000000000E+00 0. -1.
         23    2    1    2    0    0  0.12431386797E+03 -0.48683901476E+01 -0.78753372484E+03  0.80233586081E+03  0.89754257753E+02 0.  0.
         23    2    1    2    0    0 -0.15832430699E+03  0.38023098819E+02 -0.31708102602E+03  0.36824569576E+03  0.92477960356E+02 0.  0.
        -13    1    3    3    0    0 -0.29230986326E+00  0.25028270007E+02 -0.11310910916E+03  0.11584545878E+03  0.00000000000E+00 0.  1.
         13    1    3    3    0    0  0.12460617783E+03 -0.29896660155E+02 -0.67442461568E+03  0.68649040203E+03  0.00000000000E+00 0. -1.
        -13    1    4    4    0    0 -0.37026024533E+02 -0.25367907124E+02 -0.44340527532E+02  0.63091517547E+02  0.00000000000E+00 0.  1.
         13    1    4    4    0    0 -0.12129828246E+03  0.63391005943E+02 -0.27274049849E+03  0.30515417821E+03  0.00000000000E+00 0. -1.
          1    1    1    2  501    0  0.34010439018E+02 -0.33154708672E+02 -0.47592442360E+02  0.67238272131E+02  0.00000000000E+00 0. -1.
<scales pt_clust_5="13000.00000" pt_clust_6="13000.00000" pt_clust_7="13000.00000" pt_clust_8="13000.00000" pt_clust_9="47.49679"></scales>
<clustering>
<clus scale="   47.497">  1  9  2 -1</clus>
<clus scale="   89.754">  5  6 -1 -1</clus>
<clus scale="   92.478">  7  8 -1 -1</clus>
<clus scale="  160.053">  2  5  1 -1</clus>
<clus scale="   47.497">  1  5  2 -1</clus>
</clustering>
</event>
<event>
 9    1  0.1464797E-005  0.1027851E+03  0.7546771E-02  0.1275851E+00
          4   -1    0    0  502    0 -0.00000000000E+00  0.00000000000E+00  0.20114314997E+03  0.20114314997E+03  0.00000000000E+00 0. -1.
         21   -1    0    0  501  502  0.00000000000E+00 -0.00000000000E+00 -0.11076005183E+03  0.11076005183E+03  0.00000000000E+00 0.  1.
         23    2    1    2    0    0 -0.33757937402E+02 -0.15358395838E+02  0.12033295716E+03  0.15625682885E+03  0.92524036465E+02 0.  0.
         23    2    1    2    0    0  0.66754035584E+02  0.30297708069E+02 -0.16501971435E+02  0.11700997528E+03  0.89693739314E+02 0.  0.
        -11    1    3    3    0    0 -0.65420034778E+02 -0.15625956665E+02  0.90465145835E+02  0.11272929558E+03  0.00000000000E+00 0. -1.
         11    1    3    3    0    0  0.31662097376E+02  0.26756082726E+00  0.29867811324E+02  0.43527533267E+02  0.00000000000E+00 0.  1.
        -13    1    4    4    0    0  0.10343427700E+02 -0.30765027106E+02 -0.11816406958E+01  0.32478757122E+02  0.00000000000E+00 0. -1.
         13    1    4    4    0    0  0.56410607884E+02  0.61062735175E+02 -0.15320330739E+02  0.84531218156E+02  0.00000000000E+00 0.  1.
          4    1    1    2  501    0 -0.32996098183E+02 -0.14939312231E+02 -0.13447887584E+02  0.38636397680E+02  0.00000000000E+00 0. -1.
<scales pt_clust_5="13000.00000" pt_clust_6="13000.00000" pt_clust_7="13000.00000" pt_clust_8="13000.00000" pt_clust_9="36.22051"></scales>
<clustering>
<clus scale="   36.221">  2  9  1 -1</clus>
<clus scale="   89.694">  7  8 -1 -1</clus>
<clus scale="   92.524">  5  6 -1 -1</clus>
<clus scale="  100.245">  2  7  1 -1</clus>
<clus scale="   36.221">  2  5  1 -1</clus>
</clustering>
</event>
