<event>
10    2  0.6640105E-006  0.1228664E+03  0.7546771E-02  0.1239638E+00
         21   -1    0    0  501  502  0.00000000000E+00  0.00000000000E+00  0.33011681480E+02  0.33011681480E+02  0.00000000000E+00 0. -1.
          2   -1    0    0  503    0 -0.00000000000E+00 -0.00000000000E+00 -0.10211064180E+04  0.10211064180E+04  0.00000000000E+00 0. -1.
         23    2    1    2    0    0 -0.70177912906E+02  0.21492728921E+02 -0.44760836064E+03  0.46328077439E+03  0.94281252348E+02 0.  0.
         23    2    1    2    0    0  0.83285520079E+02 -0.13979478228E+02 -0.48597300685E+03  0.50147122579E+03  0.90397584273E+02 0.  0.
        -11    1    3    3    0    0  0.37882479421E+01 -0.29030293952E+02 -0.13197525784E+03  0.13518349556E+03  0.00000000000E+00 0.  1.
         11    1    3    3    0    0 -0.73966160848E+02  0.50523022873E+02 -0.31563310280E+03  0.32809727883E+03  0.00000000000E+00 0. -1.
        -13    1    4    4    0    0  0.60519956784E+02 -0.45559456669E+02 -0.39978984583E+03  0.40690324414E+03  0.00000000000E+00 0. -1.
         13    1    4    4    0    0  0.22765563295E+02  0.31579978440E+02 -0.86183161020E+02  0.94567981652E+02  0.00000000000E+00 0.  1.
         21    1    1    2  503  502 -0.23087800281E+02 -0.33928424550E+02 -0.41184365028E+02  0.58140660790E+02  0.00000000000E+00 0. -1.
          2    1    1    2  501    0  0.99801931081E+01  0.26415173858E+02 -0.13329004047E+02  0.31225438560E+02  0.00000000000E+00 0. -1.
<scales pt_clust_5="13000.00000" pt_clust_6="13000.00000" pt_clust_7="13000.00000" pt_clust_8="13000.00000" pt_clust_9="31.45272" pt_clust_10="28.23766"></scales>
<clustering>
<clus scale="   28.238">  1 10  2 -1</clus>
<clus scale="   31.453">  1  9  2 -1</clus>
<clus scale="   90.398">  7  8 -1 -1</clus>
<clus scale="   94.281">  5  6 -1 -1</clus>
<clus scale="  119.912">  1  7  2 -1</clus>
<clus scale="   28.238">  1  5  2 -1</clus>
</clustering>
</event>
<event>
10    2  0.6640105E-006  0.1777072E+03  0.7546771E-02  0.1171253E+00
         21   -1    0    0  501  502  0.00000000000E+00  0.00000000000E+00  0.11185941048E+03  0.11185941048E+03  0.00000000000E+00 0. -1.
          1   -1    0    0  503    0 -0.00000000000E+00 -0.00000000000E+00 -0.12484370212E+04  0.12484370212E+04  0.00000000000E+00 0. -1.
         23    2    1    2    0    0  0.92431562089E+02  0.13939447898E+03 -0.97682241351E+03  0.99609449419E+03  0.10023871198E+03 0.  0.
         23    2    1    2    0    0 -0.51667262926E+02 -0.91359949087E+02 -0.22578587087E+03  0.26521908042E+03  0.91355102656E+02 0.  0.
        -11    1    3    3    0    0 -0.30130975597E+01  0.83997578498E+02 -0.46092033798E+03  0.46852132279E+03  0.00000000000E+00 0.  1.
         11    1    3    3    0    0  0.95444659649E+02  0.55396900482E+02 -0.51590207553E+03  0.52757317139E+03  0.00000000000E+00 0. -1.
        -13    1    4    4    0    0  0.19322244942E+02 -0.57120295667E+02 -0.95065800998E+02  0.11257701296E+03  0.00000000000E+00 0. -1.
         13    1    4    4    0    0 -0.70989507868E+02 -0.34239653420E+02 -0.13072006987E+03  0.15264206747E+03  0.00000000000E+00 0.  1.
         21    1    1    2  503  502  0.12703098449E+01 -0.26293249775E+02  0.21261305461E+02  0.33837727181E+02  0.00000000000E+00 0.  1.
          1    1    1    2  501    0 -0.42034609008E+02 -0.21741280118E+02  0.44769368209E+02  0.65145129867E+02  0.00000000000E+00 0. -1.
<scales pt_clust_5="13000.00000" pt_clust_6="13000.00000" pt_clust_7="13000.00000" pt_clust_8="13000.00000" pt_clust_9="26.32392" pt_clust_10="56.65397"></scales>
<clustering>
<clus scale="   26.324">  1  9  2 -1</clus>
<clus scale="   56.654">  1 10  2 -1</clus>
<clus scale="   91.355">  7  8 -1 -1</clus>
<clus scale="  100.239">  5  6 -1 -1</clus>
<clus scale="  172.852">  1  7  2 -1</clus>
<clus scale="   26.324">  1  5  2 -1</clus>
</clustering>
</event>
<event>
10    2  0.6640105E-006  0.2381141E+03  0.7546771E-02  0.1121085E+00
          1   -1    0    0  502    0 -0.00000000000E+00  0.00000000000E+00  0.24718519418E+03  0.24718519418E+03  0.00000000000E+00 0. -1.
         21   -1    0    0  503  502  0.00000000000E+00 -0.00000000000E+00 -0.59262778687E+03  0.59262778687E+03  0.00000000000E+00 0. -1.
         23    2    1    2    0    0 -0.13975063487E+03  0.13209153697E+03 -0.48034385934E+02  0.21773511466E+03  0.90126931822E+02 0.  0.
         23    2    1    2    0    0  0.23596676536E+03 -0.12082177392E+03 -0.80678408337E+02  0.29125063724E+03  0.89664445097E+02 0.  0.
        -13    1    4    4    0    0  0.94943978059E+02 -0.47164333756E+02 -0.78881213641E+02  0.13214037692E+03  0.00000000000E+00 0. -1.
         13    1    4    4    0    0  0.14102278730E+03 -0.73657440168E+02 -0.17971946969E+01  0.15911026032E+03  0.00000000000E+00 0.  1.
        -13    1    3    3    0    0 -0.49816765879E+02  0.79092210345E-01  0.33742183478E+01  0.49930970026E+02  0.00000000000E+00 0.  1.
         13    1    3    3    0    0 -0.89933868986E+02  0.13201244476E+03 -0.51408604282E+02  0.16780414464E+03  0.00000000000E+00 0. -1.
         21    1    1    2  503  501  0.43017774604E+02 -0.22310517183E+02 -0.17999800089E+03  0.18640699674E+03  0.00000000000E+00 0. -1.
          1    1    1    2  501    0 -0.13923390510E+03  0.11040754135E+02 -0.36731797532E+02  0.14442023241E+03  0.00000000000E+00 0. -1.
<scales pt_clust_5="13000.00000" pt_clust_6="13000.00000" pt_clust_7="13000.00000" pt_clust_8="13000.00000" pt_clust_9="48.45914" pt_clust_10="129.86079"></scales>
<clustering>
<clus scale="   48.459">  2  9  1 -1</clus>
<clus scale="   89.664">  5  6 -1 -1</clus>
<clus scale="   90.127">  7  8 -1 -1</clus>
<clus scale="  129.861">  2 10  1 -1</clus>
<clus scale="  237.939">  2  5  1 -1</clus>
<clus scale="   48.459">  2  5  1 -1</clus>
</clustering>
</event>
<event>
10    2  0.6640105E-006  0.1083934E+03  0.7546771E-02  0.1264444E+00
          1   -1    0    0  502    0 -0.00000000000E+00  0.00000000000E+00  0.22092315877E+03  0.22092315877E+03  0.00000000000E+00 0. -1.
         21   -1    0    0  503  502  0.00000000000E+00 -0.00000000000E+00 -0.92655462269E+02  0.92655462269E+02  0.00000000000E+00 0. -1.
         23    2    1    2    0    0 -0.21014574922E+02  0.55132059986E+02  0.61744249812E+02  0.12626985721E+03  0.93008430038E+02 0.  0.
         23    2    1    2    0    0  0.59864010620E+02 -0.22141798455E+02  0.27592364809E+02  0.11442753459E+03  0.90875536149E+02 0.  0.
        -11    1    4    4    0    0  0.22925316905E+02 -0.47820698053E+02 -0.12143010841E+02  0.54404430240E+02  0.00000000000E+00 0.  1.
         11    1    4    4    0    0  0.36938693715E+02  0.25678899598E+02  0.39735375650E+02  0.60023104351E+02  0.00000000000E+00 0. -1.
        -11    1    3    3    0    0 -0.38772984525E+02  0.72774847498E+02  0.58332301554E+02  0.10100584222E+03  0.00000000000E+00 0. -1.
         11    1    3    3    0    0  0.17758409603E+02 -0.17642787511E+02  0.34119482580E+01  0.25264014996E+02  0.00000000000E+00 0.  1.
         21    1    1    2  503  501 -0.12022485390E+02 -0.17770683018E+02 -0.20913446241E+01  0.21557157796E+02  0.00000000000E+00 0. -1.
          1    1    1    2  501    0 -0.26826950308E+02 -0.15219578513E+02  0.41022426503E+02  0.51324071439E+02  0.00000000000E+00 0. -1.
<scales pt_clust_5="13000.00000" pt_clust_6="13000.00000" pt_clust_7="13000.00000" pt_clust_8="13000.00000" pt_clust_9="21.45547" pt_clust_10="32.07437"></scales>
<clustering>
<clus scale="   21.455">  2  9  1 -1</clus>
<clus scale="   32.074">  2 10  1 -1</clus>
<clus scale="   90.876">  5  6 -1 -1</clus>
<clus scale="   93.008">  7  8 -1 -1</clus>
<clus scale="  106.569">  2  5  1 -1</clus>
<clus scale="   21.455">  2  5  1 -1</clus>
</clustering>
</event>
<event>
10    2  0.6640105E-006  0.2158195E+03  0.7546771E-02  0.1173586E+00
         21   -1    0    0  503  502  0.00000000000E+00  0.00000000000E+00  0.32240254356E+03  0.32240254356E+03  0.00000000000E+00 0. -1.
          1   -1    0    0  502    0 -0.00000000000E+00 -0.00000000000E+00 -0.66866801234E+03  0.66866801234E+03  0.00000000000E+00 0. -1.
         23    2    1    2    0    0 -0.20331474377E+02  0.12498281284E+02  0.93022734937E+02  0.13048524697E+03  0.88337956602E+02 0.  0.
         23    2    1    2    0    0  0.76237307025E+02 -0.54804718275E+02 -0.36075367123E+03  0.38354653072E+03  0.90272065406E+02 0.  0.
        -11    1    4    4    0    0  0.43532417340E+02 -0.76805952056E+02 -0.28171376733E+03  0.29522342782E+03  0.00000000000E+00 0. -1.
         11    1    4    4    0    0  0.32704889684E+02  0.22001233780E+02 -0.79039903903E+02  0.88323102901E+02  0.00000000000E+00 0.  1.
        -13    1    3    3    0    0  0.20521299623E+02  0.25846631095E+02  0.78440719315E+02  0.85100637623E+02  0.00000000000E+00 0. -1.
         13    1    3    3    0    0 -0.40852774000E+02 -0.13348349811E+02  0.14582015622E+02  0.45384609349E+02  0.00000000000E+00 0.  1.
         21    1    1    2  503  501 -0.21186337920E+03  0.10710577593E+03  0.74828557348E+02  0.24891173471E+03  0.00000000000E+00 0. -1.
          1    1    1    2  501    0  0.15595754655E+03 -0.64799338941E+02 -0.15336308983E+03  0.22812704350E+03  0.00000000000E+00 0. -1.
<scales pt_clust_5="13000.00000" pt_clust_6="13000.00000" pt_clust_7="13000.00000" pt_clust_8="13000.00000" pt_clust_9="215.81946" pt_clust_10="13000.00000"></scales>
<clustering>
<clus scale="   88.338">  7  8 -1 -1</clus>
<clus scale="   90.272">  5  6 -1 -1</clus>
<clus scale="   91.505">  2  7  1 -1</clus>
<clus scale="  120.797">  2  5  1 -1</clus>
<clus scale="  215.819">  1  9  2 -1</clus>
<clus scale="  215.819">  1  5  2 -1</clus>
</clustering>
</event>
<event>
10    2  0.6640105E-006  0.1669074E+03  0.7546771E-02  0.1205296E+00
         21   -1    0    0  501  502  0.00000000000E+00  0.00000000000E+00  0.41650878468E+03  0.41650878468E+03  0.00000000000E+00 0.  1.
          1   -1    0    0  503    0 -0.00000000000E+00 -0.00000000000E+00 -0.66542335859E+03  0.66542335859E+03  0.00000000000E+00 0. -1.
         23    2    1    2    0    0  0.21467577241E+02  0.29967345730E+02 -0.38262678317E+03  0.39494432360E+03  0.90657955340E+02 0.  0.
         23    2    1    2    0    0  0.10763885799E+03 -0.81729343648E+02 -0.20671869722E+03  0.26325835039E+03  0.91140166288E+02 0.  0.
        -11    1    4    4    0    0  0.53060340828E+02 -0.30039068852E+02 -0.23724701333E+02  0.65426346984E+02  0.00000000000E+00 0.  1.
         11    1    4    4    0    0  0.54578517161E+02 -0.51690274796E+02 -0.18299399588E+03  0.19783200341E+03  0.00000000000E+00 0. -1.
        -13    1    3    3    0    0 -0.22993548953E+02 -0.18859440971E+02 -0.15957617598E+03  0.16232355882E+03  0.00000000000E+00 0.  1.
         13    1    3    3    0    0  0.44461126194E+02  0.48826786701E+02 -0.22305060718E+03  0.23262076478E+03  0.00000000000E+00 0. -1.
         21    1    1    2  503  502 -0.16268353794E+03  0.26969691644E+02  0.34435901828E+03  0.38180679834E+03  0.00000000000E+00 0.  1.
          1    1    1    2  501    0  0.33577102708E+02  0.24792306274E+02 -0.39281118028E+01  0.41922670943E+02  0.00000000000E+00 0. -1.
<scales pt_clust_5="13000.00000" pt_clust_6="13000.00000" pt_clust_7="13000.00000" pt_clust_8="13000.00000" pt_clust_9="139.82684" pt_clust_10="41.73824"></scales>
<clustering>
<clus scale="   41.738">  1 10  2 -1</clus>
<clus scale="   90.658">  7  8 -1 -1</clus>
<clus scale="   91.140">  5  6 -1 -1</clus>
<clus scale="   98.100">  2  7  1 -1</clus>
<clus scale="  139.827">  1  9  2 -1</clus>
<clus scale="   41.738">  1  5  2 -1</clus>
</clustering>
</event>
<event>
10    2  0.6640105E-006  0.1194696E+03  0.7546771E-02  0.1246367E+00
         21   -1    0    0  503  502  0.00000000000E+00  0.00000000000E+00  0.97221416143E+02  0.97221416143E+02  0.00000000000E+00 0. -1.
          1   -1    0    0  502    0 -0.00000000000E+00 -0.00000000000E+00 -0.42339099334E+03  0.42339099334E+03  0.00000000000E+00 0. -1.
         23    2    1    2    0    0 -0.32791846874E+02  0.61674963451E+02 -0.82133321039E+02  0.14574299058E+03  0.98061361102E+02 0.  0.
         23    2    1    2    0    0 -0.35837817798E+02 -0.75172328620E+02 -0.79833885672E+02  0.14701655673E+03  0.91132817781E+02 0.  0.
        -11    1    3    3    0    0  0.19037606210E+02  0.49108208208E+02 -0.63148810871E+01  0.53046435193E+02  0.00000000000E+00 0.  1.
         11    1    3    3    0    0 -0.51829453084E+02  0.12566755243E+02 -0.75818439952E+02  0.92696555390E+02  0.00000000000E+00 0. -1.
        -11    1    4    4    0    0 -0.13893669735E+02 -0.76561109127E+02 -0.93100976716E+02  0.12133601837E+03  0.00000000000E+00 0.  1.
         11    1    4    4    0    0 -0.21944148063E+02  0.13887805068E+01  0.13267091044E+02  0.25680538356E+02  0.00000000000E+00 0. -1.
         21    1    1    2  503  501  0.30595330745E+02  0.14686516042E+02  0.20247445796E+02  0.39518692769E+02  0.00000000000E+00 0. -1.
          1    1    1    2  501    0  0.38034333927E+02 -0.11891508731E+01 -0.18444981628E+03  0.18833416940E+03  0.00000000000E+00 0. -1.
<scales pt_clust_5="13000.00000" pt_clust_6="13000.00000" pt_clust_7="13000.00000" pt_clust_8="13000.00000" pt_clust_9="33.93771" pt_clust_10="38.92431"></scales>
<clustering>
<clus scale="   33.938">  1  9  2 -1</clus>
<clus scale="   38.924">  1 10  2 -1</clus>
<clus scale="   91.133">  7  8 -1 -1</clus>
<clus scale="   98.061">  5  6 -1 -1</clus>
<clus scale="  113.851">  1  7  2 -1</clus>
<clus scale="   33.938">  1  5  2 -1</clus>
</clustering>
</event>
<event>
10    2  0.6640105E-006  0.1023583E+03  0.7546771E-02  0.1276282E+00
          1   -1    0    0  503    0 -0.00000000000E+00  0.00000000000E+00  0.31056563970E+03  0.31056563970E+03  0.00000000000E+00 0. -1.
         21   -1    0    0  501  502  0.00000000000E+00 -0.00000000000E+00 -0.11164010988E+03  0.11164010988E+03  0.00000000000E+00 0. -1.
         23    2    1    2    0    0  0.92897643741E+01  0.37431542914E+02  0.16847517924E+03  0.19519347700E+03  0.90714868218E+02 0.  0.
         23    2    1    2    0    0 -0.12172461235E+02 -0.61239965102E+02  0.13984483408E+02  0.11254401743E+03  0.92585570929E+02 0.  0.
        -13    1    3    3    0    0  0.49065969222E+02  0.21282229591E+02  0.72853352421E+02  0.90377063412E+02  0.00000000000E+00 0. -1.
         13    1    3    3    0    0 -0.39776204847E+02  0.16149313323E+02  0.95621826821E+02  0.10481641359E+03  0.00000000000E+00 0.  1.
        -13    1    4    4    0    0 -0.32710551760E+02 -0.44392720105E+02  0.45382708587E+02  0.71416272890E+02  0.00000000000E+00 0. -1.
         13    1    4    4    0    0  0.20538090525E+02 -0.16847244997E+02 -0.31398225178E+02  0.41127744538E+02  0.00000000000E+00 0.  1.
         21    1    1    2  503  502 -0.84875051889E+01 -0.43414292196E+02  0.13402612624E+02  0.46221948643E+02  0.00000000000E+00 0. -1.
          1    1    1    2  501    0  0.11370202050E+02  0.67222714384E+02  0.30632545449E+01  0.68246306510E+02  0.00000000000E+00 0. -1.
<scales pt_clust_5="13000.00000" pt_clust_6="13000.00000" pt_clust_7="13000.00000" pt_clust_8="13000.00000" pt_clust_9="44.23617" pt_clust_10="53.04453"></scales>
<clustering>
<clus scale="   44.236">  2  9  1 -1</clus>
<clus scale="   53.045">  2 10  1 -1</clus>
<clus scale="   90.715">  5  6 -1 -1</clus>
<clus scale="   92.586">  7  8 -1 -1</clus>
<clus scale="  100.669">  1  5  2 -1</clus>
<clus scale="   44.236">  2  5  1 -1</clus>
</clustering>
</event>
<event>
10    2  0.6640105E-006  0.1069693E+03  0.7546771E-02  0.1268616E+00
         21   -1    0    0  503  502  0.00000000000E+00  0.00000000000E+00  0.39890899108E+03  0.39890899108E+03  0.00000000000E+00 0.  1.
          3   -1    0    0  502    0 -0.00000000000E+00 -0.00000000000E+00 -0.65074293920E+02  0.65074293920E+02  0.00000000000E+00 0. -1.
         23    2    1    2    0    0  0.48408892352E+02  0.28993831377E+01  0.42612077536E+02  0.11251238845E+03  0.92148907330E+02 0.  0.
         23    2    1    2    0    0 -0.54245967647E+02 -0.56230590797E+02  0.13669742934E+03  0.17970197973E+03  0.86614721506E+02 0.  0.
        -11    1    4    4    0    0  0.22895292789E+02 -0.15445785579E+02  0.20532188854E+02  0.34414204962E+02  0.00000000000E+00 0. -1.
         11    1    4    4    0    0 -0.77141260435E+02 -0.40784805218E+02  0.11616524049E+03  0.14528777476E+03  0.00000000000E+00 0.  1.
        -11    1    3    3    0    0  0.25262050469E+02 -0.28687510802E+02  0.58804715063E+02  0.70136573794E+02  0.00000000000E+00 0.  1.
         11    1    3    3    0    0  0.23146841883E+02  0.31586893940E+02 -0.16192637527E+02  0.42375814659E+02  0.00000000000E+00 0. -1.
         21    1    1    2  503  501 -0.20218783427E+02  0.18967937279E+02  0.89888862632E+02  0.94066941447E+02  0.00000000000E+00 0.  1.
          3    1    1    2  501    0  0.26055858721E+02  0.34363270380E+02  0.64636327650E+02  0.77701975374E+02  0.00000000000E+00 0. -1.
<scales pt_clust_5="13000.00000" pt_clust_6="13000.00000" pt_clust_7="13000.00000" pt_clust_8="13000.00000" pt_clust_9="27.72331" pt_clust_10="44.26088"></scales>
<clustering>
<clus scale="   27.723">  1  9  2 -1</clus>
<clus scale="   44.261">  1 10  2 -1</clus>
<clus scale="   86.615">  5  6 -1 -1</clus>
<clus scale="   92.149">  7  8 -1 -1</clus>
<clus scale="  102.240">  1  5  2 -1</clus>
<clus scale="   27.723">  1  5  2 -1</clus>
</clustering>
</event>
<event>
10    2  0.6640105E-006  0.1441493E+03  0.7546771E-02  0.1219687E+00
         21   -1    0    0  501  502  0.00000000000E+00  0.00000000000E+00  0.62776314031E+03  0.62776314031E+03  0.00000000000E+00 0. -1.
          1   -1    0    0  503    0 -0.00000000000E+00 -0.00000000000E+00 -0.25910517986E+03  0.25910517986E+03  0.00000000000E+00 0. -1.
         23    2    1    2    0    0 -0.14287177007E+00  0.67953093024E+02 -0.75045783551E+02  0.13463641978E+03  0.88755014725E+02 0.  0.
         23    2    1    2    0    0  0.84498707043E+02  0.93253405026E+01 -0.10022089087E+03  0.15975304387E+03  0.90828489981E+02 0.  0.
        -11    1    4    4    0    0  0.49672087465E+02 -0.23439783547E+02 -0.75080345461E+01  0.55435641140E+02  0.00000000000E+00 0.  1.
         11    1    4    4    0    0  0.34826619578E+02  0.32765124050E+02 -0.92712856321E+02  0.10431740273E+03  0.00000000000E+00 0. -1.
        -13    1    3    3    0    0 -0.40149723865E+02  0.56997740899E+02 -0.40310838474E+02  0.80533884127E+02  0.00000000000E+00 0. -1.
         13    1    3    3    0    0  0.40006852095E+02  0.10955352125E+02 -0.34734945077E+02  0.54102535654E+02  0.00000000000E+00 0.  1.
         21    1    1    2  503  502 -0.11844557841E+03 -0.88852250240E+02  0.53537977671E+03  0.55547779679E+03  0.00000000000E+00 0. -1.
          1    1    1    2  501    0  0.34089743134E+02  0.11573816713E+02  0.85448581609E+01  0.37001059732E+02  0.00000000000E+00 0. -1.
<scales pt_clust_5="13000.00000" pt_clust_6="13000.00000" pt_clust_7="13000.00000" pt_clust_8="13000.00000" pt_clust_9="111.93390" pt_clust_10="36.00090"></scales>
<clustering>
<clus scale="   36.001">  1 10  2 -1</clus>
<clus scale="   88.755">  7  8 -1 -1</clus>
<clus scale="   90.828">  5  6 -1 -1</clus>
<clus scale="  112.139">  2  7  1 -1</clus>
<clus scale="  111.934">  1  9  2 -1</clus>
<clus scale="   36.001">  1  5  2 -1</clus>
</clustering>
</event>
<event>
10    2  0.6640105E-006  0.1310267E+03  0.7546771E-02  0.1226364E+00
         21   -1    0    0  501  502  0.00000000000E+00  0.00000000000E+00  0.22549155091E+03  0.22549155091E+03  0.00000000000E+00 0. -1.
          1   -1    0    0  503    0 -0.00000000000E+00 -0.00000000000E+00 -0.27947503182E+03  0.27947503182E+03  0.00000000000E+00 0. -1.
         23    2    1    2    0    0 -0.88167042160E+02  0.20941034065E+02 -0.15997753465E+03  0.20545923605E+03  0.91699137687E+02 0.  0.
         23    2    1    2    0    0  0.96509958637E+02 -0.30027942528E+02 -0.25745672762E+02  0.13779551615E+03  0.90049515029E+02 0.  0.
        -11    1    4    4    0    0  0.49607821368E+02 -0.47126093084E+02 -0.47546347774E+02  0.83321424477E+02  0.00000000000E+00 0. -1.
         11    1    4    4    0    0  0.46902137269E+02  0.17098150556E+02  0.21800675012E+02  0.54474091675E+02  0.00000000000E+00 0.  1.
        -13    1    3    3    0    0 -0.76800176167E+02  0.53686837514E+02 -0.12492177474E+03  0.15616015300E+03  0.00000000000E+00 0. -1.
         13    1    3    3    0    0 -0.11366865994E+02 -0.32745803449E+02 -0.35055759915E+02  0.49299083047E+02  0.00000000000E+00 0.  1.
         21    1    1    2  503  502  0.34489760094E+02  0.24500405650E+02  0.35416749080E+02  0.55173902742E+02  0.00000000000E+00 0. -1.
          1    1    1    2  501    0 -0.42832676570E+02 -0.15413497187E+02  0.96322977421E+02  0.10653792779E+03  0.00000000000E+00 0. -1.
<scales pt_clust_5="13000.00000" pt_clust_6="13000.00000" pt_clust_7="13000.00000" pt_clust_8="13000.00000" pt_clust_9="42.30619" pt_clust_10="23.47491"></scales>
<clustering>
<clus scale="   42.306">  1  9  2 -1</clus>
<clus scale="   23.475">  1 10  2 -1</clus>
<clus scale="   90.050">  5  6 -1 -1</clus>
<clus scale="   91.699">  7  8 -1 -1</clus>
<clus scale="  129.878">  1  5  2 -1</clus>
<clus scale="   42.306">  1  5  2 -1</clus>
</clustering>
</event>
<event>
10    2  0.6640105E-006  0.1556358E+03  0.7546771E-02  0.1208887E+00
         -1   -1    0    0    0  501 -0.00000000000E+00  0.00000000000E+00  0.14144002459E+04  0.14144002459E+04  0.00000000000E+00 0.  1.
         21   -1    0    0  503  502  0.00000000000E+00 -0.00000000000E+00 -0.67708564613E+02  0.67708564613E+02  0.00000000000E+00 0. -1.
         23    2    1    2    0    0  0.11447502850E+02 -0.83882078321E+02  0.27254154770E+03  0.29538533329E+03  0.76199419373E+02 0.  0.
         23    2    1    2    0    0 -0.16919852114E+03 -0.57811023143E+02  0.24415448774E+03  0.31610063574E+03  0.91312343542E+02 0.  0.
        -11    1    4    4    0    0 -0.53186008711E+02 -0.35623581957E+02  0.15628133084E+03  0.16888352638E+03  0.00000000000E+00 0.  1.
         11    1    4    4    0    0 -0.11601251242E+03 -0.22187441187E+02  0.87873156898E+02  0.14721710936E+03  0.00000000000E+00 0. -1.
        -13    1    3    3    0    0  0.21363816663E+02 -0.26216265970E+02  0.19675064334E+03  0.19963597101E+03  0.00000000000E+00 0.  1.
         13    1    3    3    0    0 -0.99163138129E+01 -0.57665812351E+02  0.75790904359E+02  0.95749362282E+02  0.00000000000E+00 0. -1.
         21    1    1    2  503  501  0.61893058904E+02  0.10308598533E+03  0.20926600320E+03  0.24134981088E+03  0.00000000000E+00 0. -1.
         -1    1    1    2    0  502  0.95857959383E+02  0.38607116130E+02  0.62072964263E+03  0.62927303060E+03  0.00000000000E+00 0.  1.
<scales pt_clust_5="13000.00000" pt_clust_6="13000.00000" pt_clust_7="13000.00000" pt_clust_8="13000.00000" pt_clust_9="126.03399" pt_clust_10="103.34055"></scales>
<clustering>
<clus scale="   76.199">  7  8 -1 -1</clus>
<clus scale="   91.312">  5  6 -1 -1</clus>
<clus scale="  103.341">  2 10  1 -1</clus>
<clus scale="  112.021">  1  7  2 -1</clus>
<clus scale="  126.034">  1  9  2 -1</clus>
<clus scale="  103.341">  2  5  1 -1</clus>
</clustering>
</event>
<event>
10    2  0.6640105E-006  0.2004503E+03  0.7546771E-02  0.1170976E+00
         -1   -1    0    0    0  501 -0.00000000000E+00  0.00000000000E+00  0.56896316876E+03  0.56896316876E+03  0.00000000000E+00 0.  1.
         21   -1    0    0  503  502  0.00000000000E+00 -0.00000000000E+00 -0.32071839908E+03  0.32071839908E+03  0.00000000000E+00 0. -1.
         23    2    1    2    0    0 -0.56518415824E+02  0.63470137911E+02  0.28455188677E+03  0.30963130767E+03  0.87629793390E+02 0.  0.
         23    2    1    2    0    0  0.12817035235E+02  0.13932461093E+03  0.11684546126E+03  0.20352973861E+03  0.90531039311E+02 0.  0.
        -11    1    4    4    0    0 -0.33981401494E+02  0.28258187799E+02  0.45697857557E+02  0.63573225578E+02  0.00000000000E+00 0.  1.
         11    1    4    4    0    0  0.46798436728E+02  0.11106642313E+03  0.71147603704E+02  0.13995651303E+03  0.00000000000E+00 0. -1.
        -13    1    3    3    0    0  0.22865157822E+02  0.17260854117E+02  0.48380613576E+02  0.56226651128E+02  0.00000000000E+00 0. -1.
         13    1    3    3    0    0 -0.79383573646E+02  0.46209283794E+02  0.23617127320E+03  0.25340465654E+03  0.00000000000E+00 0.  1.
         21    1    1    2  503  501  0.27742193085E+02  0.38750705794E+01 -0.16646790526E+03  0.16880820161E+03  0.00000000000E+00 0. -1.
         -1    1    1    2    0  502  0.15959187504E+02 -0.20666981942E+03  0.13315326908E+02  0.20771231994E+03  0.00000000000E+00 0.  1.
<scales pt_clust_5="13000.00000" pt_clust_6="13000.00000" pt_clust_7="13000.00000" pt_clust_8="13000.00000" pt_clust_9="28.01152" pt_clust_10="178.84193"></scales>
<clustering>
<clus scale="   28.012">  2  9  1 -1</clus>
<clus scale="   87.630">  7  8 -1 -1</clus>
<clus scale="   90.531">  5  6 -1 -1</clus>
<clus scale="  121.204">  1  7  2 -1</clus>
<clus scale="  178.842">  2 10  1 -1</clus>
<clus scale="   28.012">  2  5  1 -1</clus>
</clustering>
</event>
<event>
10    2  0.6640105E-006  0.1437865E+03  0.7546771E-02  0.1209263E+00
          3   -1    0    0  503    0 -0.00000000000E+00  0.00000000000E+00  0.56338047736E+03  0.56338047736E+03  0.00000000000E+00 0. -1.
         21   -1    0    0  501  502  0.00000000000E+00 -0.00000000000E+00 -0.15855448541E+03  0.15855448541E+03  0.00000000000E+00 0. -1.
         23    2    1    2    0    0 -0.11853839686E+02  0.10937657116E+03  0.41881853436E+03  0.44221519214E+03  0.89674765674E+02 0.  0.
         23    2    1    2    0    0  0.77484961337E+02 -0.16408238921E+02 -0.41803735131E+02  0.12991320703E+03  0.94110252114E+02 0.  0.
        -11    1    4    4    0    0  0.77769729172E+02  0.24740497041E+02 -0.31623129863E+02  0.87522827375E+02  0.00000000000E+00 0.  1.
         11    1    4    4    0    0 -0.28476783504E+00 -0.41148735962E+02 -0.10180605268E+02  0.42390379659E+02  0.00000000000E+00 0. -1.
        -13    1    3    3    0    0  0.10609132753E+02  0.59460469596E+02  0.34537944476E+03  0.35062096630E+03  0.00000000000E+00 0. -1.
         13    1    3    3    0    0 -0.22462972439E+02  0.49916101567E+02  0.73439089599E+02  0.91594225842E+02  0.00000000000E+00 0.  1.
         21    1    1    2  503  502 -0.21638498962E+02  0.13698437648E+02  0.22842618709E+02  0.34317008331E+02  0.00000000000E+00 0. -1.
          3    1    1    2  501    0 -0.43992622689E+02 -0.10666676989E+03  0.49685740106E+01  0.11548955527E+03  0.00000000000E+00 0. -1.
<scales pt_clust_5="13000.00000" pt_clust_6="13000.00000" pt_clust_7="13000.00000" pt_clust_8="13000.00000" pt_clust_9="25.60999" pt_clust_10="114.92071"></scales>
<clustering>
<clus scale="   25.610">  1  9  2 -1</clus>
<clus scale="   89.675">  7  8 -1 -1</clus>
<clus scale="   94.110">  5  6 -1 -1</clus>
<clus scale="  114.921">  2 10  1 -1</clus>
<clus scale="  140.923">  1  7  2 -1</clus>
<clus scale="  114.921">  2  5  1 -1</clus>
</clustering>
</event>
<event>
10    2  0.6640105E-006  0.2436321E+03  0.7546771E-02  0.1117916E+00
         21   -1    0    0  501  502  0.00000000000E+00  0.00000000000E+00  0.31493164407E+03  0.31493164407E+03  0.00000000000E+00 0. -1.
          1   -1    0    0  503    0 -0.00000000000E+00 -0.00000000000E+00 -0.30461808220E+03  0.30461808220E+03  0.00000000000E+00 0. -1.
         23    2    1    2    0    0 -0.97047720441E+02  0.19709226245E+03 -0.10303429782E+03  0.25792153404E+03  0.87429006817E+02 0.  0.
         23    2    1    2    0    0  0.10051706175E+03 -0.21046089621E+03  0.68168844758E+02  0.26118386252E+03  0.95773431127E+02 0.  0.
        -11    1    3    3    0    0 -0.65269616904E+02  0.17270215956E+03 -0.49659649074E+02  0.19118640002E+03  0.00000000000E+00 0. -1.
         11    1    3    3    0    0 -0.31778103537E+02  0.24390102891E+02 -0.53374648747E+02  0.66735134018E+02  0.00000000000E+00 0.  1.
        -13    1    4    4    0    0  0.58748927402E+02 -0.62644366626E+02 -0.13947709354E+02  0.87007423459E+02  0.00000000000E+00 0.  1.
         13    1    4    4    0    0  0.41768134345E+02 -0.14781652958E+03  0.82116554112E+02  0.17417643906E+03  0.00000000000E+00 0. -1.
         21    1    1    2  503  502 -0.19997853531E+02 -0.33073800483E+02  0.29803656060E+02  0.48806232582E+02  0.00000000000E+00 0.  1.
          1    1    1    2  501    0  0.16528512226E+02  0.46442434242E+02  0.15375358878E+02  0.51638097131E+02  0.00000000000E+00 0. -1.
<scales pt_clust_5="13000.00000" pt_clust_6="13000.00000" pt_clust_7="13000.00000" pt_clust_8="13000.00000" pt_clust_9="38.64959" pt_clust_10="44.70288"></scales>
<clustering>
<clus scale="   38.650">  1  9  2 -1</clus>
<clus scale="   44.703">  1 10  2 -1</clus>
<clus scale="   87.429">  5  6 -1 -1</clus>
<clus scale="   95.773">  7  8 -1 -1</clus>
<clus scale="  240.474">  2  5  1 -1</clus>
<clus scale="   38.650">  1  5  2 -1</clus>
</clustering>
</event>
<event>
10    2  0.6640105E-006  0.1036931E+03  0.7546771E-02  0.1273733E+00
          1   -1    0    0  503    0 -0.00000000000E+00  0.00000000000E+00  0.50544917867E+03  0.50544917867E+03  0.00000000000E+00 0. -1.
         21   -1    0    0  501  502  0.00000000000E+00 -0.00000000000E+00 -0.61671476144E+02  0.61671476144E+02  0.00000000000E+00 0. -1.
         23    2    1    2    0    0 -0.44845569678E+02  0.28273707469E+02  0.17115960933E+03  0.20090130972E+03  0.90858113158E+02 0.  0.
         23    2    1    2    0    0  0.55269240167E+02  0.52043049019E+02  0.16213666728E+03  0.19973485884E+03  0.88558156590E+02 0.  0.
        -11    1    3    3    0    0 -0.13165045151E+01 -0.28968414704E+02  0.26186148126E+02  0.39071941189E+02  0.00000000000E+00 0.  1.
         11    1    3    3    0    0 -0.43529065163E+02  0.57242122173E+02  0.14497346120E+03  0.16182936853E+03  0.00000000000E+00 0. -1.
        -13    1    4    4    0    0  0.35151661935E+02 -0.14697258909E+02  0.24062538556E+02  0.45062784180E+02  0.00000000000E+00 0.  1.
         13    1    4    4    0    0  0.20117578232E+02  0.66740307928E+02  0.13807412873E+03  0.15467207466E+03  0.00000000000E+00 0. -1.
         21    1    1    2  503  502 -0.24910191327E+02  0.25139719870E+01 -0.30307257160E+01  0.25219496139E+02  0.00000000000E+00 0.  1.
          1    1    1    2  501    0  0.14486520839E+02 -0.82830728475E+02  0.11351215163E+03  0.14126499012E+03  0.00000000000E+00 0. -1.
<scales pt_clust_5="13000.00000" pt_clust_6="13000.00000" pt_clust_7="13000.00000" pt_clust_8="13000.00000" pt_clust_9="25.03673" pt_clust_10="82.41359"></scales>
<clustering>
<clus scale="   25.037">  2  9  1 -1</clus>
<clus scale="   82.414">  2 10  1 -1</clus>
<clus scale="   88.558">  7  8 -1 -1</clus>
<clus scale="   90.858">  5  6 -1 -1</clus>
<clus scale="  101.684">  2  7  1 -1</clus>
<clus scale="   25.037">  2  5  1 -1</clus>
</clustering>
</event>
<event>
10    2  0.6640105E-006  0.1143457E+03  0.7546771E-02  0.1253995E+00
          1   -1    0    0  503    0 -0.00000000000E+00  0.00000000000E+00  0.74906883084E+03  0.74906883084E+03  0.00000000000E+00 0. -1.
         21   -1    0    0  501  502  0.00000000000E+00 -0.00000000000E+00 -0.21934057950E+03  0.21934057950E+03  0.00000000000E+00 0. -1.
         23    2    1    2    0    0  0.28427162412E+02 -0.80733914566E+02  0.44811131814E+03  0.46497305940E+03  0.89833868854E+02 0.  0.
         23    2    1    2    0    0  0.18275587711E+02  0.46557582477E+02  0.18840110235E+03  0.21612199103E+03  0.93338813196E+02 0.  0.
        -11    1    3    3    0    0  0.60153033615E+02 -0.39129026290E+02  0.25850525806E+03  0.26828051848E+03  0.00000000000E+00 0. -1.
         11    1    3    3    0    0 -0.31725871203E+02 -0.41604888276E+02  0.18960606009E+03  0.19669254092E+03  0.00000000000E+00 0.  1.
        -11    1    4    4    0    0 -0.26017628283E+02  0.30607079319E+02  0.28029612394E+02  0.48983358980E+02  0.00000000000E+00 0.  1.
         11    1    4    4    0    0  0.44293215994E+02  0.15950503158E+02  0.16037148995E+03  0.16713863205E+03  0.00000000000E+00 0. -1.
         21    1    1    2  503  502 -0.26564405103E+02  0.49178422110E+01  0.86589269992E+02  0.90705867882E+02  0.00000000000E+00 0. -1.
          1    1    1    2  501    0 -0.20138345020E+02  0.29258489878E+02 -0.19337343915E+03  0.19660849203E+03  0.00000000000E+00 0. -1.
<scales pt_clust_5="13000.00000" pt_clust_6="13000.00000" pt_clust_7="13000.00000" pt_clust_8="13000.00000" pt_clust_9="27.01579" pt_clust_10="35.56602"></scales>
<clustering>
<clus scale="   27.016">  1  9  2 -1</clus>
<clus scale="   35.566">  2 10  1 -1</clus>
<clus scale="   89.834">  5  6 -1 -1</clus>
<clus scale="   93.339">  7  8 -1 -1</clus>
<clus scale="  111.503">  1  5  2 -1</clus>
<clus scale="   35.566">  2  5  1 -1</clus>
</clustering>
</event>
<event>
10    2  0.6640105E-006  0.1243180E+03  0.7546771E-02  0.1236830E+00
         21   -1    0    0  503  502  0.00000000000E+00  0.00000000000E+00  0.12050609604E+03  0.12050609604E+03  0.00000000000E+00 0. -1.
         -1   -1    0    0    0  501 -0.00000000000E+00 -0.00000000000E+00 -0.34404856804E+03  0.34404856804E+03  0.00000000000E+00 0.  1.
         23    2    1    2    0    0 -0.64681233387E+02  0.26034583028E+02 -0.92354641147E+02  0.14872122670E+03  0.93419281002E+02 0.  0.
         23    2    1    2    0    0  0.83170286059E+02 -0.46470166459E+02 -0.11715889009E+03  0.17635196131E+03  0.91088066600E+02 0.  0.
        -11    1    3    3    0    0 -0.70614271301E+02 -0.17070160255E+02 -0.63718645490E+02  0.96632455549E+02  0.00000000000E+00 0.  1.
         11    1    3    3    0    0  0.59330379139E+01  0.43104743283E+02 -0.28635995657E+02  0.52088771148E+02  0.00000000000E+00 0. -1.
        -11    1    4    4    0    0  0.42223962615E+02 -0.43119819456E+02 -0.12087256739E+03  0.13510129310E+03  0.00000000000E+00 0.  1.
         11    1    4    4    0    0  0.40946323444E+02 -0.33503470030E+01  0.37136773052E+01  0.41250668210E+02  0.00000000000E+00 0. -1.
         21    1    1    2  503  501 -0.20102048828E+02 -0.20555195078E+02  0.53346005503E+02  0.60600368934E+02  0.00000000000E+00 0.  1.
         -1    1    1    2    0  502  0.16129961558E+01  0.40990778509E+02 -0.67374946271E+02  0.78881107144E+02  0.00000000000E+00 0.  1.
<scales pt_clust_5="13000.00000" pt_clust_6="13000.00000" pt_clust_7="13000.00000" pt_clust_8="13000.00000" pt_clust_9="28.75080" pt_clust_10="39.13002"></scales>
<clustering>
<clus scale="   28.751">  1  9  2 -1</clus>
<clus scale="   39.130">  1 10  2 -1</clus>
<clus scale="   91.088">  7  8 -1 -1</clus>
<clus scale="   93.419">  5  6 -1 -1</clus>
<clus scale="  122.576">  1  7  2 -1</clus>
<clus scale="   28.751">  1  5  2 -1</clus>
</clustering>
</event>
<event>
10    2  0.6640105E-006  0.9755266E+02  0.7546771E-02  0.1286628E+00
          2   -1    0    0  503    0 -0.00000000000E+00  0.00000000000E+00  0.92407860644E+03  0.92407860644E+03  0.00000000000E+00 0. -1.
         21   -1    0    0  501  502  0.00000000000E+00 -0.00000000000E+00 -0.71160562726E+03  0.71160562726E+03  0.00000000000E+00 0.  1.
         23    2    1    2    0    0  0.19784027558E+02 -0.64075097504E+02  0.60051241067E+03  0.61081908128E+03  0.89374318596E+02 0.  0.
         23    2    1    2    0    0  0.16211391152E+02 -0.86374229248E+01  0.29989634292E+03  0.31408486502E+03  0.91509953907E+02 0.  0.
        -11    1    4    4    0    0 -0.34397781688E+02  0.14728236309E+02  0.12997336089E+03  0.13525236734E+03  0.00000000000E+00 0.  1.
         11    1    4    4    0    0  0.50609172841E+02 -0.23365659234E+02  0.16992298202E+03  0.17883249768E+03  0.00000000000E+00 0. -1.
        -13    1    3    3    0    0  0.13384182636E+02  0.21747539641E+02  0.15058677848E+03  0.15273660229E+03  0.00000000000E+00 0. -1.
         13    1    3    3    0    0  0.63998449220E+01 -0.85822637145E+02  0.44992563219E+03  0.45808247899E+03  0.00000000000E+00 0.  1.
         21    1    1    2  503  502  0.44708620114E+02  0.74829553307E+02 -0.47747441726E+03  0.48536598758E+03  0.00000000000E+00 0.  1.
          2    1    1    2  501    0 -0.80704038825E+02 -0.21170328780E+01 -0.21046135714E+03  0.22541429981E+03  0.00000000000E+00 0. -1.
<scales pt_clust_5="13000.00000" pt_clust_6="13000.00000" pt_clust_7="13000.00000" pt_clust_8="13000.00000" pt_clust_9="80.31369" pt_clust_10="80.73180"></scales>
<clustering>
<clus scale="   80.732">  2 10  1 -1</clus>
<clus scale="   80.314">  2  9  1 -1</clus>
<clus scale="   89.374">  7  8 -1 -1</clus>
<clus scale="   91.510">  5  6 -1 -1</clus>
<clus scale="   95.552">  1  7  2 -1</clus>
<clus scale="   80.732">  2  5  1 -1</clus>
</clustering>
</event>
<event>
10    2  0.6640105E-006  0.1330552E+03  0.7546771E-02  0.1223321E+00
          1   -1    0    0  503    0 -0.00000000000E+00  0.00000000000E+00  0.55587757364E+03  0.55587757364E+03  0.00000000000E+00 0. -1.
         21   -1    0    0  501  502  0.00000000000E+00 -0.00000000000E+00 -0.98489341986E+02  0.98489341986E+02  0.00000000000E+00 0.  1.
         23    2    1    2    0    0  0.17653478784E+02  0.87996466644E+02  0.32026584342E+03  0.34508871205E+03  0.91983614104E+02 0.  0.
         23    2    1    2    0    0 -0.52891077457E+02 -0.12500428672E+03  0.26243445083E+02  0.16532070619E+03  0.90656934180E+02 0.  0.
        -13    1    4    4    0    0 -0.72844582407E+02 -0.90502169107E+02  0.40436485423E+02  0.12301254063E+03  0.00000000000E+00 0.  1.
         13    1    4    4    0    0  0.19953504950E+02 -0.34502117610E+02 -0.14193040340E+02  0.42308165564E+02  0.00000000000E+00 0. -1.
        -13    1    3    3    0    0  0.52663252094E+02  0.31401158340E+02  0.17098392448E+03  0.18164513012E+03  0.00000000000E+00 0. -1.
         13    1    3    3    0    0 -0.35009773310E+02  0.56595308304E+02  0.14928191894E+03  0.16344358192E+03  0.00000000000E+00 0.  1.
         21    1    1    2  503  502 -0.23313163662E+02  0.16683640260E+01  0.30364758741E+02  0.38318476116E+02  0.00000000000E+00 0.  1.
          1    1    1    2  501    0  0.58550762335E+02  0.35339456046E+02  0.80514184402E+02  0.10563902126E+03  0.00000000000E+00 0. -1.
<scales pt_clust_5="13000.00000" pt_clust_6="13000.00000" pt_clust_7="13000.00000" pt_clust_8="13000.00000" pt_clust_9="23.37278" pt_clust_10="65.02540"></scales>
<clustering>
<clus scale="   23.373">  1  9  2 -1</clus>
<clus scale="   65.025">  2 10  1 -1</clus>
<clus scale="   90.657">  5  6 -1 -1</clus>
<clus scale="   91.984">  7  8 -1 -1</clus>
<clus scale="  132.141">  2  5  1 -1</clus>
<clus scale="   65.025">  2  5  1 -1</clus>
</clustering>
</event>
<event>
10    2  0.6640105E-006  0.9334549E+02  0.7546771E-02  0.1295981E+00
         21   -1    0    0  501  502  0.00000000000E+00  0.00000000000E+00  0.23334619967E+03  0.23334619967E+03  0.00000000000E+00 0.  1.
          1   -1    0    0  503    0 -0.00000000000E+00 -0.00000000000E+00 -0.84756754334E+03  0.84756754334E+03  0.00000000000E+00 0. -1.
         23    2    1    2    0    0 -0.99807030257E+01 -0.34073580341E+02 -0.50368474269E+03  0.51317668774E+03  0.91604418646E+02 0.  0.
         23    2    1    2    0    0 -0.41329291613E+01 -0.60760056778E+01 -0.29507208712E+03  0.30851963925E+03  0.89793275140E+02 0.  0.
        -11    1    4    4    0    0 -0.43901435591E+02 -0.12030433114E+02 -0.20314169060E+03  0.20817928290E+03  0.00000000000E+00 0.  1.
         11    1    4    4    0    0  0.39768506429E+02  0.59544274360E+01 -0.91930396521E+02  0.10034035636E+03  0.00000000000E+00 0. -1.
        -13    1    3    3    0    0 -0.38346861265E+02 -0.51995567222E+02 -0.34146511672E+03  0.34752330385E+03  0.00000000000E+00 0.  1.
         13    1    3    3    0    0  0.28366158240E+02  0.17921986881E+02 -0.16221962596E+03  0.16565338389E+03  0.00000000000E+00 0. -1.
         21    1    1    2  503  502 -0.26823446702E+02 -0.88386487235E+00  0.19791903555E+03  0.19973037612E+03  0.00000000000E+00 0.  1.
          1    1    1    2  501    0  0.40937078889E+02  0.41033450891E+02 -0.13383549417E+02  0.59487039891E+02  0.00000000000E+00 0. -1.
<scales pt_clust_5="13000.00000" pt_clust_6="13000.00000" pt_clust_7="13000.00000" pt_clust_8="13000.00000" pt_clust_9="26.83800" pt_clust_10="46.53858"></scales>
<clustering>
<clus scale="   26.838">  1  9  2 -1</clus>
<clus scale="   46.539">  1 10  2 -1</clus>
<clus scale="   89.793">  5  6 -1 -1</clus>
<clus scale="   91.569">  1  5  2 -1</clus>
<clus scale="   91.604">  7  8 -1 -1</clus>
<clus scale="   26.838">  1  5  2 -1</clus>
</clustering>
</event>
<event>
10    2  0.6640105E-006  0.9387653E+02  0.7546771E-02  0.1294143E+00
         -4   -1    0    0    0  501 -0.00000000000E+00  0.00000000000E+00  0.27400943803E+03  0.27400943803E+03  0.00000000000E+00 0.  1.
         21   -1    0    0  501  502  0.00000000000E+00 -0.00000000000E+00 -0.39619650333E+03  0.39619650333E+03  0.00000000000E+00 0.  1.
         23    2    1    2    0    0 -0.29410910449E+02  0.26895451630E+01  0.20810774241E+03  0.22914622230E+03  0.91251977706E+02 0.  0.
         23    2    1    2    0    0 -0.31369548739E+02  0.84922317389E+01 -0.45280408958E+02  0.10629075089E+03  0.90505478847E+02 0.  0.
        -11    1    3    3    0    0 -0.23086909466E+02 -0.41768119173E+02  0.77300048971E+02  0.90845356177E+02  0.00000000000E+00 0. -1.
         11    1    3    3    0    0 -0.63240009828E+01  0.44457664336E+02  0.13080769344E+03  0.13830086612E+03  0.00000000000E+00 0.  1.
        -13    1    4    4    0    0 -0.37838044927E+02  0.33921322193E+02  0.34617427308E+01  0.50934834896E+02  0.00000000000E+00 0.  1.
         13    1    4    4    0    0  0.64684961872E+01 -0.25429090454E+02 -0.48742151689E+02  0.55355915993E+02  0.00000000000E+00 0. -1.
         21    1    1    2  503  502  0.12895178032E+02  0.52960662662E+02 -0.23304050862E+03  0.23933030745E+03  0.00000000000E+00 0.  1.
         -4    1    1    2    0  503  0.47885281157E+02 -0.64142439563E+02 -0.51973890135E+02  0.95438660722E+02  0.00000000000E+00 0.  1.
<scales pt_clust_5="13000.00000" pt_clust_6="13000.00000" pt_clust_7="13000.00000" pt_clust_8="13000.00000" pt_clust_9="54.50796" pt_clust_10="66.91025"></scales>
<clustering>
<clus scale="   54.508">  2  9  1 -1</clus>
<clus scale="   66.910">  2 10  1 -1</clus>
<clus scale="   90.505">  7  8 -1 -1</clus>
<clus scale="   91.252">  5  6 -1 -1</clus>
<clus scale="   93.151">  2  7  1 -1</clus>
<clus scale="   54.508">  2  5  1 -1</clus>
</clustering>
</event>
<event>
10    2  0.6640105E-006  0.1786093E+03  0.7546771E-02  0.1178784E+00
         21   -1    0    0  503  502  0.00000000000E+00  0.00000000000E+00  0.12926689022E+03  0.12926689022E+03  0.00000000000E+00 0. -1.
          2   -1    0    0  502    0 -0.00000000000E+00 -0.00000000000E+00 -0.78104645103E+03  0.78104645103E+03  0.00000000000E+00 0. -1.
         23    2    1    2    0    0  0.46103158933E+01 -0.13361674248E+03 -0.19850249366E+03  0.25558374942E+03  0.89694615756E+02 0.  0.
         23    2    1    2    0    0 -0.13927934156E+03  0.11407415556E+03 -0.32319618106E+03  0.38115023291E+03  0.91695586814E+02 0.  0.
        -11    1    3    3    0    0  0.22975558084E+02 -0.55699680615E+02 -0.26415485037E+02  0.65788361734E+02  0.00000000000E+00 0.  1.
         11    1    3    3    0    0 -0.18365242191E+02 -0.77917061861E+02 -0.17208700863E+03  0.18979538769E+03  0.00000000000E+00 0. -1.
        -13    1    4    4    0    0 -0.14737126591E+03  0.81438627354E+02 -0.26656779480E+03  0.31529181605E+03  0.00000000000E+00 0.  1.
         13    1    4    4    0    0  0.80919243504E+01  0.32635528205E+02 -0.56628386257E+02  0.65858416858E+02  0.00000000000E+00 0. -1.
         21    1    1    2  503  501 -0.14233737994E+02  0.73386587609E+02 -0.11219653797E+02  0.75591475508E+02  0.00000000000E+00 0. -1.
          2    1    1    2  501    0  0.14890276366E+03 -0.53844000693E+02 -0.11886123229E+03  0.19798788341E+03  0.00000000000E+00 0. -1.
<scales pt_clust_5="13000.00000" pt_clust_6="13000.00000" pt_clust_7="13000.00000" pt_clust_8="13000.00000" pt_clust_9="74.75420" pt_clust_10="153.27488"></scales>
<clustering>
<clus scale="   74.754">  1  9  2 -1</clus>
<clus scale="   89.695">  5  6 -1 -1</clus>
<clus scale="   91.696">  7  8 -1 -1</clus>
<clus scale="  143.523">  2  5  1 -1</clus>
<clus scale="  153.275">  1 10  2 -1</clus>
<clus scale="   74.754">  1  5  2 -1</clus>
</clustering>
</event>
<event>
10    2  0.6640105E-006  0.9609869E+02  0.7546771E-02  0.1289481E+00
         21   -1    0    0  503  502  0.00000000000E+00  0.00000000000E+00  0.36182143304E+03  0.36182143304E+03  0.00000000000E+00 0.  1.
          1   -1    0    0  502    0 -0.00000000000E+00 -0.00000000000E+00 -0.11194446450E+03  0.11194446450E+03  0.00000000000E+00 0. -1.
         23    2    1    2    0    0  0.33835402278E+02 -0.20099166989E+02 -0.54079138725E+02  0.11304122907E+03  0.91131527276E+02 0.  0.
         23    2    1    2    0    0  0.87995978982E+01  0.33559557583E+01  0.10347966797E+03  0.13726594864E+03  0.89695059000E+02 0.  0.
        -11    1    3    3    0    0 -0.30810909241E+02 -0.13725728324E+02 -0.12808466327E+02  0.36079974445E+02  0.00000000000E+00 0. -1.
         11    1    3    3    0    0  0.64646311519E+02 -0.63734386658E+01 -0.41270672397E+02  0.76961254626E+02  0.00000000000E+00 0.  1.
        -11    1    4    4    0    0 -0.19511325248E+02  0.36200586870E+02  0.26527604434E+02  0.48937593930E+02  0.00000000000E+00 0. -1.
         11    1    4    4    0    0  0.28310923146E+02 -0.32844631111E+02  0.76952063540E+02  0.88328354707E+02  0.00000000000E+00 0.  1.
         21    1    1    2  503  501 -0.63047524778E+01  0.26821331016E+02  0.17681038918E+03  0.17894425786E+03  0.00000000000E+00 0.  1.
          1    1    1    2  501    0 -0.36330247698E+02 -0.10078119785E+02  0.23666050109E+02  0.44514461964E+02  0.00000000000E+00 0. -1.
<scales pt_clust_5="13000.00000" pt_clust_6="13000.00000" pt_clust_7="13000.00000" pt_clust_8="13000.00000" pt_clust_9="27.55238" pt_clust_10="37.84492"></scales>
<clustering>
<clus scale="   27.552">  1  9  2 -1</clus>
<clus scale="   37.845">  1 10  2 -1</clus>
<clus scale="   89.695">  7  8 -1 -1</clus>
<clus scale="   91.132">  5  6 -1 -1</clus>
<clus scale="   94.738">  1  7  2 -1</clus>
<clus scale="   27.552">  1  5  2 -1</clus>
</clustering>
</event>
<event>
10    2  0.6640105E-006  0.1034417E+03  0.7546771E-02  0.1273629E+00
          1   -1    0    0  503    0 -0.00000000000E+00  0.00000000000E+00  0.83969225934E+02  0.83969225934E+02  0.00000000000E+00 0. -1.
         21   -1    0    0  501  502  0.00000000000E+00 -0.00000000000E+00 -0.30010549135E+03  0.30010549135E+03  0.00000000000E+00 0.  1.
         23    2    1    2    0    0  0.22402108173E+02 -0.11379931093E+02  0.10336844468E+02  0.95321071642E+02  0.91366837874E+02 0.  0.
         23    2    1    2    0    0 -0.47773438783E+02 -0.20551074976E+02 -0.18243899331E+03  0.21095845349E+03  0.92275861846E+02 0.  0.
        -11    1    3    3    0    0  0.11794568891E+02 -0.37442087566E+02 -0.27673034468E+02  0.48029351581E+02  0.00000000000E+00 0.  1.
         11    1    3    3    0    0  0.10607539282E+02  0.26062156473E+02  0.38009878936E+02  0.47291720061E+02  0.00000000000E+00 0. -1.
        -13    1    4    4    0    0 -0.37431901446E+02 -0.53750521245E+02 -0.14879558826E+03  0.16257426877E+03  0.00000000000E+00 0.  1.
         13    1    4    4    0    0 -0.10341537337E+02  0.33199446269E+02 -0.33643405057E+02  0.48384184719E+02  0.00000000000E+00 0. -1.
         21    1    1    2  503  502  0.37387113292E+02  0.93808853900E+01 -0.25205308692E+02  0.46055453936E+02  0.00000000000E+00 0. -1.
          1    1    1    2  501    0 -0.12015782682E+02  0.22550120679E+02 -0.18828807874E+02  0.31739738216E+02  0.00000000000E+00 0. -1.
<scales pt_clust_5="13000.00000" pt_clust_6="13000.00000" pt_clust_7="13000.00000" pt_clust_8="13000.00000" pt_clust_9="37.88321" pt_clust_10="25.55165"></scales>
<clustering>
<clus scale="   25.552">  2 10  1 -1</clus>
<clus scale="   37.883">  1  9  2 -1</clus>
<clus scale="   91.367">  5  6 -1 -1</clus>
<clus scale="   92.276">  7  8 -1 -1</clus>
<clus scale="  102.632">  1  5  2 -1</clus>
<clus scale="   25.552">  2  5  1 -1</clus>
</clustering>
</event>
<event>
10    2  0.6640105E-006  0.9346289E+02  0.7546771E-02  0.1295558E+00
          1   -1    0    0  503    0 -0.00000000000E+00  0.00000000000E+00  0.44333828888E+03  0.44333828888E+03  0.00000000000E+00 0. -1.
         21   -1    0    0  501  502  0.00000000000E+00 -0.00000000000E+00 -0.23020459429E+03  0.23020459429E+03  0.00000000000E+00 0. -1.
         23    2    1    2    0    0  0.21954107430E+02  0.16253293577E+02  0.32278449991E+03  0.33627841597E+03  0.90261770844E+02 0.  0.
         23    2    1    2    0    0  0.15012236650E+02  0.41076014648E+01  0.77217607156E+02  0.12096946001E+03  0.91808560394E+02 0.  0.
        -11    1    4    4    0    0  0.45480782595E+02  0.17531899074E+02  0.72471110718E+02  0.87338026995E+02  0.00000000000E+00 0. -1.
         11    1    4    4    0    0 -0.30468545946E+02 -0.13424297609E+02  0.47464964383E+01  0.33631433017E+02  0.00000000000E+00 0.  1.
        -13    1    3    3    0    0 -0.12519398249E+02  0.46048839918E+02  0.14039802166E+03  0.14828632936E+03  0.00000000000E+00 0.  1.
         13    1    3    3    0    0  0.34473505678E+02 -0.29795546342E+02  0.18238647826E+03  0.18799208661E+03  0.00000000000E+00 0. -1.
         21    1    1    2  503  502  0.13816060875E+02 -0.14794149766E+02  0.22788882524E+01  0.20370167822E+02  0.00000000000E+00 0. -1.
          1    1    1    2  501    0 -0.50782404955E+02 -0.55667452753E+01 -0.18914730073E+03  0.19592483936E+03  0.00000000000E+00 0. -1.
<scales pt_clust_5="13000.00000" pt_clust_6="13000.00000" pt_clust_7="13000.00000" pt_clust_8="13000.00000" pt_clust_9="20.24229" pt_clust_10="42.92051"></scales>
<clustering>
<clus scale="   20.242">  2  9  1 -1</clus>
<clus scale="   42.921">  2 10  1 -1</clus>
<clus scale="   90.262">  7  8 -1 -1</clus>
<clus scale="   91.809">  5  6 -1 -1</clus>
<clus scale="   91.944">  1  7  2 -1</clus>
<clus scale="   20.242">  2  5  1 -1</clus>
</clustering>
</event>
<event>
10    2  0.6640105E-006  0.9584609E+02  0.7546771E-02  0.1290533E+00
         21   -1    0    0  501  502  0.00000000000E+00  0.00000000000E+00  0.68875470076E+02  0.68875470076E+02  0.00000000000E+00 0. -1.
          1   -1    0    0  503    0 -0.00000000000E+00 -0.00000000000E+00 -0.30275128981E+03  0.30275128981E+03  0.00000000000E+00 0. -1.
         23    2    1    2    0    0 -0.10460711373E+02 -0.15339888116E+02 -0.10488370006E+03  0.13900204031E+03  0.89309786830E+02 0.  0.
         23    2    1    2    0    0 -0.52406776213E+02  0.37728674717E+02 -0.93695890109E+02  0.14610232558E+03  0.91635400509E+02 0.  0.
        -11    1    4    4    0    0 -0.30735919200E+02  0.32122208310E+02 -0.10984485500E+03  0.11850073909E+03  0.00000000000E+00 0. -1.
         11    1    4    4    0    0 -0.21670857013E+02  0.56064664069E+01  0.16148964892E+02  0.27601586482E+02  0.00000000000E+00 0.  1.
        -13    1    3    3    0    0  0.26043656397E+02 -0.39562981365E+02 -0.56633017169E+02  0.73829534515E+02  0.00000000000E+00 0.  1.
         13    1    3    3    0    0 -0.36504367770E+02  0.24223093249E+02 -0.48250682888E+02  0.65172505798E+02  0.00000000000E+00 0. -1.
         21    1    1    2  503  502  0.10604991186E+02 -0.22666308756E+02 -0.32961986935E+01  0.25240687719E+02  0.00000000000E+00 0. -1.
          1    1    1    2  501    0  0.52262496400E+02  0.27752215598E+00 -0.32000030877E+02  0.61281706281E+02  0.00000000000E+00 0. -1.
<scales pt_clust_5="13000.00000" pt_clust_6="13000.00000" pt_clust_7="13000.00000" pt_clust_8="13000.00000" pt_clust_9="25.02454" pt_clust_10="55.21397"></scales>
<clustering>
<clus scale="   25.025">  1  9  2 -1</clus>
<clus scale="   55.214">  1 10  2 -1</clus>
<clus scale="   89.310">  7  8 -1 -1</clus>
<clus scale="   91.635">  5  6 -1 -1</clus>
<clus scale="   93.625">  2  7  1 -1</clus>
<clus scale="   25.025">  1  5  2 -1</clus>
</clustering>
</event>
<event>
10    2  0.6640105E-006  0.1011870E+03  0.7546771E-02  0.1279238E+00
         21   -1    0    0  501  502  0.00000000000E+00  0.00000000000E+00  0.14431041924E+03  0.14431041924E+03  0.00000000000E+00 0.  1.
          3   -1    0    0  503    0 -0.00000000000E+00 -0.00000000000E+00 -0.15963828755E+03  0.15963828755E+03  0.00000000000E+00 0. -1.
         23    2    1    2    0    0 -0.22746959124E+02 -0.16062674702E+02 -0.44260844367E+02  0.10528633957E+03  0.91382478010E+02 0.  0.
         23    2    1    2    0    0  0.40796542105E+02  0.28953074836E+02 -0.16599283463E+02  0.10801955295E+03  0.94287057527E+02 0.  0.
        -11    1    4    4    0    0  0.10833921248E+02 -0.26933926350E+02  0.19575611677E+02  0.35014494296E+02  0.00000000000E+00 0.  1.
         11    1    4    4    0    0  0.29962620857E+02  0.55887001186E+02 -0.36174895140E+02  0.73005058650E+02  0.00000000000E+00 0. -1.
        -11    1    3    3    0    0  0.15763970741E+02  0.20501620394E+02 -0.45311028688E+02  0.52171913259E+02  0.00000000000E+00 0.  1.
         11    1    3    3    0    0 -0.38510929865E+02 -0.36564295096E+02  0.10501843207E+01  0.53114426308E+02  0.00000000000E+00 0. -1.
         21    1    1    2  503  502 -0.12312202398E+01 -0.34357241265E+02  0.52260300804E+02  0.62554575938E+02  0.00000000000E+00 0.  1.
          3    1    1    2  501    0 -0.16818362741E+02  0.21466841131E+02 -0.67280412906E+01  0.28088238340E+02  0.00000000000E+00 0. -1.
<scales pt_clust_5="13000.00000" pt_clust_6="13000.00000" pt_clust_7="13000.00000" pt_clust_8="13000.00000" pt_clust_9="26.51950" pt_clust_10="27.27056"></scales>
<clustering>
<clus scale="   27.271">  1 10  2 -1</clus>
<clus scale="   26.520">  1  9  2 -1</clus>
<clus scale="   91.382">  7  8 -1 -1</clus>
<clus scale="   94.287">  5  6 -1 -1</clus>
<clus scale="   98.486">  2  7  1 -1</clus>
<clus scale="   27.271">  1  5  2 -1</clus>
</clustering>
</event>
<event>
10    2  0.6640105E-006  0.1058288E+03  0.7546771E-02  0.1269476E+00
          1   -1    0    0  503    0 -0.00000000000E+00  0.00000000000E+00  0.87330748039E+03  0.87330748039E+03  0.00000000000E+00 0. -1.
         21   -1    0    0  501  502  0.00000000000E+00 -0.00000000000E+00 -0.48274606076E+02  0.48274606076E+02  0.00000000000E+00 0.  1.
         23    2    1    2    0    0 -0.27048002610E+02 -0.27615580907E+02  0.47125055345E+03  0.48148312672E+03  0.90855393001E+02 0.  0.
         23    2    1    2    0    0  0.50578677288E+02 -0.28828830677E+02  0.16788021335E+03  0.19852017297E+03  0.88527899376E+02 0.  0.
        -13    1    3    3    0    0  0.30679709663E+02 -0.25003758733E+02  0.15347320745E+03  0.15849434672E+03  0.00000000000E+00 0. -1.
         13    1    3    3    0    0 -0.57727712273E+02 -0.26118221737E+01  0.31777734600E+03  0.32298878000E+03  0.00000000000E+00 0.  1.
        -13    1    4    4    0    0  0.40033243501E+02 -0.50112529419E+02  0.16172953199E+03  0.17398381450E+03  0.00000000000E+00 0.  1.
         13    1    4    4    0    0  0.10545433786E+02  0.21283698742E+02  0.61506813599E+01  0.24536358472E+02  0.00000000000E+00 0. -1.
         21    1    1    2  503  502 -0.65819304692E+02 -0.65376608229E+01  0.13467330197E+03  0.15003939530E+03  0.00000000000E+00 0.  1.
          1    1    1    2  501    0  0.42288630015E+02  0.62982072407E+02  0.51228805543E+02  0.91539391469E+02  0.00000000000E+00 0. -1.
<scales pt_clust_5="13000.00000" pt_clust_6="13000.00000" pt_clust_7="13000.00000" pt_clust_8="13000.00000" pt_clust_9="66.14319" pt_clust_10="71.92163"></scales>
<clustering>
<clus scale="   66.143">  1  9  2 -1</clus>
<clus scale="   71.922">  2 10  1 -1</clus>
<clus scale="   88.528">  7  8 -1 -1</clus>
<clus scale="   90.855">  5  6 -1 -1</clus>
<clus scale="  103.837">  2  7  1 -1</clus>
<clus scale="   71.922">  2  5  1 -1</clus>
</clustering>
</event>
<event>
10    2  0.6640105E-006  0.1122857E+03  0.7546771E-02  0.1261125E+00
         21   -1    0    0  501  502  0.00000000000E+00  0.00000000000E+00  0.46196468140E+03  0.46196468140E+03  0.00000000000E+00 0.  1.
          1   -1    0    0  503    0 -0.00000000000E+00 -0.00000000000E+00 -0.23348613581E+03  0.23348613581E+03  0.00000000000E+00 0. -1.
         23    2    1    2    0    0 -0.62309317655E+02  0.20319385014E+01 -0.17975043818E+03  0.20849194256E+03  0.85276551569E+02 0.  0.
         23    2    1    2    0    0  0.20811061755E+02  0.68599976414E+01  0.60189595238E+02  0.11626918856E+03  0.97033896013E+02 0.  0.
        -11    1    3    3    0    0 -0.50009606298E+02  0.41062389112E+02 -0.10918873779E+03  0.12692226354E+03  0.00000000000E+00 0.  1.
         11    1    3    3    0    0 -0.12299711356E+02 -0.39030450610E+02 -0.70561700384E+02  0.81569679019E+02  0.00000000000E+00 0. -1.
        -11    1    4    4    0    0  0.41107339618E+02  0.35315097545E+02  0.10000287241E+02  0.55108758197E+02  0.00000000000E+00 0.  1.
         11    1    4    4    0    0 -0.20296277863E+02 -0.28455099904E+02  0.50189307997E+02  0.61160430368E+02  0.00000000000E+00 0. -1.
         21    1    1    2  503  502  0.30342500493E+02  0.35359469682E+02  0.30303376126E+03  0.30659487911E+03  0.00000000000E+00 0.  1.
          1    1    1    2  501    0  0.11155755406E+02 -0.44251405825E+02  0.45005627266E+02  0.64094806980E+02  0.00000000000E+00 0. -1.
<scales pt_clust_5="13000.00000" pt_clust_6="13000.00000" pt_clust_7="13000.00000" pt_clust_8="13000.00000" pt_clust_9="38.75436" pt_clust_10="45.63593"></scales>
<clustering>
<clus scale="   45.636">  1 10  2 -1</clus>
<clus scale="   38.754">  1  9  2 -1</clus>
<clus scale="   85.277">  5  6 -1 -1</clus>
<clus scale="   97.034">  7  8 -1 -1</clus>
<clus scale="  102.297">  2  5  1 -1</clus>
<clus scale="   45.636">  1  5  2 -1</clus>
</clustering>
</event>
<event>
10    2  0.6640105E-006  0.9398540E+02  0.7546771E-02  0.1296558E+00
         21   -1    0    0  501  502  0.00000000000E+00  0.00000000000E+00  0.46218165217E+03  0.46218165217E+03  0.00000000000E+00 0. -1.
          2   -1    0    0  503    0 -0.00000000000E+00 -0.00000000000E+00 -0.19065530553E+03  0.19065530553E+03  0.00000000000E+00 0. -1.
         23    2    1    2    0    0 -0.10911410560E+02  0.40908165747E+01 -0.89569425945E+02  0.12467698650E+03  0.85941114945E+02 0.  0.
         23    2    1    2    0    0  0.41158122419E+02 -0.99654085053E+01 -0.42247329463E+02  0.10917675779E+03  0.91331414021E+02 0.  0.
        -11    1    4    4    0    0  0.22225359044E+02  0.40246707765E+02 -0.27303716823E+02  0.53472020935E+02  0.00000000000E+00 0.  1.
         11    1    4    4    0    0  0.18932763376E+02 -0.50212116270E+02 -0.14943612641E+02  0.55704736856E+02  0.00000000000E+00 0. -1.
        -11    1    3    3    0    0 -0.13552110800E+02 -0.37121778299E+02 -0.21311048901E+02  0.44898184111E+02  0.00000000000E+00 0. -1.
         11    1    3    3    0    0  0.26407002405E+01  0.41212594873E+02 -0.68258377044E+02  0.79778802389E+02  0.00000000000E+00 0.  1.
         21    1    1    2  503  502  0.31831468881E+02 -0.56024032758E+01  0.46686815807E+02  0.56782815215E+02  0.00000000000E+00 0. -1.
          2    1    1    2  501    0 -0.62078180740E+02  0.11476995206E+02  0.35665628624E+03  0.36220039820E+03  0.00000000000E+00 0. -1.
<scales pt_clust_5="13000.00000" pt_clust_6="13000.00000" pt_clust_7="13000.00000" pt_clust_8="13000.00000" pt_clust_9="32.32073" pt_clust_10="34.82883"></scales>
<clustering>
<clus scale="   32.321">  1  9  2 -1</clus>
<clus scale="   34.829">  1 10  2 -1</clus>
<clus scale="   85.941">  7  8 -1 -1</clus>
<clus scale="   88.756">  2  7  1 -1</clus>
<clus scale="   91.331">  5  6 -1 -1</clus>
<clus scale="   32.321">  1  5  2 -1</clus>
</clustering>
</event>
<event>
10    2  0.6640105E-006  0.1764703E+03  0.7546771E-02  0.1193544E+00
         21   -1    0    0  501  502  0.00000000000E+00  0.00000000000E+00  0.13272018073E+03  0.13272018073E+03  0.00000000000E+00 0. -1.
          2   -1    0    0  503    0 -0.00000000000E+00 -0.00000000000E+00 -0.16055978884E+04  0.16055978884E+04  0.00000000000E+00 0. -1.
         23    2    1    2    0    0  0.34978394228E+02  0.48235806269E+02 -0.38739239688E+03  0.40230361795E+03  0.90692617042E+02 0.  0.
         23    2    1    2    0    0  0.12682951578E+03  0.24351831695E+02 -0.79895437263E+03  0.81398264163E+03  0.86953513793E+02 0.  0.
        -11    1    4    4    0    0  0.22694623936E+02 -0.30478168439E+02 -0.19263533380E+03  0.19634748925E+03  0.00000000000E+00 0.  1.
         11    1    4    4    0    0  0.10413489184E+03  0.54830000134E+02 -0.60631903883E+03  0.61763515239E+03  0.00000000000E+00 0. -1.
        -13    1    3    3    0    0  0.20889102181E+02 -0.24122032173E+02 -0.78519141667E+02  0.84755428347E+02  0.00000000000E+00 0.  1.
         13    1    3    3    0    0  0.14089292047E+02  0.72357838442E+02 -0.30887325521E+03  0.31754818960E+03  0.00000000000E+00 0. -1.
         21    1    1    2  503  502 -0.84889222266E+02 -0.72654539421E+02  0.86404542754E+02  0.14124661824E+03  0.00000000000E+00 0. -1.
          2    1    1    2  501    0 -0.76918687742E+02  0.66901457629E-01 -0.37293548091E+03  0.38078519131E+03  0.00000000000E+00 0. -1.
<scales pt_clust_5="13000.00000" pt_clust_6="13000.00000" pt_clust_7="13000.00000" pt_clust_8="13000.00000" pt_clust_9="153.56055" pt_clust_10="76.91876"></scales>
<clustering>
<clus scale="   76.919">  1 10  2 -1</clus>
<clus scale="   86.954">  5  6 -1 -1</clus>
<clus scale="   90.693">  7  8 -1 -1</clus>
<clus scale="  107.164">  2  7  1 -1</clus>
<clus scale="  153.561">  1  9  2 -1</clus>
<clus scale="   76.919">  1  5  2 -1</clus>
</clustering>
</event>
<event>
10    2  0.6640105E-006  0.1055797E+03  0.7546771E-02  0.1276187E+00
         21   -1    0    0  501  502  0.00000000000E+00  0.00000000000E+00  0.49437896900E+02  0.49437896900E+02  0.00000000000E+00 0. -1.
          3   -1    0    0  503    0 -0.00000000000E+00 -0.00000000000E+00 -0.53134043582E+03  0.53134043582E+03  0.00000000000E+00 0. -1.
         23    2    1    2    0    0  0.17466526193E+02 -0.34783478266E+02 -0.31016440497E+03  0.32703575415E+03  0.96101282447E+02 0.  0.
         23    2    1    2    0    0 -0.42492551951E+02  0.34805981655E+02 -0.14433208124E+03  0.17430613446E+03  0.80831958442E+02 0.  0.
        -11    1    4    4    0    0  0.19816901948E+02 -0.53878571515E+01 -0.51854152559E+02  0.55772679200E+02  0.00000000000E+00 0.  1.
         11    1    4    4    0    0 -0.62309453898E+02  0.40193838807E+02 -0.92477928677E+02  0.11853345526E+03  0.00000000000E+00 0. -1.
        -11    1    3    3    0    0  0.49752085286E+01 -0.63593278415E+02 -0.26113413166E+03  0.26881200211E+03  0.00000000000E+00 0. -1.
         11    1    3    3    0    0  0.12491317665E+02  0.28809800149E+02 -0.49030273312E+02  0.58223752049E+02  0.00000000000E+00 0.  1.
         21    1    1    2  503  502 -0.24174191654E+02 -0.62409465416E+01 -0.90208211794E+01  0.26546490740E+02  0.00000000000E+00 0. -1.
          3    1    1    2  501    0  0.49200217411E+02  0.62184431522E+01 -0.18385231533E+02  0.52889953366E+02  0.00000000000E+00 0. -1.
<scales pt_clust_5="13000.00000" pt_clust_6="13000.00000" pt_clust_7="13000.00000" pt_clust_8="13000.00000" pt_clust_9="24.96680" pt_clust_10="39.11011"></scales>
<clustering>
<clus scale="   24.967">  1  9  2 -1</clus>
<clus scale="   39.110">  1 10  2 -1</clus>
<clus scale="   80.832">  5  6 -1 -1</clus>
<clus scale="   91.899">  1  5  2 -1</clus>
<clus scale="   96.101">  7  8 -1 -1</clus>
<clus scale="   24.967">  1  5  2 -1</clus>
</clustering>
</event>
<event>
10    2  0.6640105E-006  0.9927399E+02  0.7546771E-02  0.1285910E+00
         21   -1    0    0  501  502  0.00000000000E+00  0.00000000000E+00  0.10655916733E+03  0.10655916733E+03  0.00000000000E+00 0.  1.
          2   -1    0    0  503    0 -0.00000000000E+00 -0.00000000000E+00 -0.35268901429E+03  0.35268901429E+03  0.00000000000E+00 0. -1.
         23    2    1    2    0    0 -0.18078672818E+02  0.22982170228E+00 -0.19647985076E+03  0.22071991834E+03  0.98924513502E+02 0.  0.
         23    2    1    2    0    0 -0.59680057706E+02  0.39415079445E+02 -0.29637681364E+02  0.11987653301E+03  0.91524495271E+02 0.  0.
        -11    1    3    3    0    0 -0.11667741100E+02  0.48333409739E+02 -0.12290749646E+03  0.13258396345E+03  0.00000000000E+00 0.  1.
         11    1    3    3    0    0 -0.64109317183E+01 -0.48103588037E+02 -0.73572354298E+02  0.88135954890E+02  0.00000000000E+00 0. -1.
        -13    1    4    4    0    0 -0.21579733745E+02 -0.17223652523E+02  0.21161791430E+02  0.34787361660E+02  0.00000000000E+00 0.  1.
         13    1    4    4    0    0 -0.38100323961E+02  0.56638731969E+02 -0.50799472794E+02  0.85089171350E+02  0.00000000000E+00 0. -1.
         21    1    1    2  503  502  0.67222472181E+02  0.48730664017E+01  0.29522875272E+01  0.67463497863E+02  0.00000000000E+00 0.  1.
          2    1    1    2  501    0  0.10536258343E+02 -0.44517967549E+02 -0.22964602371E+02  0.51188232404E+02  0.00000000000E+00 0. -1.
<scales pt_clust_5="13000.00000" pt_clust_6="13000.00000" pt_clust_7="13000.00000" pt_clust_8="13000.00000" pt_clust_9="72.25234" pt_clust_10="45.74781"></scales>
<clustering>
<clus scale="   45.748">  1 10  2 -1</clus>
<clus scale="   72.252">  1  9  2 -1</clus>
<clus scale="   91.524">  7  8 -1 -1</clus>
<clus scale="   91.902">  1  7  2 -1</clus>
<clus scale="   98.925">  5  6 -1 -1</clus>
<clus scale="   45.748">  1  5  2 -1</clus>
</clustering>
</event>
<event>
10    2  0.6640105E-006  0.1000989E+03  0.7546771E-02  0.1280590E+00
         -1   -1    0    0    0  501 -0.00000000000E+00  0.00000000000E+00  0.40216881223E+03  0.40216881223E+03  0.00000000000E+00 0.  1.
         21   -1    0    0  503  502  0.00000000000E+00 -0.00000000000E+00 -0.14268440780E+03  0.14268440780E+03  0.00000000000E+00 0. -1.
         23    2    1    2    0    0  0.15387612981E+02  0.27004698311E+02  0.15599946562E+03  0.18376451506E+03  0.92019190154E+02 0.  0.
         23    2    1    2    0    0  0.17325205200E+02 -0.52780988313E+02  0.10688430590E+03  0.15220800078E+03  0.93043136177E+02 0.  0.
        -11    1    4    4    0    0 -0.21786484554E+02  0.15780394570E+01  0.74851650880E+02  0.77973782499E+02  0.00000000000E+00 0.  1.
         11    1    4    4    0    0  0.39111689754E+02 -0.54359027770E+02  0.32032655021E+02  0.74234218277E+02  0.00000000000E+00 0. -1.
        -13    1    3    3    0    0  0.36538875327E+02  0.52498265710E+02  0.10521936710E+03  0.12313517989E+03  0.00000000000E+00 0.  1.
         13    1    3    3    0    0 -0.21151262346E+02 -0.25493567400E+02  0.50780098526E+02  0.60629335176E+02  0.00000000000E+00 0. -1.
         21    1    1    2  503  501  0.73884696737E+02 -0.46782425584E+01 -0.49242340411E+02  0.88913679794E+02  0.00000000000E+00 0. -1.
         -1    1    1    2    0  502 -0.10659751492E+03  0.30454532561E+02  0.45842973314E+02  0.11996702440E+03  0.00000000000E+00 0.  1.
<scales pt_clust_5="13000.00000" pt_clust_6="13000.00000" pt_clust_7="13000.00000" pt_clust_8="13000.00000" pt_clust_9="74.03266" pt_clust_10="74.86834"></scales>
<clustering>
<clus scale="   74.033">  2  9  1 -1</clus>
<clus scale="   74.868">  2 10  1 -1</clus>
<clus scale="   92.019">  7  8 -1 -1</clus>
<clus scale="   93.043">  5  6 -1 -1</clus>
<clus scale="   99.148">  1  7  2 -1</clus>
<clus scale="   74.033">  2  5  1 -1</clus>
</clustering>
</event>
<event>
10    2  0.6640105E-006  0.1918277E+03  0.7546771E-02  0.1179625E+00
          1   -1    0    0  502    0 -0.00000000000E+00  0.00000000000E+00  0.12554817549E+03  0.12554817549E+03  0.00000000000E+00 0. -1.
         21   -1    0    0  503  502  0.00000000000E+00 -0.00000000000E+00 -0.64759053980E+03  0.64759053980E+03  0.00000000000E+00 0. -1.
         23    2    1    2    0    0 -0.66732387882E+02  0.13010054571E+02 -0.28937686523E+02  0.11730397591E+03  0.91106311254E+02 0.  0.
         23    2    1    2    0    0 -0.65087775268E+02 -0.13430729572E+03 -0.67426931039E+02  0.18714351574E+03  0.90561781585E+02 0.  0.
        -11    1    4    4    0    0  0.13010962697E+02 -0.24065728471E+02 -0.41298359478E+02  0.49537853534E+02  0.00000000000E+00 0.  1.
         11    1    4    4    0    0 -0.78098737965E+02 -0.11024156725E+03 -0.26128571561E+02  0.13760566221E+03  0.00000000000E+00 0. -1.
        -11    1    3    3    0    0 -0.58181986730E+02 -0.31493795728E+02 -0.28363435741E+02  0.71982548137E+02  0.00000000000E+00 0.  1.
         11    1    3    3    0    0 -0.85504011520E+01  0.44503850299E+02 -0.57425078206E+00  0.45321427772E+02  0.00000000000E+00 0. -1.
         21    1    1    2  503  501  0.43249992200E+02  0.21493889389E+02 -0.20664386944E+03  0.21221271848E+03  0.00000000000E+00 0. -1.
          1    1    1    2  501    0  0.88570170950E+02  0.99803351757E+02 -0.21903387731E+03  0.25647850517E+03  0.00000000000E+00 0. -1.
<scales pt_clust_5="13000.00000" pt_clust_6="13000.00000" pt_clust_7="13000.00000" pt_clust_8="13000.00000" pt_clust_9="48.05536" pt_clust_10="187.02081"></scales>
<clustering>
<clus scale="   48.055">  9 10 -1 -1</clus>
<clus scale="   90.562">  5  6 -1 -1</clus>
<clus scale="   91.106">  7  8 -1 -1</clus>
<clus scale="  113.679">  1  7  2 -1</clus>
<clus scale="  187.021">  2  9  1 -1</clus>
<clus scale="  187.021">  2  5  1 -1</clus>
</clustering>
</event>
<event>
10    2  0.6640105E-006  0.1039242E+03  0.7546771E-02  0.1277213E+00
         -1   -1    0    0    0  501 -0.00000000000E+00  0.00000000000E+00  0.49941823462E+03  0.49941823462E+03  0.00000000000E+00 0.  1.
         21   -1    0    0  503  502  0.00000000000E+00 -0.00000000000E+00 -0.15428485714E+03  0.15428485714E+03  0.00000000000E+00 0.  1.
         23    2    1    2    0    0 -0.47880452193E+02  0.11041585418E+02  0.32914006842E+03  0.34526148459E+03  0.91966590646E+02 0.  0.
         23    2    1    2    0    0  0.48669469909E+02  0.65016432571E+01  0.14066591788E+03  0.16965696465E+03  0.81151688437E+02 0.  0.
        -11    1    4    4    0    0  0.31662004610E+02  0.27052225243E+02  0.20223230577E+02  0.46295620543E+02  0.00000000000E+00 0. -1.
         11    1    4    4    0    0  0.17007465299E+02 -0.20550581986E+02  0.12044268730E+03  0.12336134411E+03  0.00000000000E+00 0.  1.
        -13    1    3    3    0    0 -0.14370706339E+02 -0.26243662174E+02  0.31561721618E+02  0.43490105501E+02  0.00000000000E+00 0.  1.
         13    1    3    3    0    0 -0.33509745854E+02  0.37285247593E+02  0.29757834680E+03  0.30177137909E+03  0.00000000000E+00 0. -1.
         21    1    1    2  503  501  0.73247208627E+01  0.20575051490E+02 -0.40009132072E+02  0.45581958369E+02  0.00000000000E+00 0. -1.
         -1    1    1    2    0  502 -0.81137385789E+01 -0.38118280166E+02 -0.84663476748E+02  0.93202684144E+02  0.00000000000E+00 0.  1.
<scales pt_clust_5="13000.00000" pt_clust_6="13000.00000" pt_clust_7="13000.00000" pt_clust_8="13000.00000" pt_clust_9="21.83997" pt_clust_10="21.82439"></scales>
<clustering>
<clus scale="   21.840">  2  9  1 -1</clus>
<clus scale="   21.824">  2 10  1 -1</clus>
<clus scale="   81.152">  5  6 -1 -1</clus>
<clus scale="   91.967">  7  8 -1 -1</clus>
<clus scale="   94.488">  2  5  1 -1</clus>
<clus scale="   21.840">  2  5  1 -1</clus>
</clustering>
</event>
<event>
10    2  0.6640105E-006  0.1228223E+03  0.7546771E-02  0.1247957E+00
         21   -1    0    0  503  502  0.00000000000E+00  0.00000000000E+00  0.26041215811E+03  0.26041215811E+03  0.00000000000E+00 0.  1.
          1   -1    0    0  502    0 -0.00000000000E+00 -0.00000000000E+00 -0.15115258401E+03  0.15115258401E+03  0.00000000000E+00 0. -1.
         23    2    1    2    0    0  0.28606845728E+02  0.35245286973E+02 -0.41659506750E+02  0.10917104419E+03  0.90123362732E+02 0.  0.
         23    2    1    2    0    0  0.19124859723E+02  0.60177346466E+02  0.79599452011E+02  0.13648090253E+03  0.91125686317E+02 0.  0.
        -11    1    4    4    0    0  0.42719243127E+02  0.46132616874E+02  0.12670028706E+02  0.64137989525E+02  0.00000000000E+00 0. -1.
         11    1    4    4    0    0 -0.23594383404E+02  0.14044729593E+02  0.66929423305E+02  0.72342913001E+02  0.00000000000E+00 0.  1.
        -13    1    3    3    0    0  0.58614450865E+02  0.15473763994E+02 -0.41081052163E+02  0.73230759038E+02  0.00000000000E+00 0. -1.
         13    1    3    3    0    0 -0.30007605137E+02  0.19771522980E+02 -0.57845458709E+00  0.35940285151E+02  0.00000000000E+00 0.  1.
         21    1    1    2  503  501  0.19842275223E+02 -0.67238477250E+01  0.47465118530E+02  0.51883171562E+02  0.00000000000E+00 0.  1.
          1    1    1    2  501    0 -0.67573980674E+02 -0.88698785714E+02  0.23854510312E+02  0.11402962384E+03  0.00000000000E+00 0. -1.
<scales pt_clust_5="13000.00000" pt_clust_6="13000.00000" pt_clust_7="13000.00000" pt_clust_8="13000.00000" pt_clust_9="20.95056" pt_clust_10="82.34952"></scales>
<clustering>
<clus scale="   20.951">  1  9  2 -1</clus>
<clus scale="   90.123">  7  8 -1 -1</clus>
<clus scale="   91.126">  5  6 -1 -1</clus>
<clus scale="  101.489">  2  7  1 -1</clus>
<clus scale="   82.350">  1 10  2 -1</clus>
<clus scale="   20.951">  1  5  2 -1</clus>
</clustering>
</event>
<event>
10    2  0.6640105E-006  0.5543358E+03  0.7546771E-02  0.1000884E+00
          1   -1    0    0  503    0 -0.00000000000E+00  0.00000000000E+00  0.26762955508E+03  0.26762955508E+03  0.00000000000E+00 0. -1.
         21   -1    0    0  501  502  0.00000000000E+00 -0.00000000000E+00 -0.14695987122E+04  0.14695987122E+04  0.00000000000E+00 0. -1.
         23    2    1    2    0    0 -0.63133767576E+02 -0.51355491857E+03 -0.43697827437E+03  0.68284547596E+03  0.87197504376E+02 0.  0.
         23    2    1    2    0    0  0.93709421408E+02  0.56677594519E+03 -0.70411919869E+03  0.91696474297E+03  0.12257269754E+03 0.  0.
        -11    1    4    4    0    0 -0.21819418267E+02  0.97534353651E+02 -0.16544765367E+03  0.19329242939E+03  0.00000000000E+00 0.  1.
         11    1    4    4    0    0  0.11552883968E+03  0.46924159154E+03 -0.53867154502E+03  0.72367231358E+03  0.00000000000E+00 0. -1.
        -13    1    3    3    0    0 -0.74876425774E+02 -0.43477505046E+03 -0.39799026999E+03  0.59416502644E+03  0.00000000000E+00 0. -1.
         13    1    3    3    0    0  0.11742658197E+02 -0.78779868112E+02 -0.38988004381E+02  0.88680449519E+02  0.00000000000E+00 0.  1.
         21    1    1    2  503  502  0.16182726422E+02  0.17143973571E+02 -0.45923866283E+02  0.51621681091E+02  0.00000000000E+00 0. -1.
          1    1    1    2  501    0 -0.46758380254E+02 -0.70365000195E+02 -0.14947817763E+02  0.85796367244E+02  0.00000000000E+00 0. -1.
<scales pt_clust_5="13000.00000" pt_clust_6="13000.00000" pt_clust_7="13000.00000" pt_clust_8="13000.00000" pt_clust_9="23.57534" pt_clust_10="83.66060"></scales>
<clustering>
<clus scale="   23.575">  2  9  1 -1</clus>
<clus scale="   83.661">  2 10  1 -1</clus>
<clus scale="   87.198">  7  8 -1 -1</clus>
<clus scale="  122.573">  5  6 -1 -1</clus>
<clus scale="  547.602">  1  7  2 -1</clus>
<clus scale="   23.575">  2  5  1 -1</clus>
</clustering>
</event>
<event>
10    2  0.6640105E-006  0.1821565E+03  0.7546771E-02  0.1180632E+00
         21   -1    0    0  501  502  0.00000000000E+00  0.00000000000E+00  0.28045139050E+03  0.28045139050E+03  0.00000000000E+00 0. -1.
          2   -1    0    0  503    0 -0.00000000000E+00 -0.00000000000E+00 -0.87007943625E+03  0.87007943625E+03  0.00000000000E+00 0. -1.
         23    2    1    2    0    0  0.37249615804E+02 -0.89005514605E+02 -0.91730634467E+02  0.16232063235E+03  0.92865294274E+02 0.  0.
         23    2    1    2    0    0 -0.33685512350E+02  0.21798936952E+03 -0.63983011240E+03  0.68515245694E+03  0.10675784533E+03 0.  0.
        -11    1    3    3    0    0  0.58282561411E+02 -0.85039487867E+02 -0.48186152183E+02  0.11380016135E+03  0.00000000000E+00 0. -1.
         11    1    3    3    0    0 -0.21032945607E+02 -0.39660267386E+01 -0.43544482284E+02  0.48520471004E+02  0.00000000000E+00 0.  1.
        -13    1    4    4    0    0  0.89308330875E+01  0.72713312708E+02 -0.96707824152E+02  0.12132348856E+03  0.00000000000E+00 0.  1.
         13    1    4    4    0    0 -0.42616345438E+02  0.14527605682E+03 -0.54312228825E+03  0.56382896838E+03  0.00000000000E+00 0. -1.
         21    1    1    2  503  502  0.46460581838E+01  0.26194906560E+02  0.14521047455E+03  0.14762737181E+03  0.00000000000E+00 0. -1.
          2    1    1    2  501    0 -0.82101616370E+01 -0.15517876148E+03 -0.32777734377E+01  0.15543036565E+03  0.00000000000E+00 0. -1.
<scales pt_clust_5="13000.00000" pt_clust_6="13000.00000" pt_clust_7="13000.00000" pt_clust_8="13000.00000" pt_clust_9="26.60374" pt_clust_10="147.59315"></scales>
<clustering>
<clus scale="   26.604">  1  9  2 -1</clus>
<clus scale="   92.865">  5  6 -1 -1</clus>
<clus scale="  106.758">  7  8 -1 -1</clus>
<clus scale="  129.791">  2  5  1 -1</clus>
<clus scale="  147.593">  1 10  2 -1</clus>
<clus scale="   26.604">  1  5  2 -1</clus>
</clustering>
</event>
<event>
10    2  0.6640105E-006  0.1649110E+03  0.7546771E-02  0.1185024E+00
          2   -1    0    0  503    0 -0.00000000000E+00  0.00000000000E+00  0.54269639474E+03  0.54269639474E+03  0.00000000000E+00 0. -1.
         21   -1    0    0  501  502  0.00000000000E+00 -0.00000000000E+00 -0.33256715908E+03  0.33256715908E+03  0.00000000000E+00 0.  1.
         23    2    1    2    0    0  0.14931671869E+02  0.15570644505E+03  0.31876805946E+03  0.36679743583E+03  0.91977341450E+02 0.  0.
         23    2    1    2    0    0  0.95775720858E+01 -0.93595013743E+02  0.11942162195E+03  0.18338601422E+03  0.10255315664E+03 0.  0.
        -13    1    3    3    0    0 -0.13338197519E+02  0.34937796175E+02  0.18093071921E+02  0.41544149602E+02  0.00000000000E+00 0.  1.
         13    1    3    3    0    0  0.28269869388E+02  0.12076864887E+03  0.30067498754E+03  0.32525328623E+03  0.00000000000E+00 0. -1.
        -13    1    4    4    0    0 -0.21266346377E+02 -0.10178616393E+03  0.72987660105E+02  0.12704282421E+03  0.00000000000E+00 0. -1.
         13    1    4    4    0    0  0.30843918463E+02  0.81911501890E+01  0.46433961848E+02  0.56343190010E+02  0.00000000000E+00 0.  1.
         21    1    1    2  503  502 -0.57140029729E+02 -0.21255617292E+02 -0.25781111493E+03  0.26492141334E+03  0.00000000000E+00 0.  1.
          2    1    1    2  501    0  0.32630785774E+02 -0.40855814015E+02  0.29750669167E+02  0.60158690436E+02  0.00000000000E+00 0. -1.
<scales pt_clust_5="13000.00000" pt_clust_6="13000.00000" pt_clust_7="13000.00000" pt_clust_8="13000.00000" pt_clust_9="62.69273" pt_clust_10="52.28736"></scales>
<clustering>
<clus scale="   52.287">  2 10  1 -1</clus>
<clus scale="   62.693">  2  9  1 -1</clus>
<clus scale="   91.977">  5  6 -1 -1</clus>
<clus scale="  102.553">  7  8 -1 -1</clus>
<clus scale="  158.551">  1  5  2 -1</clus>
<clus scale="   52.287">  2  5  1 -1</clus>
</clustering>
</event>
<event>
10    2  0.6640105E-006  0.9883037E+02  0.7546771E-02  0.1284636E+00
         21   -1    0    0  501  502  0.00000000000E+00  0.00000000000E+00  0.74488579289E+03  0.74488579289E+03  0.00000000000E+00 0. -1.
         -1   -1    0    0    0  501 -0.00000000000E+00 -0.00000000000E+00 -0.30663741448E+02  0.30663741448E+02  0.00000000000E+00 0.  1.
         23    2    1    2    0    0  0.30654080316E+02 -0.13492784647E+02  0.10696901530E+03  0.14265042381E+03  0.88232903737E+02 0.  0.
         23    2    1    2    0    0 -0.45226073992E+02 -0.30896468258E+01  0.24896016604E+03  0.26923104024E+03  0.91919775180E+02 0.  0.
        -11    1    3    3    0    0  0.52636933180E+02 -0.85945243351E+01  0.10762904671E+03  0.12011879237E+03  0.00000000000E+00 0.  1.
         11    1    3    3    0    0 -0.21982852864E+02 -0.48982603117E+01 -0.66003141306E+00  0.22531631445E+02  0.00000000000E+00 0. -1.
        -13    1    4    4    0    0 -0.58542995474E+02  0.28317597587E+02  0.12828960419E+03  0.14383112040E+03  0.00000000000E+00 0. -1.
         13    1    4    4    0    0  0.13316921482E+02 -0.31407244413E+02  0.12067056185E+03  0.12539991984E+03  0.00000000000E+00 0.  1.
         21    1    1    2  503  502 -0.21999254365E+02  0.13189235348E+01  0.15377228132E+03  0.15534355878E+03  0.00000000000E+00 0. -1.
         -1    1    1    2    0  503  0.36571248041E+02  0.15263507938E+02  0.20452058879E+03  0.20832451151E+03  0.00000000000E+00 0.  1.
<scales pt_clust_5="13000.00000" pt_clust_6="13000.00000" pt_clust_7="13000.00000" pt_clust_8="13000.00000" pt_clust_9="22.03876" pt_clust_10="32.88227"></scales>
<clustering>
<clus scale="   22.039">  1  9  2 -1</clus>
<clus scale="   32.882">  1 10  2 -1</clus>
<clus scale="   88.233">  5  6 -1 -1</clus>
<clus scale="   91.920">  7  8 -1 -1</clus>
<clus scale="   95.411">  2  5  1 -1</clus>
<clus scale="   22.039">  1  5  2 -1</clus>
</clustering>
</event>
<event>
10    2  0.6640105E-006  0.9378396E+02  0.7546771E-02  0.1295321E+00
         -1   -1    0    0    0  501 -0.00000000000E+00  0.00000000000E+00  0.41016183720E+03  0.41016183720E+03  0.00000000000E+00 0.  1.
         21   -1    0    0  503  502  0.00000000000E+00 -0.00000000000E+00 -0.11274711027E+03  0.11274711027E+03  0.00000000000E+00 0. -1.
         23    2    1    2    0    0 -0.65730815637E+01  0.90064607224E+01  0.28613992805E+03  0.30119502664E+03  0.93370573042E+02 0.  0.
         23    2    1    2    0    0 -0.11277834604E+02  0.31277861153E+01 -0.18986515321E+02  0.93673615361E+02  0.90979590302E+02 0.  0.
        -11    1    3    3    0    0 -0.21773625798E+02 -0.37153503254E+02  0.10130778522E+03  0.11008061106E+03  0.00000000000E+00 0.  1.
         11    1    3    3    0    0  0.15200544235E+02  0.46159963976E+02  0.18483214283E+03  0.19111441558E+03  0.00000000000E+00 0. -1.
        -11    1    4    4    0    0  0.16211636073E+02  0.40690768264E+02 -0.17305401695E+02  0.47095994457E+02  0.00000000000E+00 0. -1.
         11    1    4    4    0    0 -0.27489470677E+02 -0.37562982149E+02 -0.16811136257E+01  0.46577620904E+02  0.00000000000E+00 0.  1.
         21    1    1    2  503  501 -0.23483937508E+02  0.45669757347E+02  0.14931906648E+01  0.51375594161E+02  0.00000000000E+00 0. -1.
         -1    1    1    2    0  502  0.41334853676E+02 -0.57804004185E+02  0.28768123545E+02  0.76664711311E+02  0.00000000000E+00 0.  1.
<scales pt_clust_5="13000.00000" pt_clust_6="13000.00000" pt_clust_7="13000.00000" pt_clust_8="13000.00000" pt_clust_9="51.35389" pt_clust_10="57.24099"></scales>
<clustering>
<clus scale="   51.354">  2  9  1 -1</clus>
<clus scale="   57.241">  2 10  1 -1</clus>
<clus scale="   90.980">  7  8 -1 -1</clus>
<clus scale="   91.404">  2  7  1 -1</clus>
<clus scale="   93.371">  5  6 -1 -1</clus>
<clus scale="   51.354">  2  5  1 -1</clus>
</clustering>
</event>
<event>
10    2  0.6640105E-006  0.1858202E+03  0.7546771E-02  0.1181050E+00
         -1   -1    0    0    0  501 -0.00000000000E+00  0.00000000000E+00  0.13782293607E+04  0.13782293607E+04  0.00000000000E+00 0.  1.
         21   -1    0    0  501  502  0.00000000000E+00 -0.00000000000E+00 -0.28686046432E+03  0.28686046432E+03  0.00000000000E+00 0.  1.
         23    2    1    2    0    0 -0.75755258635E+02 -0.21326979620E+02  0.58617733040E+03  0.59824814309E+03  0.90018213523E+02 0.  0.
         23    2    1    2    0    0  0.10962142962E+03  0.16430934563E+03  0.59721168845E+03  0.63549116053E+03  0.90403514280E+02 0.  0.
        -13    1    4    4    0    0  0.67071154970E+02  0.16112008448E+03  0.48427594563E+03  0.51476345341E+03  0.00000000000E+00 0.  1.
         13    1    4    4    0    0  0.42550274652E+02  0.31892611538E+01  0.11293574282E+03  0.12072770712E+03  0.00000000000E+00 0. -1.
        -13    1    3    3    0    0 -0.94912530259E+02 -0.11756175485E+02  0.51905968100E+03  0.52779688186E+03  0.00000000000E+00 0.  1.
         13    1    3    3    0    0  0.19157271625E+02 -0.95708041342E+01  0.67117649404E+02  0.70451261233E+02  0.00000000000E+00 0. -1.
         21    1    1    2  503  502 -0.38638732854E+02  0.36083164722E+02 -0.21020186810E+03  0.21674817601E+03  0.00000000000E+00 0.  1.
         -1    1    1    2    0  503  0.47725618655E+01 -0.17906553073E+03  0.11818174562E+03  0.21460234538E+03  0.00000000000E+00 0.  1.
<scales pt_clust_5="13000.00000" pt_clust_6="13000.00000" pt_clust_7="13000.00000" pt_clust_8="13000.00000" pt_clust_9="52.86725" pt_clust_10="162.34639"></scales>
<clustering>
<clus scale="   52.867">  2  9  1 -1</clus>
<clus scale="   90.018">  7  8 -1 -1</clus>
<clus scale="   90.404">  5  6 -1 -1</clus>
<clus scale="  121.123">  1  7  2 -1</clus>
<clus scale="  162.346">  2 10  1 -1</clus>
<clus scale="   52.867">  2  5  1 -1</clus>
</clustering>
</event>
<event>
10    2  0.6640105E-006  0.1791516E+03  0.7546771E-02  0.1168743E+00
         -4   -1    0    0    0  501 -0.00000000000E+00  0.00000000000E+00  0.41076139514E+03  0.41076139514E+03  0.00000000000E+00 0.  1.
         21   -1    0    0  503  502  0.00000000000E+00 -0.00000000000E+00 -0.18209856378E+03  0.18209856378E+03  0.00000000000E+00 0.  1.
         23    2    1    2    0    0  0.76217066917E+01 -0.16526872371E+03  0.16681779822E+03  0.25205841568E+03  0.91287598626E+02 0.  0.
         23    2    1    2    0    0  0.75516947697E+02  0.13375468522E+03  0.92025076391E+02  0.20056002732E+03  0.90347023573E+02 0.  0.
        -11    1    4    4    0    0  0.95615522244E+02  0.96372826223E+02  0.69743163376E+02  0.15262423977E+03  0.00000000000E+00 0.  1.
         11    1    4    4    0    0 -0.20098574547E+02  0.37381858994E+02  0.22281913015E+02  0.47935787552E+02  0.00000000000E+00 0. -1.
        -13    1    3    3    0    0  0.38024748203E+02 -0.26491272138E+02  0.33016856278E+02  0.56901509417E+02  0.00000000000E+00 0. -1.
         13    1    3    3    0    0 -0.30403041511E+02 -0.13877745157E+03  0.13380094194E+03  0.19515690627E+03  0.00000000000E+00 0.  1.
         21    1    1    2  503  501 -0.71191449461E+01 -0.34884856274E+02 -0.12720674776E+02  0.37808080998E+02  0.00000000000E+00 0.  1.
         -4    1    1    2    0  502 -0.76019509443E+02  0.66398894769E+02 -0.17459368472E+02  0.10243343492E+03  0.00000000000E+00 0.  1.
<scales pt_clust_5="13000.00000" pt_clust_6="13000.00000" pt_clust_7="13000.00000" pt_clust_8="13000.00000" pt_clust_9="35.60387" pt_clust_10="94.95249"></scales>
<clustering>
<clus scale="   35.604">  2  9  1 -1</clus>
<clus scale="   90.347">  5  6 -1 -1</clus>
<clus scale="   91.288">  7  8 -1 -1</clus>
<clus scale="   94.952">  2 10  1 -1</clus>
<clus scale="  178.674">  2  5  1 -1</clus>
<clus scale="   35.604">  2  5  1 -1</clus>
</clustering>
</event>
<event>
10    2  0.6640107E-006  0.1665222E+03  0.7546771E-02  0.1205418E+00
         21   -1    0    0  503  502  0.00000000000E+00  0.00000000000E+00  0.14481894583E+03  0.14481894583E+03  0.00000000000E+00 0. -1.
          1   -1    0    0  502    0 -0.00000000000E+00 -0.00000000000E+00 -0.82619144573E+03  0.82619144573E+03  0.00000000000E+00 0. -1.
         23    2    1    2    0    0 -0.80289881859E+01 -0.67352182090E+02 -0.12262392398E+03  0.15932689789E+03  0.75813274410E+02 0.  0.
         23    2    1    2    0    0 -0.12212743589E+03  0.11318649129E+01 -0.56787413604E+03  0.58793243576E+03  0.90923720392E+02 0.  0.
        -11    1    4    4    0    0 -0.72875561630E+01  0.29455043148E+02 -0.71727900356E+02  0.77881960242E+02  0.00000000000E+00 0.  1.
         11    1    4    4    0    0 -0.11483987973E+03 -0.28323178235E+02 -0.49614623568E+03  0.51005047552E+03  0.00000000000E+00 0. -1.
        -11    1    3    3    0    0 -0.26799303489E+02 -0.76056076456E+02 -0.10298750320E+03  0.13080196959E+03  0.00000000000E+00 0. -1.
         11    1    3    3    0    0  0.18770315303E+02  0.87038943656E+01 -0.19636420778E+02  0.28524928302E+02  0.00000000000E+00 0.  1.
         21    1    1    2  503  501 -0.58761913638E+01  0.21566141580E+02  0.66008878058E+02  0.69690745943E+02  0.00000000000E+00 0.  1.
          1    1    1    2  501    0  0.13603261544E+03  0.44654175598E+02 -0.56883317939E+02  0.15406031196E+03  0.00000000000E+00 0. -1.
<scales pt_clust_5="13000.00000" pt_clust_6="13000.00000" pt_clust_7="13000.00000" pt_clust_8="13000.00000" pt_clust_9="22.35236" pt_clust_10="139.50816"></scales>
<clustering>
<clus scale="   22.352">  1  9  2 -1</clus>
<clus scale="   75.813">  7  8 -1 -1</clus>
<clus scale="   90.924">  5  6 -1 -1</clus>
<clus scale="   98.523">  2  7  1 -1</clus>
<clus scale="  139.508">  1 10  2 -1</clus>
<clus scale="   22.352">  1  5  2 -1</clus>
</clustering>
</event>
<event>
10    2  0.6640105E-006  0.1345217E+03  0.7546771E-02  0.1236248E+00
         21   -1    0    0  501  502  0.00000000000E+00  0.00000000000E+00  0.17794588508E+03  0.17794588508E+03  0.00000000000E+00 0. -1.
         -1   -1    0    0    0  501 -0.00000000000E+00 -0.00000000000E+00 -0.23158851745E+03  0.23158851745E+03  0.00000000000E+00 0.  1.
         23    2    1    2    0    0 -0.11723270690E+02  0.11463203408E+02 -0.12282754349E+03  0.15707152848E+03  0.96519529179E+02 0.  0.
         23    2    1    2    0    0 -0.87537413582E+02  0.23411982014E+02  0.47618345531E+02  0.13792240226E+03  0.92434639258E+02 0.  0.
        -11    1    4    4    0    0 -0.97430614395E+02 -0.14619239610E+01  0.20025085690E+02  0.99477966907E+02  0.00000000000E+00 0. -1.
         11    1    4    4    0    0  0.98932008125E+01  0.24873905975E+02  0.27593259841E+02  0.38444435351E+02  0.00000000000E+00 0.  1.
        -11    1    3    3    0    0  0.93031417725E+01  0.23309922699E+02 -0.12959791612E+03  0.13200576050E+03  0.00000000000E+00 0.  1.
         11    1    3    3    0    0 -0.21026412462E+02 -0.11846719291E+02  0.67703726316E+01  0.25065767982E+02  0.00000000000E+00 0. -1.
         21    1    1    2  503  502  0.34302584123E+02 -0.14631700674E+02  0.27363093548E+02  0.46254651990E+02  0.00000000000E+00 0. -1.
         -1    1    1    2    0  503  0.64958100148E+02 -0.20243484748E+02 -0.57965279581E+01  0.68285819802E+02  0.00000000000E+00 0.  1.
<scales pt_clust_5="13000.00000" pt_clust_6="13000.00000" pt_clust_7="13000.00000" pt_clust_8="13000.00000" pt_clust_9="29.47865" pt_clust_10="105.53379"></scales>
<clustering>
<clus scale="   29.479">  9 10 -1 -1</clus>
<clus scale="   92.435">  5  6 -1 -1</clus>
<clus scale="   96.520">  7  8 -1 -1</clus>
<clus scale="   97.902">  2  7  1 -1</clus>
<clus scale="  105.534">  1  9  2 -1</clus>
<clus scale="  105.534">  1  5  2 -1</clus>
</clustering>
</event>
<event>
10    2  0.6640105E-006  0.1294304E+03  0.7546771E-02  0.1229139E+00
         21   -1    0    0  501  502  0.00000000000E+00  0.00000000000E+00  0.12106603934E+03  0.12106603934E+03  0.00000000000E+00 0.  1.
         -1   -1    0    0    0  501 -0.00000000000E+00 -0.00000000000E+00 -0.99550361981E+03  0.99550361981E+03  0.00000000000E+00 0.  1.
         23    2    1    2    0    0  0.53381975127E+02  0.10237441318E+03 -0.66736135122E+03  0.68375144185E+03  0.93886662492E+02 0.  0.
         23    2    1    2    0    0 -0.61564697920E+02 -0.22750134571E+02 -0.27104252427E+03  0.29328646132E+03  0.90802630895E+02 0.  0.
        -11    1    4    4    0    0 -0.45187542727E+02  0.30883169475E+02 -0.11225401098E+03  0.12488653713E+03  0.00000000000E+00 0.  1.
         11    1    4    4    0    0 -0.16377155194E+02 -0.53633304046E+02 -0.15878851329E+03  0.16839992419E+03  0.00000000000E+00 0. -1.
        -11    1    3    3    0    0  0.44845821078E+02  0.21731325791E+00 -0.16171642400E+03  0.16781953606E+03  0.00000000000E+00 0. -1.
         11    1    3    3    0    0  0.85361540496E+01  0.10215709992E+03 -0.50564492722E+03  0.51593190579E+03  0.00000000000E+00 0.  1.
         21    1    1    2  503  502  0.19454361153E+02 -0.81575202568E+01  0.63783358754E+02  0.67181352760E+02  0.00000000000E+00 0.  1.
         -1    1    1    2    0  503 -0.11271638360E+02 -0.71466758348E+02  0.18293626529E+00  0.72350403218E+02  0.00000000000E+00 0.  1.
<scales pt_clust_5="13000.00000" pt_clust_6="13000.00000" pt_clust_7="13000.00000" pt_clust_8="13000.00000" pt_clust_9="21.09543" pt_clust_10="76.80245"></scales>
<clustering>
<clus scale="   21.095">  1  9  2 -1</clus>
<clus scale="   76.802">  1 10  2 -1</clus>
<clus scale="   90.803">  5  6 -1 -1</clus>
<clus scale="   93.887">  7  8 -1 -1</clus>
<clus scale="  127.211">  1  5  2 -1</clus>
<clus scale="   21.095">  1  5  2 -1</clus>
</clustering>
</event>
<event>
10    2  0.6640105E-006  0.1023073E+03  0.7546771E-02  0.1277281E+00
          2   -1    0    0  502    0 -0.00000000000E+00  0.00000000000E+00  0.38192669759E+03  0.38192669759E+03  0.00000000000E+00 0. -1.
         21   -1    0    0  503  502  0.00000000000E+00 -0.00000000000E+00 -0.23883143654E+03  0.23883143654E+03  0.00000000000E+00 0. -1.
         23    2    1    2    0    0  0.13933819313E+02 -0.21910063462E+02  0.16403736310E+03  0.19053073890E+03  0.93378283186E+02 0.  0.
         23    2    1    2    0    0 -0.43239193776E+02  0.41860135852E+02  0.18038956029E+03  0.21023487982E+03  0.89646039398E+02 0.  0.
        -11    1    3    3    0    0 -0.31272543033E+02  0.16811908371E+02  0.80241898479E+02  0.87746079584E+02  0.00000000000E+00 0. -1.
         11    1    3    3    0    0  0.45206362347E+02 -0.38721971834E+02  0.83795464618E+02  0.10278465931E+03  0.00000000000E+00 0.  1.
        -11    1    4    4    0    0 -0.13047656836E+02 -0.22131181817E+02  0.13624390086E+02  0.29080140350E+02  0.00000000000E+00 0.  1.
         11    1    4    4    0    0 -0.30191536940E+02  0.63991317669E+02  0.16676517020E+03  0.18115473947E+03  0.00000000000E+00 0. -1.
         21    1    1    2  503  501  0.22067791122E+02  0.29160724197E+02 -0.11167890069E+03  0.11751388046E+03  0.00000000000E+00 0. -1.
          2    1    1    2  501    0  0.72375833406E+01 -0.49110796586E+02 -0.89652761641E+02  0.10247863496E+03  0.00000000000E+00 0. -1.
<scales pt_clust_5="13000.00000" pt_clust_6="13000.00000" pt_clust_7="13000.00000" pt_clust_8="13000.00000" pt_clust_9="36.56959" pt_clust_10="36.00158"></scales>
<clustering>
<clus scale="   36.570">  2  9  1 -1</clus>
<clus scale="   36.002">  2 10  1 -1</clus>
<clus scale="   89.646">  7  8 -1 -1</clus>
<clus scale="   93.378">  5  6 -1 -1</clus>
<clus scale="   98.913">  2  7  1 -1</clus>
<clus scale="   36.570">  2  5  1 -1</clus>
</clustering>
</event>
<event>
10    2  0.6640105E-006  0.1317412E+03  0.7546771E-02  0.1239967E+00
         21   -1    0    0  501  502  0.00000000000E+00  0.00000000000E+00  0.24585340024E+03  0.24585340024E+03  0.00000000000E+00 0.  1.
         -4   -1    0    0    0  501 -0.00000000000E+00 -0.00000000000E+00 -0.28397920240E+03  0.28397920240E+03  0.00000000000E+00 0.  1.
         23    2    1    2    0    0  0.18680577785E+02  0.20433588369E+02  0.97122633665E+02  0.13700133739E+03  0.92574645315E+02 0.  0.
         23    2    1    2    0    0  0.17161314766E+02  0.75294091476E+02 -0.22609130993E+03  0.25389021958E+03  0.85902574095E+02 0.  0.
        -11    1    3    3    0    0  0.29817350564E+02  0.53687530500E+02  0.65385987623E+02  0.89703693922E+02  0.00000000000E+00 0.  1.
         11    1    3    3    0    0 -0.11136772779E+02 -0.33253942131E+02  0.31736646042E+02  0.47297643463E+02  0.00000000000E+00 0. -1.
        -11    1    4    4    0    0 -0.15235247797E+02  0.79861001665E+02 -0.17843897039E+03  0.19608762969E+03  0.00000000000E+00 0.  1.
         11    1    4    4    0    0  0.32396562563E+02 -0.45669101886E+01 -0.47652339542E+02  0.57802589893E+02  0.00000000000E+00 0. -1.
         21    1    1    2  503  502 -0.21055311613E+02 -0.39299016941E+02  0.53658214051E+02  0.69763477657E+02  0.00000000000E+00 0. -1.
         -4    1    1    2    0  503 -0.14786580938E+02 -0.56428662904E+02  0.37184660062E+02  0.69177568018E+02  0.00000000000E+00 0.  1.
<scales pt_clust_5="13000.00000" pt_clust_6="13000.00000" pt_clust_7="13000.00000" pt_clust_8="13000.00000" pt_clust_9="21.48129" pt_clust_10="102.86038"></scales>
<clustering>
<clus scale="   21.481">  9 10 -1 -1</clus>
<clus scale="   85.903">  7  8 -1 -1</clus>
<clus scale="   92.575">  5  6 -1 -1</clus>
<clus scale="   96.626">  2  5  1 -1</clus>
<clus scale="  102.860">  1  9  2 -1</clus>
<clus scale="  102.860">  1  5  2 -1</clus>
</clustering>
</event>
<event>
10    2  0.6640105E-006  0.1632724E+03  0.7546771E-02  0.1186231E+00
          2   -1    0    0  503    0 -0.00000000000E+00  0.00000000000E+00  0.12397816903E+04  0.12397816903E+04  0.00000000000E+00 0. -1.
         21   -1    0    0  501  502  0.00000000000E+00 -0.00000000000E+00 -0.15173414246E+03  0.15173414246E+03  0.00000000000E+00 0. -1.
         23    2    1    2    0    0 -0.12109120455E+03 -0.57099681470E+02  0.59216256552E+03  0.61406424469E+03  0.92167994217E+02 0.  0.
         23    2    1    2    0    0  0.95845680058E+02  0.83537129650E+02  0.47591723877E+03  0.50251525074E+03  0.99295078688E+02 0.  0.
        -11    1    3    3    0    0 -0.74644866853E+02  0.45005833796E+01  0.40114375357E+03  0.40805443561E+03  0.00000000000E+00 0.  1.
         11    1    3    3    0    0 -0.46446337697E+02 -0.61600264850E+02  0.19101881196E+03  0.20600980908E+03  0.00000000000E+00 0. -1.
        -13    1    4    4    0    0 -0.15784229796E+02  0.36495990533E+02  0.13390204859E+03  0.13968127237E+03  0.00000000000E+00 0.  1.
         13    1    4    4    0    0  0.11162990985E+03  0.47041139117E+02  0.34201519018E+03  0.36283397837E+03  0.00000000000E+00 0. -1.
         21    1    1    2  503  502  0.82054688014E+02  0.36731719936E+02 -0.95776367645E+02  0.13135944456E+03  0.00000000000E+00 0. -1.
          2    1    1    2  501    0 -0.56809163522E+02 -0.63169168115E+02  0.11574411118E+03  0.14357689275E+03  0.00000000000E+00 0. -1.
<scales pt_clust_5="13000.00000" pt_clust_6="13000.00000" pt_clust_7="13000.00000" pt_clust_8="13000.00000" pt_clust_9="38.42833" pt_clust_10="84.95665"></scales>
<clustering>
<clus scale="   84.957">  2 10  1 -1</clus>
<clus scale="   38.428">  2  9  1 -1</clus>
<clus scale="   92.168">  5  6 -1 -1</clus>
<clus scale="   99.295">  7  8 -1 -1</clus>
<clus scale="  159.039">  1  5  2 -1</clus>
<clus scale="   84.957">  2  5  1 -1</clus>
</clustering>
</event>
<event>
10    2  0.6640105E-006  0.1428358E+03  0.7546771E-02  0.1229771E+00
          2   -1    0    0  503    0 -0.00000000000E+00  0.00000000000E+00  0.16337443796E+03  0.16337443796E+03  0.00000000000E+00 0. -1.
         21   -1    0    0  501  502  0.00000000000E+00 -0.00000000000E+00 -0.48692904144E+03  0.48692904144E+03  0.00000000000E+00 0.  1.
         23    2    1    2    0    0 -0.71926401096E+00  0.18745184081E+02 -0.93566373670E+02  0.13205258237E+03  0.91276059080E+02 0.  0.
         23    2    1    2    0    0 -0.12790322829E+02 -0.12726126932E+03  0.84575798943E+02  0.17865403080E+03  0.91679735642E+02 0.  0.
        -11    1    3    3    0    0 -0.43669061415E+01  0.55757150917E+02 -0.53775263677E+02  0.77586781935E+02  0.00000000000E+00 0. -1.
         11    1    3    3    0    0  0.36476421306E+01 -0.37011966836E+02 -0.39791109993E+02  0.54465800431E+02  0.00000000000E+00 0.  1.
        -13    1    4    4    0    0 -0.54766204856E+01 -0.10018363290E+03  0.12247701961E+02  0.10107798908E+03  0.00000000000E+00 0.  1.
         13    1    4    4    0    0 -0.73137023430E+01 -0.27077636419E+02  0.72328096982E+02  0.77576041721E+02  0.00000000000E+00 0. -1.
         21    1    1    2  503  502  0.20822636533E+02  0.21455099543E+01 -0.62417238359E+02  0.65833859445E+02  0.00000000000E+00 0.  1.
          2    1    1    2  501    0 -0.73130496934E+01  0.10637057529E+03 -0.25214679039E+03  0.27376300679E+03  0.00000000000E+00 0. -1.
<scales pt_clust_5="13000.00000" pt_clust_6="13000.00000" pt_clust_7="13000.00000" pt_clust_8="13000.00000" pt_clust_9="20.93288" pt_clust_10="109.53033"></scales>
<clustering>
<clus scale="   20.933">  2  9  1 -1</clus>
<clus scale="   91.276">  5  6 -1 -1</clus>
<clus scale="   91.680">  7  8 -1 -1</clus>
<clus scale="   93.423">  1  5  2 -1</clus>
<clus scale="  109.530">  2 10  1 -1</clus>
<clus scale="   20.933">  2  5  1 -1</clus>
</clustering>
</event>
<event>
10    2  0.6640105E-006  0.1364288E+03  0.7546771E-02  0.1232792E+00
         21   -1    0    0  503  502  0.00000000000E+00  0.00000000000E+00  0.28252765470E+03  0.28252765470E+03  0.00000000000E+00 0. -1.
         -4   -1    0    0    0  501 -0.00000000000E+00 -0.00000000000E+00 -0.49000550952E+03  0.49000550952E+03  0.00000000000E+00 0.  1.
         23    2    1    2    0    0  0.39933930154E+02 -0.49324377108E+00 -0.18401628446E+03  0.20941353828E+03  0.91635555346E+02 0.  0.
         23    2    1    2    0    0 -0.67900481312E+01  0.63169757496E+02  0.35537340843E+02  0.11570657268E+03  0.89936562927E+02 0.  0.
        -11    1    3    3    0    0  0.61956013808E+02 -0.73867073414E+01 -0.73034139761E+02  0.96057777733E+02  0.00000000000E+00 0. -1.
         11    1    3    3    0    0 -0.22022083654E+02  0.68934635703E+01 -0.11098214469E+03  0.11335576055E+03  0.00000000000E+00 0.  1.
        -11    1    4    4    0    0  0.34189358297E+02  0.83259283815E+01 -0.59007737597E+01  0.35679860358E+02  0.00000000000E+00 0.  1.
         11    1    4    4    0    0 -0.40979406428E+02  0.54843829114E+02  0.41438114602E+02  0.80026712321E+02  0.00000000000E+00 0. -1.
         21    1    1    2  503  501  0.12378532921E+02  0.51051346110E+02  0.17531144450E+03  0.18301248753E+03  0.00000000000E+00 0. -1.
         -4    1    1    2    0  502 -0.45522414944E+02 -0.11372785983E+03 -0.23431035571E+03  0.26440056573E+03  0.00000000000E+00 0.  1.
<scales pt_clust_5="13000.00000" pt_clust_6="13000.00000" pt_clust_7="13000.00000" pt_clust_8="13000.00000" pt_clust_9="52.53064" pt_clust_10="102.58776"></scales>
<clustering>
<clus scale="   52.531">  1  9  2 -1</clus>
<clus scale="   89.937">  7  8 -1 -1</clus>
<clus scale="   91.636">  5  6 -1 -1</clus>
<clus scale="  100.742">  2  5  1 -1</clus>
<clus scale="  102.588">  1 10  2 -1</clus>
<clus scale="   52.531">  1  5  2 -1</clus>
</clustering>
</event>
<event>
10    2  0.6640105E-006  0.2066364E+03  0.7546771E-02  0.1163315E+00
         21   -1    0    0  503  502  0.00000000000E+00  0.00000000000E+00  0.28090541189E+03  0.28090541189E+03  0.00000000000E+00 0. -1.
          1   -1    0    0  502    0 -0.00000000000E+00 -0.00000000000E+00 -0.39658162771E+03  0.39658162771E+03  0.00000000000E+00 0. -1.
         23    2    1    2    0    0  0.84540311696E+02 -0.48602238224E+02 -0.64830719769E+02  0.14959291198E+03  0.93090145709E+02 0.  0.
         23    2    1    2    0    0  0.76990167266E+02  0.15699780313E+03 -0.12266945586E+03  0.23240906528E+03  0.91599029359E+02 0.  0.
        -11    1    4    4    0    0  0.21305205961E+02  0.42503900341E+01  0.86839884293E+01  0.23396351671E+02  0.00000000000E+00 0.  1.
         11    1    4    4    0    0  0.55684961305E+02  0.15274741310E+03 -0.13135344429E+03  0.20901271361E+03  0.00000000000E+00 0. -1.
        -13    1    3    3    0    0  0.14190451106E+02 -0.55339936807E+02 -0.53017583269E+02  0.77940628969E+02  0.00000000000E+00 0.  1.
         13    1    3    3    0    0  0.70349860591E+02  0.67376985834E+01 -0.11813136500E+02  0.71652283015E+02  0.00000000000E+00 0. -1.
         21    1    1    2  503  501 -0.88407143212E+01  0.20628114886E+02  0.91877270776E+02  0.94578592919E+02  0.00000000000E+00 0.  1.
          1    1    1    2  501    0 -0.15268976464E+03 -0.12902367980E+03 -0.20053310964E+02  0.20090646942E+03  0.00000000000E+00 0. -1.
<scales pt_clust_5="13000.00000" pt_clust_6="13000.00000" pt_clust_7="13000.00000" pt_clust_8="13000.00000" pt_clust_9="22.44276" pt_clust_10="185.22480"></scales>
<clustering>
<clus scale="   22.443">  1  9  2 -1</clus>
<clus scale="   91.599">  5  6 -1 -1</clus>
<clus scale="   93.090">  7  8 -1 -1</clus>
<clus scale="  131.948">  2  7  1 -1</clus>
<clus scale="  185.225">  1 10  2 -1</clus>
<clus scale="   22.443">  1  5  2 -1</clus>
</clustering>
</event>
<event>
10    2  0.6640105E-006  0.1039356E+03  0.7546771E-02  0.1273574E+00
          1   -1    0    0  503    0 -0.00000000000E+00  0.00000000000E+00  0.89160698579E+03  0.89160698579E+03  0.00000000000E+00 0. -1.
         21   -1    0    0  501  502  0.00000000000E+00 -0.00000000000E+00 -0.35939887003E+02  0.35939887003E+02  0.00000000000E+00 0.  1.
         23    2    1    2    0    0  0.14595449511E+02  0.48273523159E+02  0.55978343141E+03  0.56917684719E+03  0.89785483853E+02 0.  0.
         23    2    1    2    0    0 -0.22730449606E+02 -0.33686495070E+02  0.24746502190E+03  0.26738768189E+03  0.92767354568E+02 0.  0.
        -11    1    3    3    0    0  0.43857708326E+02  0.57329360907E+02  0.37782884878E+03  0.38466192061E+03  0.00000000000E+00 0. -1.
         11    1    3    3    0    0 -0.29262258815E+02 -0.90558377475E+01  0.18195458264E+03  0.18451492658E+03  0.00000000000E+00 0.  1.
        -11    1    4    4    0    0 -0.50028754113E+02  0.75837943288E+01  0.10459820766E+03  0.11619455762E+03  0.00000000000E+00 0.  1.
         11    1    4    4    0    0  0.27298304507E+02 -0.41270289398E+02  0.14286681424E+03  0.15119312427E+03  0.00000000000E+00 0. -1.
         21    1    1    2  503  502  0.20884354724E+02  0.25541725006E+02  0.31466474088E+02  0.45592488197E+02  0.00000000000E+00 0.  1.
          1    1    1    2  501    0 -0.12749354629E+02 -0.40128753096E+02  0.16952171382E+02  0.45389855508E+02  0.00000000000E+00 0. -1.
<scales pt_clust_5="13000.00000" pt_clust_6="13000.00000" pt_clust_7="13000.00000" pt_clust_8="13000.00000" pt_clust_9="32.99297" pt_clust_10="27.66226"></scales>
<clustering>
<clus scale="   32.993">  2  9  1 -1</clus>
<clus scale="   27.662">  2 10  1 -1</clus>
<clus scale="   89.785">  5  6 -1 -1</clus>
<clus scale="   92.767">  7  8 -1 -1</clus>
<clus scale="  101.283">  1  5  2 -1</clus>
<clus scale="   32.993">  2  5  1 -1</clus>
</clustering>
</event>
<event>
10    2  0.6640105E-006  0.9762243E+02  0.7546771E-02  0.1291290E+00
         21   -1    0    0  503  502  0.00000000000E+00  0.00000000000E+00  0.36363486278E+03  0.36363486278E+03  0.00000000000E+00 0.  1.
         -3   -1    0    0    0  501 -0.00000000000E+00 -0.00000000000E+00 -0.30270030886E+03  0.30270030886E+03  0.00000000000E+00 0.  1.
         23    2    1    2    0    0 -0.13207604255E+02  0.36616572282E+02 -0.25407729092E+03  0.26843252506E+03  0.77366249550E+02 0.  0.
         23    2    1    2    0    0  0.18527094114E+02 -0.61057779235E+02  0.70983974189E+02  0.13035992366E+03  0.88790086623E+02 0.  0.
        -11    1    4    4    0    0 -0.17952933162E+02 -0.68912602425E+02  0.38884421675E+02  0.81137246879E+02  0.00000000000E+00 0. -1.
         11    1    4    4    0    0  0.36480027276E+02  0.78548231903E+01  0.32099552514E+02  0.49222676777E+02  0.00000000000E+00 0.  1.
        -13    1    3    3    0    0 -0.99660123867E+01 -0.20778240637E+02 -0.34750371335E+02  0.41697062184E+02  0.00000000000E+00 0. -1.
         13    1    3    3    0    0 -0.32415918685E+01  0.57394812919E+02 -0.21932691959E+03  0.22673546287E+03  0.00000000000E+00 0.  1.
         21    1    1    2  503  501  0.90277172514E+01  0.65534248144E+02  0.14685819505E+03  0.16107006802E+03  0.00000000000E+00 0.  1.
         -3    1    1    2    0  502 -0.14347207110E+02 -0.41093041191E+02  0.97169675609E+02  0.10647265491E+03  0.00000000000E+00 0.  1.
<scales pt_clust_5="13000.00000" pt_clust_6="13000.00000" pt_clust_7="13000.00000" pt_clust_8="13000.00000" pt_clust_9="41.37298" pt_clust_10="43.52563"></scales>
<clustering>
<clus scale="   43.526">  1 10  2 -1</clus>
<clus scale="   41.373">  1  9  2 -1</clus>
<clus scale="   77.366">  7  8 -1 -1</clus>
<clus scale="   87.361">  2  7  1 -1</clus>
<clus scale="   88.790">  5  6 -1 -1</clus>
<clus scale="   43.526">  1  5  2 -1</clus>
</clustering>
</event>
<event>
10    2  0.6640105E-006  0.3366347E+03  0.7546771E-02  0.1068363E+00
         21   -1    0    0  503  502  0.00000000000E+00  0.00000000000E+00  0.20821926190E+03  0.20821926190E+03  0.00000000000E+00 0. -1.
          1   -1    0    0  502    0 -0.00000000000E+00 -0.00000000000E+00 -0.11949122040E+04  0.11949122040E+04  0.00000000000E+00 0. -1.
         23    2    1    2    0    0 -0.31428717805E+03 -0.41495069864E+02 -0.83047129477E+03  0.89350610088E+03  0.90400828383E+02 0.  0.
         23    2    1    2    0    0  0.34215454470E+03  0.55816612238E+02 -0.14201510167E+03  0.38639544158E+03  0.94593453806E+02 0.  0.
        -11    1    3    3    0    0 -0.63252448023E+02 -0.46290469427E+02 -0.18490646751E+03  0.20083346700E+03  0.00000000000E+00 0.  1.
         11    1    3    3    0    0 -0.25103473003E+03  0.47953995628E+01 -0.64556482726E+03  0.69267263388E+03  0.00000000000E+00 0. -1.
        -11    1    4    4    0    0  0.24555411363E+03  0.15619813965E+02 -0.59497875708E+02  0.25314185454E+03  0.00000000000E+00 0. -1.
         11    1    4    4    0    0  0.96600431077E+02  0.40196798274E+02 -0.82517225967E+02  0.13325358703E+03  0.00000000000E+00 0.  1.
         21    1    1    2  503  501 -0.26224868203E+02  0.27216749224E+02  0.39925348622E+02  0.54977528256E+02  0.00000000000E+00 0.  1.
          1    1    1    2  501    0 -0.16424984512E+01 -0.41538291599E+02 -0.54131894244E+02  0.68252395156E+02  0.00000000000E+00 0. -1.
<scales pt_clust_5="13000.00000" pt_clust_6="13000.00000" pt_clust_7="13000.00000" pt_clust_8="13000.00000" pt_clust_9="37.79544" pt_clust_10="40.43971"></scales>
<clustering>
<clus scale="   37.795">  1  9  2 -1</clus>
<clus scale="   40.440">  1 10  2 -1</clus>
<clus scale="   90.401">  5  6 -1 -1</clus>
<clus scale="   94.593">  7  8 -1 -1</clus>
<clus scale="  335.481">  2  5  1 -1</clus>
<clus scale="   37.795">  1  5  2 -1</clus>
</clustering>
</event>
<event>
10    2  0.6640105E-006  0.1115412E+03  0.7546771E-02  0.1258764E+00
         -3   -1    0    0    0  501 -0.00000000000E+00  0.00000000000E+00  0.65413331009E+03  0.65413331009E+03  0.00000000000E+00 0.  1.
         21   -1    0    0  503  502  0.00000000000E+00 -0.00000000000E+00 -0.52011638666E+02  0.52011638666E+02  0.00000000000E+00 0. -1.
         23    2    1    2    0    0  0.63062921821E+02 -0.35492524845E+02  0.44059989734E+03  0.45631042217E+03  0.94097186009E+02 0.  0.
         23    2    1    2    0    0  0.88051232520E+00  0.34959574876E+02  0.65062211984E+02  0.11755457103E+03  0.91449650437E+02 0.  0.
        -11    1    3    3    0    0  0.81786287131E+02 -0.84903692952E+01  0.35998048646E+03  0.36925199223E+03  0.00000000000E+00 0.  1.
         11    1    3    3    0    0 -0.18723365310E+02 -0.27002155549E+02  0.80619410888E+02  0.87058429947E+02  0.00000000000E+00 0. -1.
        -13    1    4    4    0    0  0.60592933634E+01 -0.22478986063E+02  0.54036599121E+02  0.58838540899E+02  0.00000000000E+00 0.  1.
         13    1    4    4    0    0 -0.51787810382E+01  0.57438560939E+02  0.11025612863E+02  0.58716030135E+02  0.00000000000E+00 0. -1.
         21    1    1    2  503  501 -0.23147075586E+02  0.24152753027E+02  0.11972757109E+02  0.35531528250E+02  0.00000000000E+00 0. -1.
         -3    1    1    2    0  502 -0.40796358561E+02 -0.23619803058E+02  0.84486804988E+02  0.96748427302E+02  0.00000000000E+00 0.  1.
<scales pt_clust_5="13000.00000" pt_clust_6="13000.00000" pt_clust_7="13000.00000" pt_clust_8="13000.00000" pt_clust_9="33.45359" pt_clust_10="48.60208"></scales>
<clustering>
<clus scale="   33.454">  2  9  1 -1</clus>
<clus scale="   48.602">  2 10  1 -1</clus>
<clus scale="   91.450">  7  8 -1 -1</clus>
<clus scale="   94.097">  5  6 -1 -1</clus>
<clus scale="  109.317">  2  7  1 -1</clus>
<clus scale="   33.454">  2  5  1 -1</clus>
</clustering>
</event>
<event>
10    2  0.6640105E-006  0.1017655E+03  0.7546771E-02  0.1280572E+00
         21   -1    0    0  503  502  0.00000000000E+00  0.00000000000E+00  0.22750158050E+03  0.22750158050E+03  0.00000000000E+00 0. -1.
          1   -1    0    0  502    0 -0.00000000000E+00 -0.00000000000E+00 -0.25544397298E+03  0.25544397298E+03  0.00000000000E+00 0. -1.
         23    2    1    2    0    0  0.40215379982E+02 -0.19713877108E+02 -0.12362818346E+03  0.15968777758E+03  0.90610953122E+02 0.  0.
         23    2    1    2    0    0 -0.69125179368E+01  0.64112457611E+02 -0.80191955427E+02  0.13172829791E+03  0.82239921149E+02 0.  0.
        -11    1    4    4    0    0  0.37327528847E+02  0.21488597517E+02 -0.32574578100E+02  0.54001920072E+02  0.00000000000E+00 0.  1.
         11    1    4    4    0    0 -0.44240046784E+02  0.42623860093E+02 -0.47617377328E+02  0.77726377841E+02  0.00000000000E+00 0. -1.
        -13    1    3    3    0    0 -0.18281167766E+02  0.21796358586E+02 -0.45184744996E+02  0.53394227430E+02  0.00000000000E+00 0. -1.
         13    1    3    3    0    0  0.58496547748E+02 -0.41510235693E+02 -0.78443438468E+02  0.10629355015E+03  0.00000000000E+00 0.  1.
         21    1    1    2  503  501 -0.28688850954E+02 -0.11706588750E+02  0.13729821674E+03  0.14075118014E+03  0.00000000000E+00 0. -1.
          1    1    1    2  501    0 -0.46140110909E+01 -0.32691991753E+02  0.38579529666E+02  0.50778297848E+02  0.00000000000E+00 0. -1.
<scales pt_clust_5="13000.00000" pt_clust_6="13000.00000" pt_clust_7="13000.00000" pt_clust_8="13000.00000" pt_clust_9="30.98539" pt_clust_10="43.07080"></scales>
<clustering>
<clus scale="   30.985">  1  9  2 -1</clus>
<clus scale="   43.071">  1 10  2 -1</clus>
<clus scale="   82.240">  5  6 -1 -1</clus>
<clus scale="   90.611">  7  8 -1 -1</clus>
<clus scale="   94.389">  1  5  2 -1</clus>
<clus scale="   30.985">  1  5  2 -1</clus>
</clustering>
</event>
<event>
10    2  0.6640105E-006  0.1293516E+03  0.7546771E-02  0.1230423E+00
          2   -1    0    0  502    0 -0.00000000000E+00  0.00000000000E+00  0.98517501178E+03  0.98517501178E+03  0.00000000000E+00 0. -1.
         21   -1    0    0  503  502  0.00000000000E+00 -0.00000000000E+00 -0.12890407000E+03  0.12890407000E+03  0.00000000000E+00 0. -1.
         23    2    1    2    0    0 -0.64665614999E+02  0.46379930450E+02  0.45912704903E+03  0.47505566053E+03  0.92452656708E+02 0.  0.
         23    2    1    2    0    0  0.78727259047E+02 -0.69017384743E+02  0.43416760317E+03  0.45462258633E+03  0.84963566564E+02 0.  0.
        -11    1    3    3    0    0 -0.52587687682E+02 -0.18177310357E+02  0.18606492389E+03  0.19420616728E+03  0.00000000000E+00 0.  1.
         11    1    3    3    0    0 -0.12077927317E+02  0.64557240807E+02  0.27306212514E+03  0.28084949324E+03  0.00000000000E+00 0. -1.
        -13    1    4    4    0    0  0.78204134789E+02 -0.16266033904E+02  0.21996213170E+03  0.23401668731E+03  0.00000000000E+00 0. -1.
         13    1    4    4    0    0  0.52312425807E+00 -0.52751350839E+02  0.21420547147E+03  0.22060589901E+03  0.00000000000E+00 0.  1.
         21    1    1    2  503  501  0.27076635711E+02 -0.57003049389E+02 -0.64904732434E+02  0.90526880723E+02  0.00000000000E+00 0. -1.
          2    1    1    2  501    0 -0.41138279759E+02  0.79640503682E+02  0.27881022012E+02  0.93873954198E+02  0.00000000000E+00 0. -1.
<scales pt_clust_5="13000.00000" pt_clust_6="13000.00000" pt_clust_7="13000.00000" pt_clust_8="13000.00000" pt_clust_9="63.10699" pt_clust_10="48.99998"></scales>
<clustering>
<clus scale="   63.107">  2  9  1 -1</clus>
<clus scale="   49.000">  2 10  1 -1</clus>
<clus scale="   84.964">  7  8 -1 -1</clus>
<clus scale="   92.453">  5  6 -1 -1</clus>
<clus scale="  124.109">  2  7  1 -1</clus>
<clus scale="   63.107">  2  5  1 -1</clus>
</clustering>
</event>
<event>
10    2  0.6640105E-006  0.1983801E+03  0.7546771E-02  0.1151607E+00
         21   -1    0    0  501  502  0.00000000000E+00  0.00000000000E+00  0.14915542757E+03  0.14915542757E+03  0.00000000000E+00 0. -1.
          2   -1    0    0  503    0 -0.00000000000E+00 -0.00000000000E+00 -0.80875985041E+03  0.80875985041E+03  0.00000000000E+00 0. -1.
         23    2    1    2    0    0 -0.80618038269E+02 -0.11517724839E+03 -0.24126003897E+03  0.29398245890E+03  0.91946794908E+02 0.  0.
         23    2    1    2    0    0 -0.15758952414E+02  0.22975641010E+03 -0.15191199949E+03  0.28924024604E+03  0.86869510059E+02 0.  0.
        -11    1    4    4    0    0 -0.16410846102E+02  0.19590455703E+03 -0.16108893486E+03  0.25416049313E+03  0.00000000000E+00 0.  1.
         11    1    4    4    0    0  0.65189368794E+00  0.33851853068E+02  0.91769353658E+01  0.35079752910E+02  0.00000000000E+00 0. -1.
        -13    1    3    3    0    0 -0.54874178094E+02 -0.65028587096E+01 -0.64939545766E+02  0.85267855592E+02  0.00000000000E+00 0.  1.
         13    1    3    3    0    0 -0.25743860175E+02 -0.10867438968E+03 -0.17632049321E+03  0.20871460330E+03  0.00000000000E+00 0. -1.
         21    1    1    2  503  502  0.74255107966E+02 -0.78232730021E+02 -0.30108206232E+03  0.31981962003E+03  0.00000000000E+00 0. -1.
          2    1    1    2  501    0  0.22121882717E+02 -0.36346431690E+02  0.34649677935E+02  0.54872953014E+02  0.00000000000E+00 0. -1.
<scales pt_clust_5="13000.00000" pt_clust_6="13000.00000" pt_clust_7="13000.00000" pt_clust_8="13000.00000" pt_clust_9="111.59738" pt_clust_10="42.54927"></scales>
<clustering>
<clus scale="   42.549">  1 10  2 -1</clus>
<clus scale="   86.870">  5  6 -1 -1</clus>
<clus scale="   91.947">  7  8 -1 -1</clus>
<clus scale="  111.597">  2  9  1 -1</clus>
<clus scale="  196.078">  1  5  2 -1</clus>
<clus scale="   42.549">  1  5  2 -1</clus>
</clustering>
</event>
<event>
10    2  0.6640105E-006  0.9593873E+02  0.7546771E-02  0.1289557E+00
         21   -1    0    0  503  502  0.00000000000E+00  0.00000000000E+00  0.23181017603E+03  0.23181017603E+03  0.00000000000E+00 0. -1.
          2   -1    0    0  502    0 -0.00000000000E+00 -0.00000000000E+00 -0.15284761762E+03  0.15284761762E+03  0.00000000000E+00 0. -1.
         23    2    1    2    0    0 -0.28900741760E+02  0.44432434149E+01  0.42310481826E+02  0.10457126638E+03  0.91049314072E+02 0.  0.
         23    2    1    2    0    0  0.19499677305E+02  0.30150839788E+02  0.41577827501E+02  0.10711074081E+03  0.91949358358E+02 0.  0.
        -11    1    3    3    0    0 -0.44926674805E+02 -0.29686100352E+02  0.96887666154E+01  0.54713278660E+02  0.00000000000E+00 0. -1.
         11    1    3    3    0    0  0.16025933046E+02  0.34129343767E+02  0.32621715210E+02  0.49857987717E+02  0.00000000000E+00 0.  1.
        -11    1    4    4    0    0  0.24484469592E+02 -0.28633399316E+02  0.58103649058E+01  0.38119826179E+02  0.00000000000E+00 0.  1.
         11    1    4    4    0    0 -0.49847922871E+01  0.58784239104E+02  0.35767462596E+02  0.68990914631E+02  0.00000000000E+00 0. -1.
         21    1    1    2  503  501 -0.22946034231E+02 -0.23468486880E+02  0.77266874925E+02  0.83949153207E+02  0.00000000000E+00 0. -1.
          2    1    1    2  501    0  0.32347098686E+02 -0.11125596323E+02 -0.82192625845E+02  0.89026633263E+02  0.00000000000E+00 0. -1.
<scales pt_clust_5="13000.00000" pt_clust_6="13000.00000" pt_clust_7="13000.00000" pt_clust_8="13000.00000" pt_clust_9="32.82210" pt_clust_10="33.89570"></scales>
<clustering>
<clus scale="   32.822">  1  9  2 -1</clus>
<clus scale="   33.896">  1 10  2 -1</clus>
<clus scale="   91.049">  5  6 -1 -1</clus>
<clus scale="   91.949">  7  8 -1 -1</clus>
<clus scale="   95.076">  2  5  1 -1</clus>
<clus scale="   32.822">  1  5  2 -1</clus>
</clustering>
</event>
<event>
10    2  0.6640105E-006  0.1298537E+03  0.7546771E-02  0.1227675E+00
         -3   -1    0    0    0  501 -0.00000000000E+00  0.00000000000E+00  0.16404186670E+03  0.16404186670E+03  0.00000000000E+00 0.  1.
         21   -1    0    0  503  502  0.00000000000E+00 -0.00000000000E+00 -0.65598701741E+03  0.65598701741E+03  0.00000000000E+00 0.  1.
         23    2    1    2    0    0  0.87943720936E+02  0.61775168356E+02  0.98029450449E+02  0.17082400908E+03  0.89558916056E+02 0.  0.
         23    2    1    2    0    0 -0.17408285481E+02 -0.42208276137E+02 -0.13146079829E+03  0.16549621831E+03  0.89568241092E+02 0.  0.
        -13    1    3    3    0    0  0.13092509285E+02  0.30752969290E+02  0.81558516942E+02  0.88141650797E+02  0.00000000000E+00 0.  1.
         13    1    3    3    0    0  0.74851211651E+02  0.31022199067E+02  0.16470933507E+02  0.82682358283E+02  0.00000000000E+00 0. -1.
        -13    1    4    4    0    0  0.30417165803E+02 -0.41175774067E+02 -0.82147974343E+02  0.96793274736E+02  0.00000000000E+00 0.  1.
         13    1    4    4    0    0 -0.47825451284E+02 -0.10325020696E+01 -0.49312823944E+02  0.68702943579E+02  0.00000000000E+00 0. -1.
         21    1    1    2  503  501  0.39091582046E+02  0.10323528728E+02 -0.12327675246E+03  0.12973775368E+03  0.00000000000E+00 0. -1.
         -3    1    1    2    0  502 -0.10962701750E+03 -0.29890420947E+02 -0.33523705041E+03  0.35397090304E+03  0.00000000000E+00 0.  1.
<scales pt_clust_5="13000.00000" pt_clust_6="13000.00000" pt_clust_7="13000.00000" pt_clust_8="13000.00000" pt_clust_9="40.43176" pt_clust_10="87.31556"></scales>
<clustering>
<clus scale="   40.432">  2  9  1 -1</clus>
<clus scale="   87.316">  2 10  1 -1</clus>
<clus scale="   89.559">  5  6 -1 -1</clus>
<clus scale="   89.568">  7  8 -1 -1</clus>
<clus scale="  129.847">  1  5  2 -1</clus>
<clus scale="   40.432">  2  5  1 -1</clus>
</clustering>
</event>
<event>
10    2  0.6640105E-006  0.1137264E+03  0.7546771E-02  0.1253903E+00
         21   -1    0    0  501  502  0.00000000000E+00  0.00000000000E+00  0.11190046494E+03  0.11190046494E+03  0.00000000000E+00 0. -1.
          3   -1    0    0  503    0 -0.00000000000E+00 -0.00000000000E+00 -0.42597183534E+03  0.42597183534E+03  0.00000000000E+00 0. -1.
         23    2    1    2    0    0 -0.60007556199E+02  0.53967631365E+02 -0.27304341630E+03  0.29906837629E+03  0.91519257420E+02 0.  0.
         23    2    1    2    0    0  0.48695292093E+02 -0.90417550643E+01 -0.93340585585E+02  0.13963995621E+03  0.91290019426E+02 0.  0.
        -11    1    3    3    0    0 -0.33553806187E+02 -0.79140253446E+01 -0.26437997465E+02  0.43444877912E+02  0.00000000000E+00 0.  1.
         11    1    3    3    0    0 -0.26453750011E+02  0.61881656709E+02 -0.24660541883E+03  0.25562349838E+03  0.00000000000E+00 0. -1.
        -13    1    4    4    0    0  0.41031817250E+02  0.31828306201E+02 -0.81086644040E+02  0.96289640897E+02  0.00000000000E+00 0. -1.
         13    1    4    4    0    0  0.76634748435E+01 -0.40870061266E+02 -0.12253941546E+02  0.43350315315E+02  0.00000000000E+00 0.  1.
         21    1    1    2  503  502  0.28394649929E+02 -0.18114894637E+01 -0.10425118266E+01  0.28471467640E+02  0.00000000000E+00 0. -1.
          3    1    1    2  501    0 -0.17082385824E+02 -0.43114386837E+02  0.53355143309E+02  0.70692500134E+02  0.00000000000E+00 0. -1.
<scales pt_clust_5="13000.00000" pt_clust_6="13000.00000" pt_clust_7="13000.00000" pt_clust_8="13000.00000" pt_clust_9="28.45237" pt_clust_10="44.26695"></scales>
<clustering>
<clus scale="   28.452">  1  9  2 -1</clus>
<clus scale="   44.267">  1 10  2 -1</clus>
<clus scale="   91.290">  7  8 -1 -1</clus>
<clus scale="   91.519">  5  6 -1 -1</clus>
<clus scale="  113.542">  1  7  2 -1</clus>
<clus scale="   28.452">  1  5  2 -1</clus>
</clustering>
</event>
<event>
10    2  0.6640105E-006  0.1207902E+03  0.7546771E-02  0.1243301E+00
          1   -1    0    0  503    0 -0.00000000000E+00  0.00000000000E+00  0.29867428657E+03  0.29867428657E+03  0.00000000000E+00 0. -1.
         21   -1    0    0  501  502  0.00000000000E+00 -0.00000000000E+00 -0.12295080663E+03  0.12295080663E+03  0.00000000000E+00 0.  1.
         23    2    1    2    0    0 -0.67565794421E+02 -0.36110032956E+02  0.14089296343E+03  0.18123177327E+03  0.84410055344E+02 0.  0.
         23    2    1    2    0    0  0.87209774427E+02  0.28518229262E+02  0.57300605731E+02  0.14031095284E+03  0.89358658871E+02 0.  0.
        -11    1    3    3    0    0 -0.28675040323E+02 -0.25428586482E+02  0.40148289777E+01  0.38535565387E+02  0.00000000000E+00 0.  1.
         11    1    3    3    0    0 -0.38890754099E+02 -0.10681446473E+02  0.13687813446E+03  0.14269620789E+03  0.00000000000E+00 0. -1.
        -13    1    4    4    0    0  0.99516297128E+01  0.31147066661E+02 -0.13603564063E+02  0.35415133076E+02  0.00000000000E+00 0.  1.
         13    1    4    4    0    0  0.77258144714E+02 -0.26288373995E+01  0.70904169794E+02  0.10489581977E+03  0.00000000000E+00 0. -1.
         21    1    1    2  503  502  0.18369815606E+02  0.40364291304E+02 -0.22854475981E+02  0.49890412007E+02  0.00000000000E+00 0.  1.
          1    1    1    2  501    0 -0.38013795612E+02 -0.32772487611E+02  0.38438675476E+00  0.50191955074E+02  0.00000000000E+00 0. -1.
<scales pt_clust_5="13000.00000" pt_clust_6="13000.00000" pt_clust_7="13000.00000" pt_clust_8="13000.00000" pt_clust_9="44.34779" pt_clust_10="38.97523"></scales>
<clustering>
<clus scale="   44.348">  2  9  1 -1</clus>
<clus scale="   38.975">  2 10  1 -1</clus>
<clus scale="   84.410">  5  6 -1 -1</clus>
<clus scale="   89.359">  7  8 -1 -1</clus>
<clus scale="  117.177">  1  5  2 -1</clus>
<clus scale="   44.348">  2  5  1 -1</clus>
</clustering>
</event>
<event>
10    2  0.6640105E-006  0.1085017E+03  0.7546771E-02  0.1264038E+00
         21   -1    0    0  501  502  0.00000000000E+00  0.00000000000E+00  0.38154329622E+03  0.38154329622E+03  0.00000000000E+00 0.  1.
         -1   -1    0    0    0  501 -0.00000000000E+00 -0.00000000000E+00 -0.12155579948E+03  0.12155579948E+03  0.00000000000E+00 0.  1.
         23    2    1    2    0    0  0.66136624407E+02 -0.16611851450E+02 -0.52362853592E+02  0.12471745781E+03  0.90346937690E+02 0.  0.
         23    2    1    2    0    0 -0.20311916944E+02  0.21617750317E+02  0.86690432601E+02  0.12984950791E+03  0.92009578309E+02 0.  0.
        -11    1    3    3    0    0  0.13634637951E+02  0.25143723989E+02 -0.49989044137E+02  0.57593530382E+02  0.00000000000E+00 0. -1.
         11    1    3    3    0    0  0.52501986457E+02 -0.41755575440E+02 -0.23738094548E+01  0.67123927429E+02  0.00000000000E+00 0.  1.
        -13    1    4    4    0    0  0.13280592512E+02 -0.20407437432E+02  0.69070609591E+02  0.73236512405E+02  0.00000000000E+00 0.  1.
         13    1    4    4    0    0 -0.33592509456E+02  0.42025187749E+02  0.17619823010E+02  0.56612995503E+02  0.00000000000E+00 0. -1.
         21    1    1    2  503  502  0.21490135126E+01 -0.33371772161E+02  0.15485279695E+03  0.15842247997E+03  0.00000000000E+00 0.  1.
         -1    1    1    2    0  503 -0.47973720976E+02  0.28365873295E+02  0.70807120775E+02  0.90109650008E+02  0.00000000000E+00 0.  1.
<scales pt_clust_5="13000.00000" pt_clust_6="13000.00000" pt_clust_7="13000.00000" pt_clust_8="13000.00000" pt_clust_9="33.44089" pt_clust_10="49.98163"></scales>
<clustering>
<clus scale="   33.441">  1  9  2 -1</clus>
<clus scale="   49.982">  1 10  2 -1</clus>
<clus scale="   90.347">  5  6 -1 -1</clus>
<clus scale="   92.010">  7  8 -1 -1</clus>
<clus scale="  107.095">  2  5  1 -1</clus>
<clus scale="   33.441">  1  5  2 -1</clus>
</clustering>
</event>
<event>
10    2  0.6640105E-006  0.2457294E+03  0.7546771E-02  0.1116062E+00
         21   -1    0    0  501  502  0.00000000000E+00  0.00000000000E+00  0.32390519276E+03  0.32390519276E+03  0.00000000000E+00 0. -1.
         -1   -1    0    0    0  501 -0.00000000000E+00 -0.00000000000E+00 -0.51462229179E+03  0.51462229179E+03  0.00000000000E+00 0.  1.
         23    2    1    2    0    0  0.23456352480E+03 -0.91131359680E+02 -0.38418560011E+03  0.46836469140E+03  0.91880013794E+02 0.  0.
         23    2    1    2    0    0 -0.13028793713E+03  0.15671812427E+02  0.13961059282E+03  0.21269713946E+03  0.92349354313E+02 0.  0.
        -13    1    3    3    0    0  0.18177981097E+03 -0.40326761041E+02 -0.32338706311E+03  0.37316127870E+03  0.00000000000E+00 0.  1.
         13    1    3    3    0    0  0.52783713839E+02 -0.50804598639E+02 -0.60798536995E+02  0.95203412703E+02  0.00000000000E+00 0. -1.
        -13    1    4    4    0    0 -0.64425501734E+02 -0.71392921040E+01  0.12597756243E+03  0.14167554836E+03  0.00000000000E+00 0.  1.
         13    1    4    4    0    0 -0.65862435394E+02  0.22811104531E+02  0.13633030390E+02  0.71021591108E+02  0.00000000000E+00 0. -1.
         21    1    1    2  503  502 -0.36387207849E+02  0.22478433112E+02  0.57036908702E+02  0.71291779361E+02  0.00000000000E+00 0.  1.
         -1    1    1    2    0  503 -0.67888379828E+02  0.52981114141E+02 -0.31790004395E+01  0.86173874319E+02  0.00000000000E+00 0.  1.
<scales pt_clust_5="13000.00000" pt_clust_6="13000.00000" pt_clust_7="13000.00000" pt_clust_8="13000.00000" pt_clust_9="42.77042" pt_clust_10="92.91063"></scales>
<clustering>
<clus scale="   42.770">  1  9  2 -1</clus>
<clus scale="   91.880">  5  6 -1 -1</clus>
<clus scale="   92.349">  7  8 -1 -1</clus>
<clus scale="   92.911">  1 10  2 -1</clus>
<clus scale="  245.553">  2  5  1 -1</clus>
<clus scale="   42.770">  1  5  2 -1</clus>
</clustering>
</event>
<event>
10    2  0.6640105E-006  0.2986033E+03  0.7546771E-02  0.1086000E+00
          1   -1    0    0  503    0 -0.00000000000E+00  0.00000000000E+00  0.56489581476E+03  0.56489581476E+03  0.00000000000E+00 0. -1.
         21   -1    0    0  501  502  0.00000000000E+00 -0.00000000000E+00 -0.38392566270E+03  0.38392566270E+03  0.00000000000E+00 0.  1.
         23    2    1    2    0    0 -0.25223230493E+03  0.10724480402E+03  0.36209704196E+03  0.46369015686E+03  0.93657408312E+02 0.  0.
         23    2    1    2    0    0  0.29200858328E+03 -0.13446163936E+03 -0.65891972842E+02  0.34085543889E+03  0.92150599389E+02 0.  0.
        -11    1    4    4    0    0  0.24992194867E+03 -0.14121405184E+03 -0.37165279101E+02  0.28945404961E+03  0.00000000000E+00 0.  1.
         11    1    4    4    0    0  0.42086634612E+02  0.67524124754E+01 -0.28726693741E+02  0.51401389286E+02  0.00000000000E+00 0. -1.
        -13    1    3    3    0    0 -0.93298341105E+02  0.64020006414E+02  0.85712564766E+02  0.14194993988E+03  0.00000000000E+00 0.  1.
         13    1    3    3    0    0 -0.15893396383E+03  0.43224797608E+02  0.27638447720E+03  0.32174021698E+03  0.00000000000E+00 0. -1.
         21    1    1    2  503  502 -0.89535667202E+01  0.37212451039E+02 -0.10258271706E+03  0.10949039551E+03  0.00000000000E+00 0.  1.
          1    1    1    2  501    0 -0.30822711632E+02 -0.99956156970E+01 -0.12652200000E+02  0.34785486202E+02  0.00000000000E+00 0. -1.
<scales pt_clust_5="13000.00000" pt_clust_6="13000.00000" pt_clust_7="13000.00000" pt_clust_8="13000.00000" pt_clust_9="38.72216" pt_clust_10="32.40296"></scales>
<clustering>
<clus scale="   32.403">  2 10  1 -1</clus>
<clus scale="   38.722">  2  9  1 -1</clus>
<clus scale="   92.151">  5  6 -1 -1</clus>
<clus scale="   93.657">  7  8 -1 -1</clus>
<clus scale="  298.134">  2  5  1 -1</clus>
<clus scale="   32.403">  2  5  1 -1</clus>
</clustering>
</event>
<event>
10    2  0.6640105E-006  0.1907088E+03  0.7546771E-02  0.1157993E+00
         21   -1    0    0  501  502  0.00000000000E+00  0.00000000000E+00  0.30964241842E+03  0.30964241842E+03  0.00000000000E+00 0.  1.
         -1   -1    0    0    0  501 -0.00000000000E+00 -0.00000000000E+00 -0.13309700833E+04  0.13309700833E+04  0.00000000000E+00 0.  1.
         23    2    1    2    0    0  0.10393131573E+03  0.13776801572E+03 -0.67882906591E+03  0.70641054725E+03  0.91788975397E+02 0.  0.
         23    2    1    2    0    0  0.21126183912E+02 -0.18863779356E+03 -0.54451610587E+03  0.58366733703E+03  0.90217725293E+02 0.  0.
        -13    1    4    4    0    0  0.47518806699E+02 -0.57653086261E+02 -0.23357079797E+03  0.24522893999E+03  0.00000000000E+00 0.  1.
         13    1    4    4    0    0 -0.26392622787E+02 -0.13098470730E+03 -0.31094530790E+03  0.33843839703E+03  0.00000000000E+00 0. -1.
        -13    1    3    3    0    0  0.12062355442E+03  0.11232065840E+03 -0.58444485431E+03  0.60724110525E+03  0.00000000000E+00 0.  1.
         13    1    3    3    0    0 -0.16692238688E+02  0.25447357319E+02 -0.94384211603E+02  0.99169442001E+02  0.00000000000E+00 0. -1.
         21    1    1    2  503  502 -0.24016070931E+02 -0.19092124313E+02  0.22365191812E+03  0.22574645369E+03  0.00000000000E+00 0.  1.
         -1    1    1    2    0  503 -0.10104142871E+03  0.69961902156E+02 -0.21634411241E+02  0.12478816378E+03  0.00000000000E+00 0.  1.
<scales pt_clust_5="13000.00000" pt_clust_6="13000.00000" pt_clust_7="13000.00000" pt_clust_8="13000.00000" pt_clust_9="30.68030" pt_clust_10="129.52158"></scales>
<clustering>
<clus scale="   30.680">  1  9  2 -1</clus>
<clus scale="   90.218">  5  6 -1 -1</clus>
<clus scale="   91.789">  7  8 -1 -1</clus>
<clus scale="  129.522">  1 10  2 -1</clus>
<clus scale="  189.958">  1  5  2 -1</clus>
<clus scale="   30.680">  1  5  2 -1</clus>
</clustering>
</event>
<event>
10    2  0.6640105E-006  0.1017040E+03  0.7546771E-02  0.1277271E+00
          1   -1    0    0  502    0 -0.00000000000E+00  0.00000000000E+00  0.27332013510E+03  0.27332013510E+03  0.00000000000E+00 0. -1.
         21   -1    0    0  503  502  0.00000000000E+00 -0.00000000000E+00 -0.37010215829E+03  0.37010215829E+03  0.00000000000E+00 0. -1.
         23    2    1    2    0    0  0.34979676401E+02 -0.21147576563E+01  0.16043750291E+03  0.18804886245E+03  0.91619497749E+02 0.  0.
         23    2    1    2    0    0 -0.64720352597E+02 -0.39704618123E+02  0.59234702488E+02  0.13215603326E+03  0.90505725824E+02 0.  0.
        -11    1    3    3    0    0 -0.12986992953E+02 -0.35468726051E+02  0.81649849891E+02  0.89963273067E+02  0.00000000000E+00 0.  1.
         11    1    3    3    0    0  0.47966669353E+02  0.33353968394E+02  0.78787653020E+02  0.98085589384E+02  0.00000000000E+00 0. -1.
        -11    1    4    4    0    0 -0.76092796663E+02 -0.56990371067E+02  0.58136761002E+02  0.11143562751E+03  0.00000000000E+00 0.  1.
         11    1    4    4    0    0  0.11372444066E+02  0.17285752944E+02  0.10979414857E+01  0.20720405749E+02  0.00000000000E+00 0. -1.
         21    1    1    2  503  501  0.28885868341E+01  0.29055162578E+02 -0.22885650702E+03  0.23071161048E+03  0.00000000000E+00 0. -1.
          1    1    1    2  501    0  0.26852089362E+02  0.12764213201E+02 -0.87597721570E+02  0.92505787203E+02  0.00000000000E+00 0. -1.
<scales pt_clust_5="13000.00000" pt_clust_6="13000.00000" pt_clust_7="13000.00000" pt_clust_8="13000.00000" pt_clust_9="29.19840" pt_clust_10="42.55201"></scales>
<clustering>
<clus scale="   29.198">  2  9  1 -1</clus>
<clus scale="   42.552">  2 10  1 -1</clus>
<clus scale="   90.506">  7  8 -1 -1</clus>
<clus scale="   91.619">  5  6 -1 -1</clus>
<clus scale="  100.702">  2  7  1 -1</clus>
<clus scale="   29.198">  2  5  1 -1</clus>
</clustering>
</event>
<event>
10    2  0.6640105E-006  0.1968695E+03  0.7546771E-02  0.1171183E+00
         21   -1    0    0  501  502  0.00000000000E+00  0.00000000000E+00  0.38405854555E+03  0.38405854555E+03  0.00000000000E+00 0.  1.
          2   -1    0    0  503    0 -0.00000000000E+00 -0.00000000000E+00 -0.57805745063E+03  0.57805745063E+03  0.00000000000E+00 0. -1.
         23    2    1    2    0    0  0.56772402448E+02  0.67224213884E+02 -0.11210390566E+03  0.16965213936E+03  0.92045435039E+02 0.  0.
         23    2    1    2    0    0 -0.11325833605E+03 -0.22759211994E+02 -0.17157409465E+03  0.22610248318E+03  0.91319387489E+02 0.  0.
        -13    1    3    3    0    0  0.46493468946E+02  0.29501918582E+01 -0.85873867497E+01  0.47371821770E+02  0.00000000000E+00 0.  1.
         13    1    3    3    0    0  0.10278933503E+02  0.64274022026E+02 -0.10351651891E+03  0.12228031759E+03  0.00000000000E+00 0. -1.
        -13    1    4    4    0    0 -0.48256181979E+01 -0.35281674806E+02 -0.25720772775E+02  0.43927682846E+02  0.00000000000E+00 0.  1.
         13    1    4    4    0    0 -0.10843271785E+03  0.12522462812E+02 -0.14585332188E+03  0.18217480034E+03  0.00000000000E+00 0. -1.
         21    1    1    2  503  502  0.11557523950E+03  0.15853356567E+03  0.23774797537E+03  0.30824442773E+03  0.00000000000E+00 0.  1.
          2    1    1    2  501    0 -0.59089305902E+02 -0.20299856756E+03 -0.14806888014E+03  0.25811694592E+03  0.00000000000E+00 0. -1.
<scales pt_clust_5="13000.00000" pt_clust_6="13000.00000" pt_clust_7="13000.00000" pt_clust_8="13000.00000" pt_clust_9="196.86951" pt_clust_10="13000.00000"></scales>
<clustering>
<clus scale="   91.319">  7  8 -1 -1</clus>
<clus scale="   92.045">  5  6 -1 -1</clus>
<clus scale="  127.336">  2  5  1 -1</clus>
<clus scale="  126.671">  2  7  1 -1</clus>
<clus scale="  196.870">  1  9  2 -1</clus>
<clus scale="  196.870">  1  5  2 -1</clus>
</clustering>
</event>
<event>
10    2  0.6640105E-006  0.1465230E+03  0.7546771E-02  0.1204952E+00
         21   -1    0    0  503  502  0.00000000000E+00  0.00000000000E+00  0.14742219089E+03  0.14742219089E+03  0.00000000000E+00 0.  1.
         -2   -1    0    0    0  501 -0.00000000000E+00 -0.00000000000E+00 -0.94575337977E+03  0.94575337977E+03  0.00000000000E+00 0.  1.
         23    2    1    2    0    0  0.60469467446E+02 -0.85854015857E+02 -0.40833093858E+03  0.43135938857E+03  0.91155351873E+02 0.  0.
         23    2    1    2    0    0 -0.12955564689E+03  0.53911414021E+02 -0.39957612703E+03  0.43304927785E+03  0.90440530444E+02 0.  0.
        -11    1    4    4    0    0 -0.33248481434E+02  0.16325700328E+02 -0.25547619788E+02  0.44996343026E+02  0.00000000000E+00 0. -1.
         11    1    4    4    0    0 -0.96307165452E+02  0.37585713692E+02 -0.37402850725E+03  0.38805293482E+03  0.00000000000E+00 0.  1.
        -13    1    3    3    0    0  0.36034724554E+02  0.84303446822E+01 -0.68643125747E+02  0.77983657246E+02  0.00000000000E+00 0. -1.
         13    1    3    3    0    0  0.24434742892E+02 -0.94284360539E+02 -0.33968781283E+03  0.35337573132E+03  0.00000000000E+00 0.  1.
         21    1    1    2  503  501 -0.25642887481E+02 -0.49331216550E+02  0.70573914546E+02  0.89843219104E+02  0.00000000000E+00 0.  1.
         -2    1    1    2    0  502  0.94729066921E+02  0.81273818386E+02 -0.60998037812E+02  0.13892368514E+03  0.00000000000E+00 0.  1.
<scales pt_clust_5="13000.00000" pt_clust_6="13000.00000" pt_clust_7="13000.00000" pt_clust_8="13000.00000" pt_clust_9="55.59790" pt_clust_10="95.67226"></scales>
<clustering>
<clus scale="   55.598">  1  9  2 -1</clus>
<clus scale="   90.441">  5  6 -1 -1</clus>
<clus scale="   91.155">  7  8 -1 -1</clus>
<clus scale="   95.672">  1 10  2 -1</clus>
<clus scale="  146.079">  1  5  2 -1</clus>
<clus scale="   55.598">  1  5  2 -1</clus>
</clustering>
</event>
<event>
10    2  0.6640105E-006  0.1032113E+03  0.7546771E-02  0.1274160E+00
          2   -1    0    0  503    0 -0.00000000000E+00  0.00000000000E+00  0.89331297498E+03  0.89331297498E+03  0.00000000000E+00 0. -1.
         21   -1    0    0  501  502  0.00000000000E+00 -0.00000000000E+00 -0.40593086459E+03  0.40593086459E+03  0.00000000000E+00 0. -1.
         23    2    1    2    0    0  0.45592949603E+02 -0.33442957099E+02  0.55480751266E+03  0.56500283120E+03  0.90662421800E+02 0.  0.
         23    2    1    2    0    0  0.84363357848E+01  0.50980191741E+02  0.32138522872E+03  0.33818840793E+03  0.91721220608E+02 0.  0.
        -11    1    4    4    0    0 -0.26139553956E+02  0.62242072111E+02  0.23388592085E+03  0.24343371951E+03  0.00000000000E+00 0.  1.
         11    1    4    4    0    0  0.34575889741E+02 -0.11261880370E+02  0.87499307863E+02  0.94754688419E+02  0.00000000000E+00 0. -1.
        -13    1    3    3    0    0 -0.23349839496E+02  0.75473211555E+01  0.88122543279E+02  0.91475459524E+02  0.00000000000E+00 0.  1.
         13    1    3    3    0    0  0.68942789099E+02 -0.40990278254E+02  0.46668496938E+03  0.47352737168E+03  0.00000000000E+00 0. -1.
         21    1    1    2  503  502 -0.61743085810E+01 -0.19106828192E+02 -0.50094108533E+02  0.53968626810E+02  0.00000000000E+00 0. -1.
          2    1    1    2  501    0 -0.47854976807E+02  0.15695935495E+01 -0.33871652246E+03  0.34208397363E+03  0.00000000000E+00 0. -1.
<scales pt_clust_5="13000.00000" pt_clust_6="13000.00000" pt_clust_7="13000.00000" pt_clust_8="13000.00000" pt_clust_9="20.07967" pt_clust_10="56.35861"></scales>
<clustering>
<clus scale="   20.080">  2  9  1 -1</clus>
<clus scale="   56.359">  2 10  1 -1</clus>
<clus scale="   90.662">  7  8 -1 -1</clus>
<clus scale="   91.721">  5  6 -1 -1</clus>
<clus scale="  102.271">  1  7  2 -1</clus>
<clus scale="   20.080">  2  5  1 -1</clus>
</clustering>
</event>
<event>
10    2  0.6640105E-006  0.3888199E+03  0.7546771E-02  0.1047750E+00
         -4   -1    0    0    0  501 -0.00000000000E+00  0.00000000000E+00  0.44648676296E+03  0.44648676296E+03  0.00000000000E+00 0.  1.
         21   -1    0    0  503  502  0.00000000000E+00 -0.00000000000E+00 -0.54818384946E+03  0.54818384946E+03  0.00000000000E+00 0. -1.
         23    2    1    2    0    0  0.20166469317E+03  0.31337310328E+03  0.13816465037E+03  0.40781018487E+03  0.91369173931E+02 0.  0.
         23    2    1    2    0    0 -0.23455675290E+03 -0.30917775731E+03 -0.75774491988E+02  0.40551711870E+03  0.89970017113E+02 0.  0.
        -11    1    4    4    0    0 -0.52235298894E+02 -0.32395512315E+02  0.12066840117E+02  0.62638680535E+02  0.00000000000E+00 0.  1.
         11    1    4    4    0    0 -0.18232145401E+03 -0.27678224499E+03 -0.87841332105E+02  0.34287843817E+03  0.00000000000E+00 0. -1.
        -13    1    3    3    0    0  0.17859091459E+03  0.25188568332E+03  0.77376247989E+02  0.31832090096E+03  0.00000000000E+00 0.  1.
         13    1    3    3    0    0  0.23073778581E+02  0.61487419956E+02  0.60788402381E+02  0.89489283911E+02  0.00000000000E+00 0. -1.
         21    1    1    2  503  501 -0.25006509923E+01  0.28691849269E+02 -0.57057150873E+02  0.63913957283E+02  0.00000000000E+00 0. -1.
         -4    1    1    2    0  502  0.35392710720E+02 -0.32887195240E+02 -0.10703009402E+03  0.11742935156E+03  0.00000000000E+00 0.  1.
<scales pt_clust_5="13000.00000" pt_clust_6="13000.00000" pt_clust_7="13000.00000" pt_clust_8="13000.00000" pt_clust_9="28.80062" pt_clust_10="43.62478"></scales>
<clustering>
<clus scale="   28.801">  2  9  1 -1</clus>
<clus scale="   43.625">  2 10  1 -1</clus>
<clus scale="   89.970">  5  6 -1 -1</clus>
<clus scale="   91.369">  7  8 -1 -1</clus>
<clus scale="  388.494">  2  5  1 -1</clus>
<clus scale="   28.801">  2  5  1 -1</clus>
</clustering>
</event>
<event>
10    2  0.6640105E-006  0.2837518E+03  0.7546771E-02  0.1140170E+00
         21   -1    0    0  501  502  0.00000000000E+00  0.00000000000E+00  0.32696079655E+03  0.32696079655E+03  0.00000000000E+00 0. -1.
          1   -1    0    0  503    0 -0.00000000000E+00 -0.00000000000E+00 -0.52242503616E+03  0.52242503616E+03  0.00000000000E+00 0. -1.
         23    2    1    2    0    0 -0.23502493512E+02 -0.24211259787E+02 -0.38623162213E+02  0.96136549232E+02  0.81313806559E+02 0.  0.
         23    2    1    2    0    0 -0.21737842268E+03  0.79468875543E+02 -0.16162605458E+03  0.29557780221E+03  0.87604650648E+02 0.  0.
        -13    1    3    3    0    0 -0.16709974775E+02  0.18887954555E+02 -0.45446899921E+02  0.51974982411E+02  0.00000000000E+00 0.  1.
         13    1    3    3    0    0 -0.67925187367E+01 -0.43099214342E+02  0.68237377079E+01  0.44161566820E+02  0.00000000000E+00 0. -1.
        -13    1    4    4    0    0 -0.45920530296E+02  0.15749399618E+02  0.41431960442E+01  0.48722733548E+02  0.00000000000E+00 0.  1.
         13    1    4    4    0    0 -0.17145789239E+03  0.63719475926E+02 -0.16576925062E+03  0.24685506867E+03  0.00000000000E+00 0. -1.
         21    1    1    2  503  502 -0.93653608831E+02 -0.46538999936E+02  0.56793967467E+02  0.11900601541E+03  0.00000000000E+00 0. -1.
          1    1    1    2  501    0  0.33453452502E+03 -0.87186158200E+01 -0.52008990285E+02  0.33866546586E+03  0.00000000000E+00 0. -1.
<scales pt_clust_5="13000.00000" pt_clust_6="13000.00000" pt_clust_7="13000.00000" pt_clust_8="13000.00000" pt_clust_9="106.75753" pt_clust_10="269.88986"></scales>
<clustering>
<clus scale="   81.314">  5  6 -1 -1</clus>
<clus scale="   87.605">  7  8 -1 -1</clus>
<clus scale="   88.037">  2  5  1 -1</clus>
<clus scale="  106.758">  1  9  2 -1</clus>
<clus scale="  269.890">  1 10  2 -1</clus>
<clus scale="  106.758">  1  5  2 -1</clus>
</clustering>
</event>
<event>
10    2  0.6640105E-006  0.9736634E+02  0.7546771E-02  0.1290492E+00
          2   -1    0    0  503    0 -0.00000000000E+00  0.00000000000E+00  0.44001883848E+03  0.44001883848E+03  0.00000000000E+00 0. -1.
         21   -1    0    0  501  502  0.00000000000E+00 -0.00000000000E+00 -0.25215599095E+03  0.25215599095E+03  0.00000000000E+00 0. -1.
         23    2    1    2    0    0 -0.21535557580E+02  0.32083776555E+02  0.27249139266E+03  0.28755075285E+03  0.83311028284E+02 0.  0.
         23    2    1    2    0    0  0.35856202512E+02  0.11721399279E+02  0.10637946640E+03  0.14550744628E+03  0.91830101777E+02 0.  0.
        -11    1    3    3    0    0 -0.51400024191E+02  0.31331702977E+02  0.15388379241E+03  0.16523879588E+03  0.00000000000E+00 0.  1.
         11    1    3    3    0    0  0.29864466611E+02  0.75207357767E+00  0.11860760025E+03  0.12231195697E+03  0.00000000000E+00 0. -1.
        -13    1    4    4    0    0  0.46031678789E+02  0.34784397861E+02  0.10554511294E+03  0.12028566271E+03  0.00000000000E+00 0. -1.
         13    1    4    4    0    0 -0.10175476277E+02 -0.23062998582E+02  0.83435345860E+00  0.25221783576E+02  0.00000000000E+00 0.  1.
         21    1    1    2  503  502 -0.31009433557E+02 -0.17806982964E+02 -0.21627191465E+03  0.21920815376E+03  0.00000000000E+00 0. -1.
          2    1    1    2  501    0  0.16688788625E+02 -0.25998192870E+02  0.25263903115E+02  0.39908476529E+02  0.00000000000E+00 0. -1.
<scales pt_clust_5="13000.00000" pt_clust_6="13000.00000" pt_clust_7="13000.00000" pt_clust_8="13000.00000" pt_clust_9="44.00571" pt_clust_10="30.89373"></scales>
<clustering>
<clus scale="   30.894">  2 10  1 -1</clus>
<clus scale="   44.006">  2  9  1 -1</clus>
<clus scale="   83.311">  5  6 -1 -1</clus>
<clus scale="   89.377">  1  5  2 -1</clus>
<clus scale="   91.830">  7  8 -1 -1</clus>
<clus scale="   30.894">  2  5  1 -1</clus>
</clustering>
</event>
<event>
10    2  0.6640105E-006  0.5183837E+03  0.7546771E-02  0.1067112E+00
         21   -1    0    0  501  502  0.00000000000E+00  0.00000000000E+00  0.36293561170E+03  0.36293561170E+03  0.00000000000E+00 0. -1.
          2   -1    0    0  503    0 -0.00000000000E+00 -0.00000000000E+00 -0.26043789281E+04  0.26043789281E+04  0.00000000000E+00 0. -1.
         23    2    1    2    0    0  0.15300498990E+02 -0.19583369222E+02 -0.24975856368E+03  0.26725061554E+03  0.91792906887E+02 0.  0.
         23    2    1    2    0    0 -0.52287199610E+03  0.27082940143E+02 -0.16731982167E+04  0.17555720044E+04  0.91171160229E+02 0.  0.
        -13    1    3    3    0    0  0.12671250439E+02 -0.54067656443E+02 -0.19257618683E+03  0.20042320174E+03  0.00000000000E+00 0.  1.
         13    1    3    3    0    0  0.26292485513E+01  0.34484287221E+02 -0.57182376851E+02  0.66827413802E+02  0.00000000000E+00 0. -1.
        -13    1    4    4    0    0 -0.43911851358E+03  0.17248766129E+02 -0.12770553028E+04  0.13505527888E+04  0.00000000000E+00 0. -1.
         13    1    4    4    0    0 -0.83753482512E+02  0.98341740143E+01 -0.39614291387E+03  0.40501921562E+03  0.00000000000E+00 0.  1.
         21    1    1    2  503  502  0.13876647653E+02  0.13628045765E+03  0.18142459759E+03  0.22733193594E+03  0.00000000000E+00 0. -1.
          2    1    1    2  501    0  0.49369484945E+03 -0.14378002857E+03 -0.49991113365E+03  0.71715998393E+03  0.00000000000E+00 0. -1.
<scales pt_clust_5="13000.00000" pt_clust_6="13000.00000" pt_clust_7="13000.00000" pt_clust_8="13000.00000" pt_clust_9="136.80976" pt_clust_10="510.30335"></scales>
<clustering>
<clus scale="   91.171">  7  8 -1 -1</clus>
<clus scale="   91.793">  5  6 -1 -1</clus>
<clus scale="   95.098">  2  5  1 -1</clus>
<clus scale="  136.810">  1  9  2 -1</clus>
<clus scale="  510.303">  1 10  2 -1</clus>
<clus scale="  136.810">  1  5  2 -1</clus>
</clustering>
</event>
<event>
10    2  0.6640105E-006  0.1538582E+03  0.7546771E-02  0.1213924E+00
          1   -1    0    0  502    0 -0.00000000000E+00  0.00000000000E+00  0.59937927387E+03  0.59937927387E+03  0.00000000000E+00 0. -1.
         21   -1    0    0  503  502  0.00000000000E+00 -0.00000000000E+00 -0.93664234494E+02  0.93664234494E+02  0.00000000000E+00 0. -1.
         23    2    1    2    0    0  0.47425378001E+02  0.26482177073E+02  0.29430334164E+02  0.10775051710E+03  0.88281125877E+02 0.  0.
         23    2    1    2    0    0  0.94177263401E+02 -0.31770866396E+02  0.38183474521E+03  0.40476049810E+03  0.90302509803E+02 0.  0.
        -13    1    4    4    0    0  0.19559812928E+02  0.24489629011E+02  0.17513516055E+03  0.17791754459E+03  0.00000000000E+00 0.  1.
         13    1    4    4    0    0  0.74617450474E+02 -0.56260495407E+02  0.20669958466E+03  0.22684295351E+03  0.00000000000E+00 0. -1.
        -13    1    3    3    0    0  0.14052649527E+02 -0.32251848721E+02  0.33566426422E+01  0.35340143668E+02  0.00000000000E+00 0. -1.
         13    1    3    3    0    0  0.33372728474E+02  0.58734025793E+02  0.26073691522E+02  0.72410373437E+02  0.00000000000E+00 0.  1.
         21    1    1    2  503  501 -0.10778952566E+02  0.19479076038E+02  0.13878515754E+02  0.26234203271E+02  0.00000000000E+00 0. -1.
          1    1    1    2  501    0 -0.13082368884E+03 -0.14190386714E+02  0.80571444252E+02  0.15429828990E+03  0.00000000000E+00 0. -1.
<scales pt_clust_5="13000.00000" pt_clust_6="13000.00000" pt_clust_7="13000.00000" pt_clust_8="13000.00000" pt_clust_9="22.26253" pt_clust_10="124.57045"></scales>
<clustering>
<clus scale="   22.263">  2  9  1 -1</clus>
<clus scale="   88.281">  7  8 -1 -1</clus>
<clus scale="   90.303">  5  6 -1 -1</clus>
<clus scale="  104.151">  1  7  2 -1</clus>
<clus scale="  124.570">  2 10  1 -1</clus>
<clus scale="   22.263">  2  5  1 -1</clus>
</clustering>
</event>
<event>
10    2  0.6640105E-006  0.4265208E+03  0.7546771E-02  0.1034979E+00
         21   -1    0    0  503  502  0.00000000000E+00  0.00000000000E+00  0.19592386781E+03  0.19592386781E+03  0.00000000000E+00 0. -1.
         -4   -1    0    0    0  501 -0.00000000000E+00 -0.00000000000E+00 -0.17551970047E+04  0.17551970047E+04  0.00000000000E+00 0.  1.
         23    2    1    2    0    0  0.31587417434E+03 -0.26000818334E+03 -0.12676380424E+04  0.13351360448E+04  0.91111481682E+02 0.  0.
         23    2    1    2    0    0 -0.32563150640E+03  0.30023253665E+03 -0.31306966037E+03  0.55012835090E+03  0.91940938603E+02 0.  0.
        -13    1    3    3    0    0  0.18714018505E+03 -0.15684373312E+03 -0.89306353830E+03  0.92584225920E+03  0.00000000000E+00 0.  1.
         13    1    3    3    0    0  0.12873398929E+03 -0.10316445022E+03 -0.37457450413E+03  0.40929378561E+03  0.00000000000E+00 0. -1.
        -13    1    4    4    0    0 -0.29780623331E+02  0.61698047352E+02 -0.75490044082E+02  0.10194253935E+03  0.00000000000E+00 0.  1.
         13    1    4    4    0    0 -0.29585088307E+03  0.23853448930E+03 -0.23757961629E+03  0.44818581155E+03  0.00000000000E+00 0. -1.
         21    1    1    2  503  501 -0.32947967146E+01 -0.22811637752E+02 -0.11983543592E+02  0.25977525273E+02  0.00000000000E+00 0. -1.
         -4    1    1    2    0  502  0.13052128780E+02 -0.17412715561E+02  0.33418109535E+02  0.39878951513E+02  0.00000000000E+00 0.  1.
<scales pt_clust_5="13000.00000" pt_clust_6="13000.00000" pt_clust_7="13000.00000" pt_clust_8="13000.00000" pt_clust_9="23.73313" pt_clust_10="21.76145"></scales>
<clustering>
<clus scale="   21.761">  1 10  2 -1</clus>
<clus scale="   23.733">  1  9  2 -1</clus>
<clus scale="   91.111">  5  6 -1 -1</clus>
<clus scale="   91.941">  7  8 -1 -1</clus>
<clus scale="  426.343">  2  5  1 -1</clus>
<clus scale="   21.761">  1  5  2 -1</clus>
</clustering>
</event>
<event>
10    2  0.6640105E-006  0.1023367E+03  0.7546771E-02  0.1276281E+00
         21   -1    0    0  501  502  0.00000000000E+00  0.00000000000E+00  0.18294769021E+03  0.18294769021E+03  0.00000000000E+00 0.  1.
          1   -1    0    0  503    0 -0.00000000000E+00 -0.00000000000E+00 -0.54084198498E+03  0.54084198498E+03  0.00000000000E+00 0. -1.
         23    2    1    2    0    0 -0.40656969623E+02 -0.10385542337E+02 -0.21007817433E+03  0.23331796704E+03  0.92431519221E+02 0.  0.
         23    2    1    2    0    0  0.50516784110E+02  0.44367272114E+02  0.69878238008E+02  0.13274709154E+03  0.90655511980E+02 0.  0.
        -11    1    4    4    0    0  0.61389839227E+02  0.64547200112E+02  0.61905584798E+02  0.10847743928E+03  0.00000000000E+00 0.  1.
         11    1    4    4    0    0 -0.10873055117E+02 -0.20179927998E+02  0.79726532104E+01  0.24269652260E+02  0.00000000000E+00 0. -1.
        -13    1    3    3    0    0 -0.59274231673E+01  0.37273444409E+02 -0.49451337712E+02  0.62208349963E+02  0.00000000000E+00 0.  1.
         13    1    3    3    0    0 -0.34729546455E+02 -0.47658986746E+02 -0.16062683662E+03  0.17110961708E+03  0.00000000000E+00 0. -1.
         21    1    1    2  503  502  0.33925437878E+02  0.47939781877E+02  0.48260736860E+02  0.76014845550E+02  0.00000000000E+00 0.  1.
          1    1    1    2  501    0 -0.43785252365E+02 -0.81921511654E+02 -0.26595509530E+03  0.28170977106E+03  0.00000000000E+00 0. -1.
<scales pt_clust_5="13000.00000" pt_clust_6="13000.00000" pt_clust_7="13000.00000" pt_clust_8="13000.00000" pt_clust_9="58.72953" pt_clust_10="89.09033"></scales>
<clustering>
<clus scale="   58.730">  1  9  2 -1</clus>
<clus scale="   89.090">  1 10  2 -1</clus>
<clus scale="   90.656">  5  6 -1 -1</clus>
<clus scale="   92.432">  7  8 -1 -1</clus>
<clus scale="  100.736">  1  5  2 -1</clus>
<clus scale="   58.730">  1  5  2 -1</clus>
</clustering>
</event>
<event>
10    2  0.6640105E-006  0.1310603E+03  0.7546771E-02  0.1244035E+00
         21   -1    0    0  501  502  0.00000000000E+00  0.00000000000E+00  0.12843479313E+03  0.12843479313E+03  0.00000000000E+00 0. -1.
          2   -1    0    0  503    0 -0.00000000000E+00 -0.00000000000E+00 -0.49912634591E+03  0.49912634591E+03  0.00000000000E+00 0. -1.
         23    2    1    2    0    0 -0.31355170119E+01 -0.63407330131E+01 -0.10552948947E+03  0.13894447186E+03  0.90105808646E+02 0.  0.
         23    2    1    2    0    0 -0.61621239213E+02  0.69946095257E+02 -0.16826167774E+03  0.21297667146E+03  0.91419018971E+02 0.  0.
        -11    1    4    4    0    0 -0.49954356224E+02  0.24823319153E+01 -0.29050636393E+02  0.57840635822E+02  0.00000000000E+00 0. -1.
         11    1    4    4    0    0 -0.11666882989E+02  0.67463763342E+02 -0.13921104134E+03  0.15513603564E+03  0.00000000000E+00 0.  1.
        -13    1    3    3    0    0  0.19436833661E+02  0.26931869984E+02 -0.89843913926E+02  0.95786455165E+02  0.00000000000E+00 0.  1.
         13    1    3    3    0    0 -0.22572350673E+02 -0.33272602997E+02 -0.15685575540E+02  0.43158016696E+02  0.00000000000E+00 0. -1.
         21    1    1    2  503  502 -0.32997770298E+02 -0.11746928505E+03 -0.10869165922E+03  0.16340673964E+03  0.00000000000E+00 0. -1.
          2    1    1    2  501    0  0.97754526522E+02  0.53863922810E+02  0.11791273644E+02  0.11223325608E+03  0.00000000000E+00 0. -1.
<scales pt_clust_5="13000.00000" pt_clust_6="13000.00000" pt_clust_7="13000.00000" pt_clust_8="13000.00000" pt_clust_9="93.91149" pt_clust_10="110.83976"></scales>
<clustering>
<clus scale="   90.106">  7  8 -1 -1</clus>
<clus scale="   90.383">  2  7  1 -1</clus>
<clus scale="   91.419">  5  6 -1 -1</clus>
<clus scale="  110.840">  1 10  2 -1</clus>
<clus scale="   93.911">  1  9  2 -1</clus>
<clus scale="  110.840">  1  5  2 -1</clus>
</clustering>
</event>
<event>
10    2  0.6640105E-006  0.3103565E+03  0.7546771E-02  0.1124312E+00
          1   -1    0    0  503    0 -0.00000000000E+00  0.00000000000E+00  0.69267378231E+03  0.69267378231E+03  0.00000000000E+00 0. -1.
         21   -1    0    0  501  502  0.00000000000E+00 -0.00000000000E+00 -0.76375590057E+03  0.76375590057E+03  0.00000000000E+00 0. -1.
         23    2    1    2    0    0 -0.28002624589E+02  0.29130157006E+02  0.17018740115E+03  0.19697059244E+03  0.90559095331E+02 0.  0.
         23    2    1    2    0    0 -0.86907189063E+02 -0.19659524100E+02  0.32537340017E+03  0.34964226713E+03  0.91883127001E+02 0.  0.
        -11    1    4    4    0    0 -0.25035985140E+02 -0.99154261136E+01  0.10996477928E+02  0.29086745328E+02  0.00000000000E+00 0.  1.
         11    1    4    4    0    0 -0.61871203923E+02 -0.97440979860E+01  0.31437692224E+03  0.32055552180E+03  0.00000000000E+00 0. -1.
        -11    1    3    3    0    0 -0.60021665700E+02  0.13087513815E+02  0.88021737377E+02  0.10733922686E+03  0.00000000000E+00 0. -1.
         11    1    3    3    0    0  0.32019041111E+02  0.16042643191E+02  0.82165663769E+02  0.89631365586E+02  0.00000000000E+00 0.  1.
         21    1    1    2  503  502  0.92662630801E+02  0.30156102257E+03 -0.49959422089E+03  0.59086360441E+03  0.00000000000E+00 0. -1.
          1    1    1    2  501    0  0.22247182851E+02 -0.31103165547E+03 -0.67048698682E+02  0.31895321890E+03  0.00000000000E+00 0. -1.
<scales pt_clust_5="13000.00000" pt_clust_6="13000.00000" pt_clust_7="13000.00000" pt_clust_8="13000.00000" pt_clust_9="310.35646" pt_clust_10="13000.00000"></scales>
<clustering>
<clus scale="   90.559">  7  8 -1 -1</clus>
<clus scale="   91.883">  5  6 -1 -1</clus>
<clus scale="   99.165">  1  7  2 -1</clus>
<clus scale="  139.882">  1  5  2 -1</clus>
<clus scale="  310.356">  2  9  1 -1</clus>
<clus scale="  310.356">  2  5  1 -1</clus>
</clustering>
</event>
<event>
10    2  0.6640105E-006  0.1992695E+03  0.7546771E-02  0.1164796E+00
         21   -1    0    0  501  502  0.00000000000E+00  0.00000000000E+00  0.43909723757E+03  0.43909723757E+03  0.00000000000E+00 0.  1.
          3   -1    0    0  503    0 -0.00000000000E+00 -0.00000000000E+00 -0.21039498608E+03  0.21039498608E+03  0.00000000000E+00 0. -1.
         23    2    1    2    0    0  0.85805145865E+02  0.42976479715E+02  0.46093685603E+02  0.14010325799E+03  0.91075760675E+02 0.  0.
         23    2    1    2    0    0  0.11210406038E+03  0.10195226856E+02  0.12800778624E+02  0.14567328658E+03  0.91572831590E+02 0.  0.
        -13    1    4    4    0    0  0.91064161966E+02  0.41819423923E+02  0.29089334898E+02  0.10434431090E+03  0.00000000000E+00 0.  1.
         13    1    4    4    0    0  0.21039898409E+02 -0.31624197067E+02 -0.16288556274E+02  0.41328975679E+02  0.00000000000E+00 0. -1.
        -13    1    3    3    0    0  0.43223974091E+02  0.44247577078E+02  0.68230021796E+02  0.92095037259E+02  0.00000000000E+00 0.  1.
         13    1    3    3    0    0  0.42581171774E+02 -0.12710973622E+01 -0.22136336193E+02  0.48008220736E+02  0.00000000000E+00 0. -1.
         21    1    1    2  503  502  0.30382113231E+02  0.59220748821E+02  0.26199971514E+02  0.71530471847E+02  0.00000000000E+00 0.  1.
          3    1    1    2  501    0 -0.22829131947E+03 -0.11239245539E+03  0.14360781575E+03  0.29218520722E+03  0.00000000000E+00 0. -1.
<scales pt_clust_5="13000.00000" pt_clust_6="13000.00000" pt_clust_7="13000.00000" pt_clust_8="13000.00000" pt_clust_9="66.55952" pt_clust_10="176.98234"></scales>
<clustering>
<clus scale="   66.560">  1  9  2 -1</clus>
<clus scale="   91.076">  7  8 -1 -1</clus>
<clus scale="   91.573">  5  6 -1 -1</clus>
<clus scale="  142.178">  2  7  1 -1</clus>
<clus scale="  176.982">  1 10  2 -1</clus>
<clus scale="   66.560">  1  5  2 -1</clus>
</clustering>
</event>
<event>
10    2  0.6640105E-006  0.1676217E+03  0.7546771E-02  0.1203855E+00
          1   -1    0    0  503    0 -0.00000000000E+00  0.00000000000E+00  0.11622887156E+04  0.11622887156E+04  0.00000000000E+00 0. -1.
         21   -1    0    0  501  502  0.00000000000E+00 -0.00000000000E+00 -0.37516339425E+03  0.37516339425E+03  0.00000000000E+00 0.  1.
         23    2    1    2    0    0  0.40577468510E+02  0.46855347541E+01  0.21510824996E+03  0.23717645014E+03  0.91173593307E+02 0.  0.
         23    2    1    2    0    0  0.50936778905E+01  0.66478423228E+02  0.29543209577E+03  0.31683326518E+03  0.93047667385E+02 0.  0.
        -11    1    3    3    0    0 -0.24275103681E+02 -0.10624201107E+02  0.10657533074E+03  0.10982010485E+03  0.00000000000E+00 0. -1.
         11    1    3    3    0    0  0.64852572190E+02  0.15309735861E+02  0.10853291922E+03  0.12735634529E+03  0.00000000000E+00 0.  1.
        -13    1    4    4    0    0  0.17619910626E+02 -0.20058114933E+02  0.59332699976E+02  0.65062727514E+02  0.00000000000E+00 0. -1.
         13    1    4    4    0    0 -0.12526232735E+02  0.86536538161E+02  0.23609939579E+03  0.25177053766E+03  0.00000000000E+00 0.  1.
         21    1    1    2  503  502  0.48429559939E+02  0.15767207685E+03 -0.30759256136E+03  0.34902591580E+03  0.00000000000E+00 0.  1.
          1    1    1    2  501    0 -0.94100706339E+02 -0.22883603483E+03  0.58417753698E+03  0.63441647873E+03  0.00000000000E+00 0. -1.
<scales pt_clust_5="13000.00000" pt_clust_6="13000.00000" pt_clust_7="13000.00000" pt_clust_8="13000.00000" pt_clust_9="167.62169" pt_clust_10="13000.00000"></scales>
<clustering>
<clus scale="   91.174">  5  6 -1 -1</clus>
<clus scale="   93.048">  7  8 -1 -1</clus>
<clus scale="   99.906">  1  5  2 -1</clus>
<clus scale="  116.707">  1  7  2 -1</clus>
<clus scale="  167.622">  2  9  1 -1</clus>
<clus scale="  167.622">  2  5  1 -1</clus>
</clustering>
</event>
<event>
10    2  0.6640105E-006  0.1087211E+03  0.7546771E-02  0.1263169E+00
          3   -1    0    0  502    0 -0.00000000000E+00  0.00000000000E+00  0.65680869040E+02  0.65680869040E+02  0.00000000000E+00 0. -1.
         21   -1    0    0  503  502  0.00000000000E+00 -0.00000000000E+00 -0.41092844769E+03  0.41092844769E+03  0.00000000000E+00 0.  1.
         23    2    1    2    0    0 -0.57956086400E+02 -0.24201084403E+02 -0.43361745400E+02  0.11982919042E+03  0.92380698605E+02 0.  0.
         23    2    1    2    0    0  0.47184299535E+02  0.56687464338E+01 -0.14930114806E+03  0.18162004706E+03  0.91850508293E+02 0.  0.
        -11    1    3    3    0    0 -0.49491438531E+02 -0.50566695282E+02 -0.29206132346E+01  0.70816122044E+02  0.00000000000E+00 0. -1.
         11    1    3    3    0    0 -0.84646478689E+01  0.26365610879E+02 -0.40441132165E+02  0.49013068373E+02  0.00000000000E+00 0.  1.
        -13    1    4    4    0    0 -0.23464969161E+02 -0.15013159739E+01 -0.10588657419E+02  0.25787174977E+02  0.00000000000E+00 0. -1.
         13    1    4    4    0    0  0.70649268695E+02  0.71700624077E+01 -0.13871249064E+03  0.15583287208E+03  0.00000000000E+00 0.  1.
         21    1    1    2  503  501  0.32973836950E+02 -0.76151116118E+01 -0.12941395716E+03  0.13376560154E+03  0.00000000000E+00 0.  1.
          3    1    1    2  501    0 -0.22202050084E+02  0.26147449581E+02 -0.23170728033E+02  0.41394477713E+02  0.00000000000E+00 0. -1.
<scales pt_clust_5="13000.00000" pt_clust_6="13000.00000" pt_clust_7="13000.00000" pt_clust_8="13000.00000" pt_clust_9="33.84175" pt_clust_10="31.25193"></scales>
<clustering>
<clus scale="   33.842">  2  9  1 -1</clus>
<clus scale="   31.252">  2 10  1 -1</clus>
<clus scale="   91.851">  7  8 -1 -1</clus>
<clus scale="   92.381">  5  6 -1 -1</clus>
<clus scale="  108.271">  2  7  1 -1</clus>
<clus scale="   33.842">  2  5  1 -1</clus>
</clustering>
</event>
<event>
10    2  0.6640105E-006  0.1050155E+03  0.7546771E-02  0.1278371E+00
          2   -1    0    0  503    0 -0.00000000000E+00  0.00000000000E+00  0.63996045610E+03  0.63996045610E+03  0.00000000000E+00 0. -1.
         21   -1    0    0  501  502  0.00000000000E+00 -0.00000000000E+00 -0.18473483689E+03  0.18473483689E+03  0.00000000000E+00 0. -1.
         23    2    1    2    0    0  0.20310773357E+02  0.42956854928E+02  0.46402622514E+03  0.47537573540E+03  0.91672969264E+02 0.  0.
         23    2    1    2    0    0 -0.53233724138E+02 -0.39520036280E+02  0.14710296250E+03  0.17729497177E+03  0.73474912629E+02 0.  0.
        -11    1    4    4    0    0 -0.39400022045E+02 -0.22883850720E+02  0.22479185934E+02  0.50806949929E+02  0.00000000000E+00 0.  1.
         11    1    4    4    0    0 -0.13833702093E+02 -0.16636185561E+02  0.12462377657E+03  0.12648802184E+03  0.00000000000E+00 0. -1.
        -13    1    3    3    0    0  0.44756111154E+02 -0.78911261288E+01  0.16903534471E+03  0.17503807334E+03  0.00000000000E+00 0.  1.
         13    1    3    3    0    0 -0.24445337797E+02  0.50847981057E+02  0.29499088043E+03  0.30033766207E+03  0.00000000000E+00 0. -1.
         21    1    1    2  503  502  0.27550294404E+02  0.16235856044E+02 -0.27996676243E+02  0.42502183754E+02  0.00000000000E+00 0.  1.
          2    1    1    2  501    0  0.53726563779E+01 -0.19672674691E+02 -0.12790689219E+03  0.12952240206E+03  0.00000000000E+00 0. -1.
<scales pt_clust_5="13000.00000" pt_clust_6="13000.00000" pt_clust_7="13000.00000" pt_clust_8="13000.00000" pt_clust_9="31.17050" pt_clust_10="20.39313"></scales>
<clustering>
<clus scale="   20.393">  2 10  1 -1</clus>
<clus scale="   31.171">  2  9  1 -1</clus>
<clus scale="   73.475">  5  6 -1 -1</clus>
<clus scale="   89.571">  2  5  1 -1</clus>
<clus scale="   91.673">  7  8 -1 -1</clus>
<clus scale="   20.393">  2  5  1 -1</clus>
</clustering>
</event>
<event>
10    2  0.6640105E-006  0.1064439E+03  0.7546771E-02  0.1267768E+00
         21   -1    0    0  501  502  0.00000000000E+00  0.00000000000E+00  0.17340896351E+03  0.17340896351E+03  0.00000000000E+00 0. -1.
          2   -1    0    0  503    0 -0.00000000000E+00 -0.00000000000E+00 -0.26229190089E+03  0.26229190089E+03  0.00000000000E+00 0. -1.
         23    2    1    2    0    0  0.38232413447E+02  0.17809668174E+02 -0.79331390866E+02  0.12721314025E+03  0.90060045280E+02 0.  0.
         23    2    1    2    0    0 -0.50314825642E+02 -0.62168392088E+02 -0.52346733954E+02  0.13210342084E+03  0.91184662023E+02 0.  0.
        -11    1    3    3    0    0  0.56263736472E+01 -0.27902197677E+02 -0.62370038977E+02  0.68558081052E+02  0.00000000000E+00 0.  1.
         11    1    3    3    0    0  0.32606039800E+02  0.45711865851E+02 -0.16961351889E+02  0.58655059193E+02  0.00000000000E+00 0. -1.
        -11    1    4    4    0    0  0.72374895991E+01 -0.53639008926E+02 -0.50295829004E+02  0.73886365112E+02  0.00000000000E+00 0.  1.
         11    1    4    4    0    0 -0.57552315241E+02 -0.85293831623E+01 -0.20509049504E+01  0.58217055730E+02  0.00000000000E+00 0. -1.
         21    1    1    2  503  502  0.91742724742E+01 -0.34357679470E+02  0.81277475804E+02  0.88716658453E+02  0.00000000000E+00 0. -1.
          2    1    1    2  501    0  0.29081397210E+01  0.78716403384E+02 -0.38482288356E+02  0.87667644860E+02  0.00000000000E+00 0. -1.
<scales pt_clust_5="13000.00000" pt_clust_6="13000.00000" pt_clust_7="13000.00000" pt_clust_8="13000.00000" pt_clust_9="35.56146" pt_clust_10="69.37466"></scales>
<clustering>
<clus scale="   35.561">  1  9  2 -1</clus>
<clus scale="   69.375">  1 10  2 -1</clus>
<clus scale="   90.060">  5  6 -1 -1</clus>
<clus scale="   91.185">  7  8 -1 -1</clus>
<clus scale="  105.482">  2  5  1 -1</clus>
<clus scale="   35.561">  1  5  2 -1</clus>
</clustering>
</event>
<event>
10    2  0.6640105E-006  0.1168127E+03  0.7546771E-02  0.1248817E+00
         21   -1    0    0  501  502  0.00000000000E+00  0.00000000000E+00  0.57861967652E+03  0.57861967652E+03  0.00000000000E+00 0.  1.
         -1   -1    0    0    0  501 -0.00000000000E+00 -0.00000000000E+00 -0.62553416170E+02  0.62553416170E+02  0.00000000000E+00 0.  1.
         23    2    1    2    0    0  0.14188877943E+02 -0.86887502950E+02  0.84655505338E+02  0.15229127973E+03  0.90968768665E+02 0.  0.
         23    2    1    2    0    0  0.11944222567E+02  0.56100971596E+02  0.12954137924E+03  0.16777052162E+03  0.89866542845E+02 0.  0.
        -13    1    3    3    0    0  0.27527504555E+02 -0.59956505178E+02  0.38591651634E+01  0.66086603604E+02  0.00000000000E+00 0.  1.
         13    1    3    3    0    0 -0.13338626611E+02 -0.26930997772E+02  0.80796340175E+02  0.86204676129E+02  0.00000000000E+00 0. -1.
        -13    1    4    4    0    0  0.28480774880E+02  0.68605617442E+02  0.12666501907E+03  0.14683975054E+03  0.00000000000E+00 0.  1.
         13    1    4    4    0    0 -0.16536552312E+02 -0.12504645846E+02  0.28763601639E+01  0.20930771078E+02  0.00000000000E+00 0. -1.
         21    1    1    2  503  502  0.34271872880E+02 -0.20275432363E+01  0.15767226315E+03  0.16136670898E+03  0.00000000000E+00 0.  1.
         -1    1    1    2    0  503 -0.60404973390E+02  0.32814074590E+02  0.14419711263E+03  0.15974458236E+03  0.00000000000E+00 0.  1.
<scales pt_clust_5="13000.00000" pt_clust_6="13000.00000" pt_clust_7="13000.00000" pt_clust_8="13000.00000" pt_clust_9="34.33180" pt_clust_10="57.71396"></scales>
<clustering>
<clus scale="   34.332">  1  9  2 -1</clus>
<clus scale="   57.714">  1 10  2 -1</clus>
<clus scale="   89.867">  7  8 -1 -1</clus>
<clus scale="   90.969">  5  6 -1 -1</clus>
<clus scale="  115.956">  1  7  2 -1</clus>
<clus scale="   34.332">  1  5  2 -1</clus>
</clustering>
</event>
<event>
10    2  0.6640105E-006  0.1486714E+03  0.7546771E-02  0.1203361E+00
         21   -1    0    0  501  502  0.00000000000E+00  0.00000000000E+00  0.36090026277E+02  0.36090026277E+02  0.00000000000E+00 0. -1.
          1   -1    0    0  503    0 -0.00000000000E+00 -0.00000000000E+00 -0.14776429414E+04  0.14776429414E+04  0.00000000000E+00 0. -1.
         23    2    1    2    0    0  0.74963655562E+02 -0.75501514599E+02 -0.67404631868E+03  0.68915662077E+03  0.96324347147E+02 0.  0.
         23    2    1    2    0    0 -0.13177929048E+03  0.32928234778E+02 -0.51978221450E+03  0.54474099411E+03  0.90106326673E+02 0.  0.
        -13    1    3    3    0    0  0.54699039157E+02  0.94410502622E+01 -0.29550632869E+03  0.30067442294E+03  0.00000000000E+00 0.  1.
         13    1    3    3    0    0  0.20264616405E+02 -0.84942564861E+02 -0.37853998999E+03  0.38848219782E+03  0.00000000000E+00 0. -1.
        -13    1    4    4    0    0 -0.19234596106E+02 -0.20543912890E+02 -0.39120602729E+02  0.48191737903E+02  0.00000000000E+00 0.  1.
         13    1    4    4    0    0 -0.11254469437E+03  0.53472147668E+02 -0.48066161177E+03  0.49654925621E+03  0.00000000000E+00 0. -1.
         21    1    1    2  503  502 -0.32658743727E+02  0.16975583542E+02 -0.62106163257E+02  0.72193763532E+02  0.00000000000E+00 0. -1.
          1    1    1    2  501    0  0.89474378641E+02  0.25597696279E+02 -0.18561821868E+03  0.20764158927E+03  0.00000000000E+00 0. -1.
<scales pt_clust_5="13000.00000" pt_clust_6="13000.00000" pt_clust_7="13000.00000" pt_clust_8="13000.00000" pt_clust_9="36.80712" pt_clust_10="84.06374"></scales>
<clustering>
<clus scale="   36.807">  1  9  2 -1</clus>
<clus scale="   84.064">  1 10  2 -1</clus>
<clus scale="   90.106">  7  8 -1 -1</clus>
<clus scale="   96.324">  5  6 -1 -1</clus>
<clus scale="  144.720">  1  7  2 -1</clus>
<clus scale="   36.807">  1  5  2 -1</clus>
</clustering>
</event>
<event>
10    2  0.6640105E-006  0.9556156E+02  0.7546771E-02  0.1296501E+00
         21   -1    0    0  501  502  0.00000000000E+00  0.00000000000E+00  0.11811036978E+03  0.11811036978E+03  0.00000000000E+00 0. -1.
          1   -1    0    0  503    0 -0.00000000000E+00 -0.00000000000E+00 -0.44987118137E+03  0.44987118137E+03  0.00000000000E+00 0. -1.
         23    2    1    2    0    0  0.35706101420E+02  0.86087012335E+01 -0.13150083186E+03  0.15859524248E+03  0.80690437734E+02 0.  0.
         23    2    1    2    0    0 -0.26762456658E+01 -0.22069385245E+02 -0.12948688178E+03  0.16049688411E+03  0.92185558511E+02 0.  0.
        -11    1    4    4    0    0 -0.46999411914E+02 -0.58552270476E+01 -0.70905521497E+02  0.85269111540E+02  0.00000000000E+00 0.  1.
         11    1    4    4    0    0  0.44323166249E+02 -0.16214158197E+02 -0.58581360286E+02  0.75227772566E+02  0.00000000000E+00 0. -1.
        -13    1    3    3    0    0 -0.10218839122E+02  0.19285762983E+02 -0.98881997653E+02  0.10126210933E+03  0.00000000000E+00 0.  1.
         13    1    3    3    0    0  0.45924940541E+02 -0.10677061750E+02 -0.32618834210E+02  0.57333133148E+02  0.00000000000E+00 0. -1.
         21    1    1    2  503  502  0.16375227366E+02 -0.19518683369E+02  0.81526932637E+02  0.85415266885E+02  0.00000000000E+00 0. -1.
          1    1    1    2  501    0 -0.49405083120E+02  0.32979367380E+02 -0.15230003058E+03  0.16347415767E+03  0.00000000000E+00 0. -1.
<scales pt_clust_5="13000.00000" pt_clust_6="13000.00000" pt_clust_7="13000.00000" pt_clust_8="13000.00000" pt_clust_9="25.47797" pt_clust_10="55.46855"></scales>
<clustering>
<clus scale="   25.478">  1  9  2 -1</clus>
<clus scale="   55.469">  1 10  2 -1</clus>
<clus scale="   80.690">  7  8 -1 -1</clus>
<clus scale="   84.527">  2  7  1 -1</clus>
<clus scale="   92.186">  5  6 -1 -1</clus>
<clus scale="   25.478">  1  5  2 -1</clus>
</clustering>
</event>
<event>
10    2  0.6640105E-006  0.1111183E+03  0.7546771E-02  0.1260688E+00
         21   -1    0    0  501  502  0.00000000000E+00  0.00000000000E+00  0.10360083524E+03  0.10360083524E+03  0.00000000000E+00 0. -1.
          1   -1    0    0  503    0 -0.00000000000E+00 -0.00000000000E+00 -0.52602998446E+03  0.52602998446E+03  0.00000000000E+00 0. -1.
         23    2    1    2    0    0  0.40740285632E+02 -0.33218464472E+02 -0.27146137812E+03  0.29102001035E+03  0.90764141370E+02 0.  0.
         23    2    1    2    0    0 -0.89914479830E+02  0.40109894848E+02 -0.12713383204E+03  0.18188521208E+03  0.85004716209E+02 0.  0.
        -13    1    3    3    0    0  0.50459799468E+02 -0.53905815917E+02 -0.24582040612E+03  0.25667041204E+03  0.00000000000E+00 0.  1.
         13    1    3    3    0    0 -0.97195138365E+01  0.20687351445E+02 -0.25640972003E+02  0.34349598313E+02  0.00000000000E+00 0. -1.
        -13    1    4    4    0    0 -0.63367386324E+02 -0.46487397421E+01 -0.27000294075E+02  0.69036601240E+02  0.00000000000E+00 0. -1.
         13    1    4    4    0    0 -0.26547093506E+02  0.44758634590E+02 -0.10013353796E+03  0.11284861084E+03  0.00000000000E+00 0.  1.
         21    1    1    2  503  502 -0.29760378457E+02  0.12658746045E+02  0.41357307860E+02  0.52500960855E+02  0.00000000000E+00 0. -1.
          1    1    1    2  501    0  0.78934572655E+02 -0.19550176420E+02 -0.65191246927E+02  0.10422463641E+03  0.00000000000E+00 0. -1.
<scales pt_clust_5="13000.00000" pt_clust_6="13000.00000" pt_clust_7="13000.00000" pt_clust_8="13000.00000" pt_clust_9="32.34075" pt_clust_10="70.34541"></scales>
<clustering>
<clus scale="   32.341">  1  9  2 -1</clus>
<clus scale="   70.345">  1 10  2 -1</clus>
<clus scale="   85.005">  7  8 -1 -1</clus>
<clus scale="   90.764">  5  6 -1 -1</clus>
<clus scale="  106.466">  1  7  2 -1</clus>
<clus scale="   32.341">  1  5  2 -1</clus>
</clustering>
</event>
<event>
10    2  0.6640105E-006  0.1739072E+03  0.7546771E-02  0.1195958E+00
          1   -1    0    0  502    0 -0.00000000000E+00  0.00000000000E+00  0.54032173435E+03  0.54032173435E+03  0.00000000000E+00 0. -1.
         21   -1    0    0  503  502  0.00000000000E+00 -0.00000000000E+00 -0.15919564342E+03  0.15919564342E+03  0.00000000000E+00 0.  1.
         23    2    1    2    0    0 -0.41228205997E+02 -0.30490090552E+02  0.29389424938E+03  0.31246242077E+03  0.92895231207E+02 0.  0.
         23    2    1    2    0    0  0.18573063191E+03  0.14130512611E+02  0.91548300086E+02  0.22705505495E+03  0.92072621966E+02 0.  0.
        -11    1    3    3    0    0 -0.52621112512E+02  0.10845171505E+01  0.25801775844E+03  0.26333120083E+03  0.00000000000E+00 0.  1.
         11    1    3    3    0    0  0.11392906515E+02 -0.31574607703E+02  0.35876490940E+02  0.49131219938E+02  0.00000000000E+00 0. -1.
        -11    1    4    4    0    0  0.10965865342E+03  0.27942611296E+02  0.83380022812E+01  0.11346952048E+03  0.00000000000E+00 0.  1.
         11    1    4    4    0    0  0.76071978493E+02 -0.13812098685E+02  0.83210297804E+02  0.11358553448E+03  0.00000000000E+00 0. -1.
         21    1    1    2  503  501 -0.21513383772E+02  0.25651992792E+02 -0.13983469717E+02  0.36282059491E+02  0.00000000000E+00 0.  1.
          1    1    1    2  501    0 -0.12298904214E+03 -0.92924148509E+01  0.96670111822E+01  0.12371784255E+03  0.00000000000E+00 0. -1.
<scales pt_clust_5="13000.00000" pt_clust_6="13000.00000" pt_clust_7="13000.00000" pt_clust_8="13000.00000" pt_clust_9="33.47910" pt_clust_10="147.53421"></scales>
<clustering>
<clus scale="   33.479">  2  9  1 -1</clus>
<clus scale="   92.073">  7  8 -1 -1</clus>
<clus scale="   92.895">  5  6 -1 -1</clus>
<clus scale="  106.202">  1  5  2 -1</clus>
<clus scale="  147.534">  2 10  1 -1</clus>
<clus scale="   33.479">  2  5  1 -1</clus>
</clustering>
</event>
<event>
10    2  0.6640105E-006  0.1298344E+03  0.7546771E-02  0.1228018E+00
          1   -1    0    0  503    0 -0.00000000000E+00  0.00000000000E+00  0.36133816830E+03  0.36133816830E+03  0.00000000000E+00 0. -1.
         21   -1    0    0  501  502  0.00000000000E+00 -0.00000000000E+00 -0.13015818217E+03  0.13015818217E+03  0.00000000000E+00 0. -1.
         23    2    1    2    0    0 -0.10021558696E+03  0.19050508622E+02  0.22894952659E+03  0.26724570290E+03  0.92716202722E+02 0.  0.
         23    2    1    2    0    0  0.40457891840E+02 -0.41684951402E+02 -0.31876224370E+02  0.11299292991E+03  0.91525036710E+02 0.  0.
        -11    1    4    4    0    0 -0.12524876185E+02 -0.48719387740E+02  0.87055965142E+00  0.50311123415E+02  0.00000000000E+00 0.  1.
         11    1    4    4    0    0  0.52982768024E+02  0.70344363376E+01 -0.32746784022E+02  0.62681806498E+02  0.00000000000E+00 0. -1.
        -13    1    3    3    0    0 -0.44675268286E+02  0.25974382525E+02  0.19511723496E+03  0.20184470150E+03  0.00000000000E+00 0. -1.
         13    1    3    3    0    0 -0.55540318673E+02 -0.69238739034E+01  0.33832291627E+02  0.65401001405E+02  0.00000000000E+00 0.  1.
         21    1    1    2  503  502  0.14051586825E+02  0.27143707365E+02 -0.22797925994E+02  0.38131002760E+02  0.00000000000E+00 0. -1.
          1    1    1    2  501    0  0.45706108294E+02 -0.45092645851E+01  0.56904609906E+02  0.73126714893E+02  0.00000000000E+00 0. -1.
<scales pt_clust_5="13000.00000" pt_clust_6="13000.00000" pt_clust_7="13000.00000" pt_clust_8="13000.00000" pt_clust_9="30.56514" pt_clust_10="46.90583"></scales>
<clustering>
<clus scale="   30.565">  2  9  1 -1</clus>
<clus scale="   46.906">  2 10  1 -1</clus>
<clus scale="   91.525">  5  6 -1 -1</clus>
<clus scale="   92.716">  7  8 -1 -1</clus>
<clus scale="  128.986">  2  5  1 -1</clus>
<clus scale="   30.565">  2  5  1 -1</clus>
</clustering>
</event>
<event>
10    2  0.6640105E-006  0.1825173E+03  0.7546771E-02  0.1186971E+00
         21   -1    0    0  503  502  0.00000000000E+00  0.00000000000E+00  0.12819502132E+03  0.12819502132E+03  0.00000000000E+00 0. -1.
          2   -1    0    0  502    0 -0.00000000000E+00 -0.00000000000E+00 -0.74471971668E+03  0.74471971668E+03  0.00000000000E+00 0. -1.
         23    2    1    2    0    0 -0.23139184905E+02  0.58847317110E+02 -0.39005249246E+02  0.11859071057E+03  0.92433319514E+02 0.  0.
         23    2    1    2    0    0 -0.13903088700E+03 -0.50652006580E+02 -0.54783493490E+03  0.57462794664E+03  0.90437535659E+02 0.  0.
        -13    1    3    3    0    0 -0.28579002824E+02 -0.84044210791E+01 -0.41486512912E+02  0.51073715840E+02  0.00000000000E+00 0.  1.
         13    1    3    3    0    0  0.54398179199E+01  0.67251738189E+02  0.24812636659E+01  0.67516994733E+02  0.00000000000E+00 0. -1.
        -13    1    4    4    0    0 -0.48643679450E+01 -0.37174187454E+02 -0.14768405242E+03  0.15236850602E+03  0.00000000000E+00 0.  1.
         13    1    4    4    0    0 -0.13416651906E+03 -0.13477819126E+02 -0.40015088248E+03  0.42225944062E+03  0.00000000000E+00 0. -1.
         21    1    1    2  503  501  0.41253664413E+02  0.12772998123E+02  0.19629358808E+02  0.47437601497E+02  0.00000000000E+00 0. -1.
          2    1    1    2  501    0  0.12091640749E+03 -0.20968308653E+02 -0.49313870025E+02  0.13225847930E+03  0.00000000000E+00 0. -1.
<scales pt_clust_5="13000.00000" pt_clust_6="13000.00000" pt_clust_7="13000.00000" pt_clust_8="13000.00000" pt_clust_9="42.12742" pt_clust_10="173.71480"></scales>
<clustering>
<clus scale="   42.127">  9 10 -1 -1</clus>
<clus scale="   90.438">  7  8 -1 -1</clus>
<clus scale="   92.433">  5  6 -1 -1</clus>
<clus scale="  111.993">  2  5  1 -1</clus>
<clus scale="  173.715">  1  9  2 -1</clus>
<clus scale="  173.715">  1  5  2 -1</clus>
</clustering>
</event>
<event>
10    2  0.6640105E-006  0.1194482E+03  0.7546771E-02  0.1244040E+00
         21   -1    0    0  503  502  0.00000000000E+00  0.00000000000E+00  0.64038062358E+02  0.64038062358E+02  0.00000000000E+00 0. -1.
         -4   -1    0    0    0  501 -0.00000000000E+00 -0.00000000000E+00 -0.55189293814E+03  0.55189293814E+03  0.00000000000E+00 0.  1.
         23    2    1    2    0    0  0.50792860366E+02  0.54963350506E+02 -0.25546793120E+03  0.28205163057E+03  0.93211447092E+02 0.  0.
         23    2    1    2    0    0 -0.55709612734E+02 -0.49790161968E+02 -0.22771392924E+03  0.25711358116E+03  0.93118950105E+02 0.  0.
        -13    1    4    4    0    0 -0.21807165504E+02 -0.58224139447E+02 -0.62173744688E+02  0.87927114192E+02  0.00000000000E+00 0.  1.
         13    1    4    4    0    0 -0.33902447230E+02  0.84339774790E+01 -0.16554018455E+03  0.16918646697E+03  0.00000000000E+00 0. -1.
        -13    1    3    3    0    0  0.26840361774E+02 -0.21998010223E+02 -0.11476474953E+03  0.11989689407E+03  0.00000000000E+00 0.  1.
         13    1    3    3    0    0  0.23952498592E+02  0.76961360729E+02 -0.14070318168E+03  0.16215473650E+03  0.00000000000E+00 0. -1.
         21    1    1    2  503  501 -0.30851753951E+02 -0.39261801272E+01  0.16474638991E+02  0.35194592513E+02  0.00000000000E+00 0. -1.
         -4    1    1    2    0  502  0.35768506319E+02 -0.12470084112E+01 -0.21147654321E+02  0.41571196249E+02  0.00000000000E+00 0.  1.
<scales pt_clust_5="13000.00000" pt_clust_6="13000.00000" pt_clust_7="13000.00000" pt_clust_8="13000.00000" pt_clust_9="31.10057" pt_clust_10="27.61749"></scales>
<clustering>
<clus scale="   31.101">  1  9  2 -1</clus>
<clus scale="   27.617">  1 10  2 -1</clus>
<clus scale="   93.119">  5  6 -1 -1</clus>
<clus scale="   93.211">  7  8 -1 -1</clus>
<clus scale="  119.376">  1  5  2 -1</clus>
<clus scale="   31.101">  1  5  2 -1</clus>
</clustering>
</event>
<event>
10    2  0.6640105E-006  0.9467998E+02  0.7546771E-02  0.1292935E+00
         21   -1    0    0  501  502  0.00000000000E+00  0.00000000000E+00  0.17300837929E+03  0.17300837929E+03  0.00000000000E+00 0. -1.
          2   -1    0    0  503    0 -0.00000000000E+00 -0.00000000000E+00 -0.33591924772E+03  0.33591924772E+03  0.00000000000E+00 0. -1.
         23    2    1    2    0    0 -0.52780108570E+01  0.21265195835E+02 -0.20433882013E+03  0.22540498593E+03  0.92590433182E+02 0.  0.
         23    2    1    2    0    0  0.18747296302E+02 -0.93048358949E+01 -0.92199878580E+02  0.13104044915E+03  0.90734451087E+02 0.  0.
        -11    1    3    3    0    0  0.43304849521E+02  0.16456580885E+02 -0.98986844410E+02  0.10929100792E+03  0.00000000000E+00 0.  1.
         11    1    3    3    0    0 -0.48582860379E+02  0.48086149505E+01 -0.10535197572E+03  0.11611397800E+03  0.00000000000E+00 0. -1.
        -11    1    4    4    0    0  0.16029948907E+02  0.35231904430E+02 -0.14294936072E+02  0.41262471436E+02  0.00000000000E+00 0.  1.
         11    1    4    4    0    0  0.27173473949E+01 -0.44536740324E+02 -0.77904942508E+02  0.89777977716E+02  0.00000000000E+00 0. -1.
         21    1    1    2  503  502  0.20282038748E+02  0.16835022940E+02  0.31103168544E+02  0.40769917668E+02  0.00000000000E+00 0. -1.
          2    1    1    2  501    0 -0.33751324193E+02 -0.28795382880E+02  0.10252466173E+03  0.11171227427E+03  0.00000000000E+00 0. -1.
<scales pt_clust_5="13000.00000" pt_clust_6="13000.00000" pt_clust_7="13000.00000" pt_clust_8="13000.00000" pt_clust_9="26.35866" pt_clust_10="23.77066"></scales>
<clustering>
<clus scale="   26.359">  1  9  2 -1</clus>
<clus scale="   23.771">  1 10  2 -1</clus>
<clus scale="   90.734">  7  8 -1 -1</clus>
<clus scale="   92.590">  5  6 -1 -1</clus>
<clus scale="   92.866">  1  7  2 -1</clus>
<clus scale="   26.359">  1  5  2 -1</clus>
</clustering>
</event>
<event>
10    2  0.6640105E-006  0.1115468E+03  0.7546771E-02  0.1258888E+00
         21   -1    0    0  503  502  0.00000000000E+00  0.00000000000E+00  0.96072678405E+02  0.96072678405E+02  0.00000000000E+00 0. -1.
          1   -1    0    0  502    0 -0.00000000000E+00 -0.00000000000E+00 -0.68573222750E+03  0.68573222750E+03  0.00000000000E+00 0. -1.
         23    2    1    2    0    0 -0.68042173629E+02  0.23864096860E+02 -0.34803789740E+03  0.36676715567E+03  0.90490529565E+02 0.  0.
         23    2    1    2    0    0  0.58667160306E+02  0.61616000995E+02 -0.27436590950E+03  0.30024898093E+03  0.87375230899E+02 0.  0.
        -11    1    3    3    0    0 -0.60506042309E+02 -0.90454684899E+01 -0.30969066421E+03  0.31567563915E+03  0.00000000000E+00 0. -1.
         11    1    3    3    0    0 -0.75361313201E+01  0.32909565350E+02 -0.38347233194E+02  0.51091516521E+02  0.00000000000E+00 0.  1.
        -13    1    4    4    0    0  0.73422669299E+02  0.22050917328E+02 -0.14286255558E+03  0.16213217173E+03  0.00000000000E+00 0.  1.
         13    1    4    4    0    0 -0.14755508994E+02  0.39565083666E+02 -0.13150335392E+03  0.13811680920E+03  0.00000000000E+00 0. -1.
         21    1    1    2  503  501 -0.14491263101E+02 -0.29519579111E+02  0.41902942183E+02  0.53265925513E+02  0.00000000000E+00 0. -1.
          1    1    1    2  501    0  0.23866276424E+02 -0.55960518744E+02 -0.91586843712E+01  0.61522843789E+02  0.00000000000E+00 0. -1.
<scales pt_clust_5="13000.00000" pt_clust_6="13000.00000" pt_clust_7="13000.00000" pt_clust_8="13000.00000" pt_clust_9="32.88468" pt_clust_10="73.66789"></scales>
<clustering>
<clus scale="   32.885">  1  9  2 -1</clus>
<clus scale="   73.668">  1 10  2 -1</clus>
<clus scale="   87.375">  7  8 -1 -1</clus>
<clus scale="   90.491">  5  6 -1 -1</clus>
<clus scale="  109.035">  1  7  2 -1</clus>
<clus scale="   32.885">  1  5  2 -1</clus>
</clustering>
</event>
<event>
10    2  0.6640105E-006  0.9556092E+02  0.7546771E-02  0.1293949E+00
         21   -1    0    0  503  502  0.00000000000E+00  0.00000000000E+00  0.14398695023E+03  0.14398695023E+03  0.00000000000E+00 0. -1.
         -1   -1    0    0    0  501 -0.00000000000E+00 -0.00000000000E+00 -0.22455318418E+03  0.22455318418E+03  0.00000000000E+00 0.  1.
         23    2    1    2    0    0 -0.26513985304E+02  0.23616702071E+01 -0.17184189990E+03  0.19352009043E+03  0.84922423033E+02 0.  0.
         23    2    1    2    0    0  0.15615637275E+02 -0.10588935139E+02  0.45819604072E+02  0.10461199715E+03  0.92131754333E+02 0.  0.
        -11    1    3    3    0    0 -0.57971472442E+01 -0.40553001618E+02 -0.70610359752E+02  0.81633178063E+02  0.00000000000E+00 0. -1.
         11    1    3    3    0    0 -0.20716838060E+02  0.42914671825E+02 -0.10123154015E+03  0.11188691236E+03  0.00000000000E+00 0.  1.
        -13    1    4    4    0    0 -0.35540120767E+01 -0.49489644472E+02  0.32225991296E+02  0.59163928426E+02  0.00000000000E+00 0. -1.
         13    1    4    4    0    0  0.19169649352E+02  0.38900709333E+02  0.13593612776E+02  0.45448068728E+02  0.00000000000E+00 0.  1.
         21    1    1    2  503  501  0.28655161552E+02 -0.71965871931E+01  0.30880428714E+02  0.42737688617E+02  0.00000000000E+00 0. -1.
         -1    1    1    2    0  502 -0.17756813523E+02  0.15423852125E+02  0.14575633173E+02  0.27670358206E+02  0.00000000000E+00 0.  1.
<scales pt_clust_5="13000.00000" pt_clust_6="13000.00000" pt_clust_7="13000.00000" pt_clust_8="13000.00000" pt_clust_9="23.47708" pt_clust_10="23.52020"></scales>
<clustering>
<clus scale="   23.520">  1 10  2 -1</clus>
<clus scale="   23.477">  1  9  2 -1</clus>
<clus scale="   84.922">  5  6 -1 -1</clus>
<clus scale="   88.631">  2  5  1 -1</clus>
<clus scale="   92.132">  7  8 -1 -1</clus>
<clus scale="   23.520">  1  5  2 -1</clus>
</clustering>
</event>
<event>
10    2  0.6640105E-006  0.1280015E+03  0.7546771E-02  0.1242540E+00
         21   -1    0    0  501  502  0.00000000000E+00  0.00000000000E+00  0.14930265137E+03  0.14930265137E+03  0.00000000000E+00 0. -1.
          1   -1    0    0  503    0 -0.00000000000E+00 -0.00000000000E+00 -0.47529645480E+03  0.47529645480E+03  0.00000000000E+00 0. -1.
         23    2    1    2    0    0  0.27304823758E+02 -0.28818483050E+02 -0.29122625982E+03  0.30845654176E+03  0.93576948971E+02 0.  0.
         23    2    1    2    0    0  0.54274170535E+02  0.84636313521E+02 -0.23587855607E+02  0.12584893097E+03  0.71920618320E+02 0.  0.
        -11    1    4    4    0    0  0.40794396431E+02  0.17425322056E+02 -0.34809252895E+02  0.56387132539E+02  0.00000000000E+00 0.  1.
         11    1    4    4    0    0  0.13479774104E+02  0.67210991465E+02  0.11221397288E+02  0.69461798427E+02  0.00000000000E+00 0. -1.
        -13    1    3    3    0    0  0.15495688825E+02  0.32018032736E+02 -0.67412999304E+02  0.76221934294E+02  0.00000000000E+00 0.  1.
         13    1    3    3    0    0  0.11809134934E+02 -0.60836515786E+02 -0.22381326052E+03  0.23223460747E+03  0.00000000000E+00 0. -1.
         21    1    1    2  503  502 -0.28775702120E+02  0.38186003278E+02  0.47620975305E+02  0.67483102832E+02  0.00000000000E+00 0. -1.
          1    1    1    2  501    0 -0.52803292174E+02 -0.94003833749E+02 -0.58800663299E+02  0.12281053061E+03  0.00000000000E+00 0. -1.
<scales pt_clust_5="13000.00000" pt_clust_6="13000.00000" pt_clust_7="13000.00000" pt_clust_8="13000.00000" pt_clust_9="47.81435" pt_clust_10="105.88586"></scales>
<clustering>
<clus scale="   47.814">  1  9  2 -1</clus>
<clus scale="   71.921">  5  6 -1 -1</clus>
<clus scale="   93.577">  7  8 -1 -1</clus>
<clus scale="   99.993">  2  7  1 -1</clus>
<clus scale="  105.886">  1 10  2 -1</clus>
<clus scale="   47.814">  1  5  2 -1</clus>
</clustering>
</event>
<event>
10    2  0.6640105E-006  0.1845071E+03  0.7546771E-02  0.1164022E+00
         -2   -1    0    0    0  501 -0.00000000000E+00  0.00000000000E+00  0.24590135221E+03  0.24590135221E+03  0.00000000000E+00 0.  1.
         21   -1    0    0  503  502  0.00000000000E+00 -0.00000000000E+00 -0.25898582082E+03  0.25898582082E+03  0.00000000000E+00 0.  1.
         23    2    1    2    0    0 -0.14365975365E+03 -0.67321760990E+02  0.31597532481E+02  0.18432418582E+03  0.88355289029E+02 0.  0.
         23    2    1    2    0    0  0.94343210007E+02  0.14806453192E+03  0.21848284878E+01  0.19857175127E+03  0.92748153832E+02 0.  0.
        -11    1    3    3    0    0 -0.87750051471E+02  0.30986382496E+01 -0.33165377821E+01  0.87867357506E+02  0.00000000000E+00 0. -1.
         11    1    3    3    0    0 -0.55909702176E+02 -0.70420399240E+02  0.34914070263E+02  0.96456828316E+02  0.00000000000E+00 0.  1.
        -11    1    4    4    0    0  0.50240287888E+02  0.66854568765E+02 -0.44831144009E+02  0.94886518352E+02  0.00000000000E+00 0. -1.
         11    1    4    4    0    0  0.44102922119E+02  0.81209963151E+02  0.47015972497E+02  0.10368523291E+03  0.00000000000E+00 0.  1.
         21    1    1    2  503  501 -0.13297739031E+02 -0.24130927819E+02 -0.17384435700E+02  0.32578369286E+02  0.00000000000E+00 0.  1.
         -2    1    1    2    0  502  0.62614282671E+02 -0.56611843107E+02 -0.29482393875E+02  0.89412866652E+02  0.00000000000E+00 0.  1.
<scales pt_clust_5="13000.00000" pt_clust_6="13000.00000" pt_clust_7="13000.00000" pt_clust_8="13000.00000" pt_clust_9="27.55234" pt_clust_10="86.28727"></scales>
<clustering>
<clus scale="   27.552">  2  9  1 -1</clus>
<clus scale="   86.287">  2 10  1 -1</clus>
<clus scale="   88.355">  5  6 -1 -1</clus>
<clus scale="   92.748">  7  8 -1 -1</clus>
<clus scale="  182.338">  1  5  2 -1</clus>
<clus scale="   27.552">  2  5  1 -1</clus>
</clustering>
</event>
<event>
10    2  0.6640105E-006  0.1362007E+03  0.7546771E-02  0.1218782E+00
         21   -1    0    0  503  502  0.00000000000E+00  0.00000000000E+00  0.36248045712E+03  0.36248045712E+03  0.00000000000E+00 0.  1.
          1   -1    0    0  502    0 -0.00000000000E+00 -0.00000000000E+00 -0.88711373649E+02  0.88711373649E+02  0.00000000000E+00 0. -1.
         23    2    1    2    0    0 -0.93569887783E+02  0.67220227229E+02  0.17492491445E+02  0.14603301597E+03  0.88010065605E+02 0.  0.
         23    2    1    2    0    0  0.60354137499E+02 -0.42640800289E+02  0.17814422058E+03  0.21244731257E+03  0.89093420245E+02 0.  0.
        -13    1    3    3    0    0 -0.39624486016E+02  0.21546874217E+02 -0.35739196003E+02  0.57547005235E+02  0.00000000000E+00 0. -1.
         13    1    3    3    0    0 -0.53945401767E+02  0.45673353012E+02  0.53231687448E+02  0.88486010735E+02  0.00000000000E+00 0.  1.
        -13    1    4    4    0    0  0.16486627773E+02  0.23712803406E+02  0.19112953245E+02  0.34632512506E+02  0.00000000000E+00 0.  1.
         13    1    4    4    0    0  0.43867509726E+02 -0.66353603696E+02  0.15903126733E+03  0.17781480007E+03  0.00000000000E+00 0. -1.
         21    1    1    2  503  501  0.20496392500E+02  0.14959043298E+01  0.27130851460E+02  0.34035612764E+02  0.00000000000E+00 0.  1.
          1    1    1    2  501    0  0.12719357784E+02 -0.26075331269E+02  0.51001519984E+02  0.58675889460E+02  0.00000000000E+00 0. -1.
<scales pt_clust_5="13000.00000" pt_clust_6="13000.00000" pt_clust_7="13000.00000" pt_clust_8="13000.00000" pt_clust_9="20.55091" pt_clust_10="30.43839"></scales>
<clustering>
<clus scale="   20.551">  1  9  2 -1</clus>
<clus scale="   30.438">  1 10  2 -1</clus>
<clus scale="   88.010">  5  6 -1 -1</clus>
<clus scale="   89.093">  7  8 -1 -1</clus>
<clus scale="  135.495">  2  5  1 -1</clus>
<clus scale="   20.551">  1  5  2 -1</clus>
</clustering>
</event>
<event>
10    2  0.6640105E-006  0.1479881E+03  0.7546771E-02  0.1203279E+00
         21   -1    0    0  503  502  0.00000000000E+00  0.00000000000E+00  0.18913834384E+03  0.18913834384E+03  0.00000000000E+00 0. -1.
          2   -1    0    0  502    0 -0.00000000000E+00 -0.00000000000E+00 -0.63729241077E+03  0.63729241077E+03  0.00000000000E+00 0. -1.
         23    2    1    2    0    0  0.29488387649E+02  0.10321806424E+03 -0.33227033898E+03  0.36027124586E+03  0.88703205315E+02 0.  0.
         23    2    1    2    0    0 -0.43225544899E+02 -0.12635320237E+03 -0.25915516307E+03  0.30521541733E+03  0.90340870882E+02 0.  0.
        -13    1    4    4    0    0 -0.35958762210E+00 -0.38182988278E+02 -0.13134848775E+02  0.40380616011E+02  0.00000000000E+00 0.  1.
         13    1    4    4    0    0 -0.42865957277E+02 -0.88170214095E+02 -0.24602031429E+03  0.26483480132E+03  0.00000000000E+00 0. -1.
        -13    1    3    3    0    0  0.50162404009E+02  0.47883008391E+02 -0.24691852906E+03  0.25647184887E+03  0.00000000000E+00 0. -1.
         13    1    3    3    0    0 -0.20674016361E+02  0.55335055854E+02 -0.85351809921E+02  0.10379939699E+03  0.00000000000E+00 0.  1.
         21    1    1    2  503  501 -0.15126296244E+02  0.20169909122E+02  0.12297929529E+03  0.12553699511E+03  0.00000000000E+00 0. -1.
          2    1    1    2  501    0  0.28863453494E+02  0.29652290071E+01  0.20292139828E+02  0.35407096316E+02  0.00000000000E+00 0. -1.
<scales pt_clust_5="13000.00000" pt_clust_6="13000.00000" pt_clust_7="13000.00000" pt_clust_8="13000.00000" pt_clust_9="25.21171" pt_clust_10="25.20987"></scales>
<clustering>
<clus scale="   25.212">  1  9  2 -1</clus>
<clus scale="   25.210">  1 10  2 -1</clus>
<clus scale="   88.703">  7  8 -1 -1</clus>
<clus scale="   90.341">  5  6 -1 -1</clus>
<clus scale="  146.994">  2  7  1 -1</clus>
<clus scale="   25.212">  1  5  2 -1</clus>
</clustering>
</event>
<event>
10    2  0.6640105E-006  0.1622463E+03  0.7546771E-02  0.1210603E+00
         21   -1    0    0  503  502  0.00000000000E+00  0.00000000000E+00  0.13154001031E+03  0.13154001031E+03  0.00000000000E+00 0. -1.
          2   -1    0    0  502    0 -0.00000000000E+00 -0.00000000000E+00 -0.84783058724E+03  0.84783058724E+03  0.00000000000E+00 0. -1.
         23    2    1    2    0    0  0.13922188824E+02  0.87053243171E+01 -0.30147984037E+03  0.31553166604E+03  0.91654394941E+02 0.  0.
         23    2    1    2    0    0 -0.14201126819E+03 -0.11112473771E+03 -0.41731068338E+03  0.46371981615E+03  0.91498381422E+02 0.  0.
        -11    1    3    3    0    0 -0.14611284404E+02  0.39081714899E+02 -0.80649904775E+02  0.90803508806E+02  0.00000000000E+00 0. -1.
         11    1    3    3    0    0  0.28533473227E+02 -0.30376390582E+02 -0.22082993560E+03  0.22472815724E+03  0.00000000000E+00 0.  1.
        -13    1    4    4    0    0 -0.11880247087E+03 -0.43110215144E+02 -0.30777866328E+03  0.33271643077E+03  0.00000000000E+00 0. -1.
         13    1    4    4    0    0 -0.23208797313E+02 -0.68014522569E+02 -0.10953202009E+03  0.13100338537E+03  0.00000000000E+00 0.  1.
         21    1    1    2  503  501  0.85408086913E+02  0.19098134032E+02  0.43719181305E+02  0.97829682855E+02  0.00000000000E+00 0. -1.
          2    1    1    2  501    0  0.42680992449E+02  0.83321279364E+02 -0.41219234485E+02  0.10228943251E+03  0.00000000000E+00 0. -1.
<scales pt_clust_5="13000.00000" pt_clust_6="13000.00000" pt_clust_7="13000.00000" pt_clust_8="13000.00000" pt_clust_9="87.51731" pt_clust_10="133.98478"></scales>
<clustering>
<clus scale="   87.517">  1  9  2 -1</clus>
<clus scale="   91.498">  7  8 -1 -1</clus>
<clus scale="   91.654">  5  6 -1 -1</clus>
<clus scale="   95.320">  2  5  1 -1</clus>
<clus scale="  133.985">  1 10  2 -1</clus>
<clus scale="   87.517">  1  5  2 -1</clus>
</clustering>
</event>
<event>
10    2  0.6640105E-006  0.1090542E+03  0.7546771E-02  0.1263540E+00
         21   -1    0    0  501  502  0.00000000000E+00  0.00000000000E+00  0.70913072303E+03  0.70913072303E+03  0.00000000000E+00 0. -1.
          2   -1    0    0  503    0 -0.00000000000E+00 -0.00000000000E+00 -0.15915750669E+03  0.15915750669E+03  0.00000000000E+00 0. -1.
         23    2    1    2    0    0 -0.19944359292E+02  0.67697912508E+02 -0.79491191379E+02  0.13978244725E+03  0.90771681860E+02 0.  0.
         23    2    1    2    0    0 -0.22836645923E+02 -0.41979788349E+02  0.35555582950E+02  0.10601072728E+03  0.87694126324E+02 0.  0.
        -11    1    3    3    0    0 -0.10848459303E+02  0.19437334576E+02  0.19297542336E+02  0.29460043871E+02  0.00000000000E+00 0.  1.
         11    1    3    3    0    0 -0.90958999883E+01  0.48260577932E+02 -0.98788733715E+02  0.11032240338E+03  0.00000000000E+00 0. -1.
        -11    1    4    4    0    0 -0.22319069687E+02 -0.69164580603E+02  0.26298269367E+02  0.77288285356E+02  0.00000000000E+00 0.  1.
         11    1    4    4    0    0 -0.51757623664E+00  0.27184792254E+02  0.92573135832E+01  0.28722441919E+02  0.00000000000E+00 0. -1.
         21    1    1    2  503  502 -0.89543700294E+00 -0.75032276562E+02  0.51158644478E+03  0.51706028161E+03  0.00000000000E+00 0. -1.
          2    1    1    2  501    0  0.43676442218E+02  0.49314152404E+02  0.82322379991E+02  0.10543477358E+03  0.00000000000E+00 0. -1.
<scales pt_clust_5="13000.00000" pt_clust_6="13000.00000" pt_clust_7="13000.00000" pt_clust_8="13000.00000" pt_clust_9="49.10681" pt_clust_10="65.87501"></scales>
<clustering>
<clus scale="   65.875">  1 10  2 -1</clus>
<clus scale="   49.107">  1  9  2 -1</clus>
<clus scale="   87.694">  7  8 -1 -1</clus>
<clus scale="   90.772">  5  6 -1 -1</clus>
<clus scale="  106.506">  1  7  2 -1</clus>
<clus scale="   65.875">  1  5  2 -1</clus>
</clustering>
</event>
<event>
10    2  0.6640105E-006  0.1165071E+03  0.7546771E-02  0.1258971E+00
         21   -1    0    0  501  502  0.00000000000E+00  0.00000000000E+00  0.56975161183E+03  0.56975161183E+03  0.00000000000E+00 0. -1.
          2   -1    0    0  503    0 -0.00000000000E+00 -0.00000000000E+00 -0.14354032781E+03  0.14354032781E+03  0.00000000000E+00 0. -1.
         23    2    1    2    0    0 -0.45363928632E+02 -0.21148058048E+00 -0.35928831218E+02  0.10832061377E+03  0.91567154100E+02 0.  0.
         23    2    1    2    0    0 -0.22909536694E+02  0.16235570962E+02  0.62420015635E+02  0.13234878416E+03  0.11327621851E+03 0.  0.
        -11    1    4    4    0    0 -0.68401687793E+01  0.63699407686E+02  0.48463409553E+02  0.80331217556E+02  0.00000000000E+00 0.  1.
         11    1    4    4    0    0 -0.16069367915E+02 -0.47463836725E+02  0.13956606082E+02  0.52017566602E+02  0.00000000000E+00 0. -1.
        -13    1    3    3    0    0 -0.57675111074E-01  0.39721368701E+02 -0.37717069055E+01  0.39900078081E+02  0.00000000000E+00 0.  1.
         13    1    3    3    0    0 -0.45306253521E+02 -0.39932849282E+02 -0.32157124313E+02  0.68420535689E+02  0.00000000000E+00 0. -1.
         21    1    1    2  503  502  0.13344985711E+03 -0.23889470277E+02  0.38093240763E+03  0.40433781709E+03  0.00000000000E+00 0. -1.
          2    1    1    2  501    0 -0.65176391782E+02  0.78653798955E+01  0.18787691975E+02  0.68284724620E+02  0.00000000000E+00 0. -1.
<scales pt_clust_5="13000.00000" pt_clust_6="13000.00000" pt_clust_7="13000.00000" pt_clust_8="13000.00000" pt_clust_9="86.71179" pt_clust_10="65.64930"></scales>
<clustering>
<clus scale="   65.649">  1 10  2 -1</clus>
<clus scale="   86.712">  1  9  2 -1</clus>
<clus scale="   91.567">  7  8 -1 -1</clus>
<clus scale="   95.535">  2  7  1 -1</clus>
<clus scale="  113.276">  5  6 -1 -1</clus>
<clus scale="   65.649">  1  5  2 -1</clus>
</clustering>
</event>
<event>
10    2  0.6640105E-006  0.1231411E+03  0.7546771E-02  0.1240485E+00
          1   -1    0    0  503    0 -0.00000000000E+00  0.00000000000E+00  0.65360777260E+03  0.65360777260E+03  0.00000000000E+00 0. -1.
         21   -1    0    0  501  502  0.00000000000E+00 -0.00000000000E+00 -0.30107042963E+03  0.30107042963E+03  0.00000000000E+00 0.  1.
         23    2    1    2    0    0 -0.52764910809E+02 -0.47472079303E+02  0.44933449165E+03  0.46411270015E+03  0.91985753947E+02 0.  0.
         23    2    1    2    0    0  0.10146530946E+03  0.11209779490E+02  0.11333327184E+02  0.14306177732E+03  0.99585941007E+02 0.  0.
        -11    1    4    4    0    0  0.24257916832E+02  0.21785541933E+02  0.47126947943E+02  0.57306243890E+02  0.00000000000E+00 0.  1.
         11    1    4    4    0    0  0.77207392628E+02 -0.10575762443E+02 -0.35793620759E+02  0.85755533435E+02  0.00000000000E+00 0. -1.
        -11    1    3    3    0    0 -0.36172164324E+02  0.21612096954E+02  0.22094864259E+03  0.22493068014E+03  0.00000000000E+00 0. -1.
         11    1    3    3    0    0 -0.16592746485E+02 -0.69084176257E+02  0.22838584906E+03  0.23918202001E+03  0.00000000000E+00 0.  1.
         21    1    1    2  503  502  0.20106183004E+02 -0.20578045094E+02 -0.21006161243E+03  0.21202262981E+03  0.00000000000E+00 0.  1.
          1    1    1    2  501    0 -0.68806581654E+02  0.56840344906E+02  0.10193113656E+03  0.13548109495E+03  0.00000000000E+00 0. -1.
<scales pt_clust_5="13000.00000" pt_clust_6="13000.00000" pt_clust_7="13000.00000" pt_clust_8="13000.00000" pt_clust_9="28.77003" pt_clust_10="83.91942"></scales>
<clustering>
<clus scale="   28.770">  2  9  1 -1</clus>
<clus scale="   83.919">  2 10  1 -1</clus>
<clus scale="   91.986">  7  8 -1 -1</clus>
<clus scale="   99.586">  5  6 -1 -1</clus>
<clus scale="  117.080">  1  7  2 -1</clus>
<clus scale="   28.770">  2  5  1 -1</clus>
</clustering>
</event>
<event>
10    2  0.6640105E-006  0.9788486E+02  0.7546771E-02  0.1285498E+00
         21   -1    0    0  501  502  0.00000000000E+00  0.00000000000E+00  0.16215279088E+03  0.16215279088E+03  0.00000000000E+00 0. -1.
          1   -1    0    0  503    0 -0.00000000000E+00 -0.00000000000E+00 -0.89924367048E+03  0.89924367048E+03  0.00000000000E+00 0. -1.
         23    2    1    2    0    0  0.20359912631E+02  0.42652247248E+02 -0.40599952307E+03  0.41869776839E+03  0.90766008411E+02 0.  0.
         23    2    1    2    0    0  0.69780802218E+02 -0.15530850880E+02 -0.42103901128E+03  0.43632132538E+03  0.89397328110E+02 0.  0.
        -13    1    3    3    0    0 -0.34065528379E+02  0.11617030768E+02 -0.98236170401E+02  0.10462199005E+03  0.00000000000E+00 0.  1.
         13    1    3    3    0    0  0.54425441010E+02  0.31035216480E+02 -0.30776335267E+03  0.31407577834E+03  0.00000000000E+00 0. -1.
        -13    1    4    4    0    0  0.57018854201E+02 -0.39666461309E+02 -0.38442019769E+03  0.39064493632E+03  0.00000000000E+00 0.  1.
         13    1    4    4    0    0  0.12761948017E+02  0.24135610429E+02 -0.36618813594E+02  0.45676389054E+02  0.00000000000E+00 0. -1.
         21    1    1    2  503  502 -0.33109744647E+01  0.45780369459E+02  0.80426456968E+02  0.92602482473E+02  0.00000000000E+00 0. -1.
          1    1    1    2  501    0 -0.86829740384E+02 -0.72901765827E+02  0.95211977823E+01  0.11377488512E+03  0.00000000000E+00 0. -1.
<scales pt_clust_5="13000.00000" pt_clust_6="13000.00000" pt_clust_7="13000.00000" pt_clust_8="13000.00000" pt_clust_9="45.89994" pt_clust_10="96.34261"></scales>
<clustering>
<clus scale="   45.900">  1  9  2 -1</clus>
<clus scale="   89.397">  7  8 -1 -1</clus>
<clus scale="   90.766">  5  6 -1 -1</clus>
<clus scale="   96.343">  1 10  2 -1</clus>
<clus scale="   96.617">  1  7  2 -1</clus>
<clus scale="   45.900">  1  5  2 -1</clus>
</clustering>
</event>
<event>
10    2  0.6640105E-006  0.1097465E+03  0.7546771E-02  0.1261172E+00
         21   -1    0    0  503  502  0.00000000000E+00  0.00000000000E+00  0.40748111094E+02  0.40748111094E+02  0.00000000000E+00 0. -1.
         -1   -1    0    0    0  501 -0.00000000000E+00 -0.00000000000E+00 -0.49910514351E+03  0.49910514351E+03  0.00000000000E+00 0.  1.
         23    2    1    2    0    0 -0.61384195263E+02  0.17359430317E+02 -0.28720856846E+03  0.30824024225E+03  0.91945178754E+02 0.  0.
         23    2    1    2    0    0  0.53993825617E+02  0.11237129525E+02 -0.11880546865E+03  0.16022559330E+03  0.92281607497E+02 0.  0.
        -11    1    3    3    0    0 -0.78636363093E+02 -0.11910680493E+01 -0.25726854191E+03  0.26902081499E+03  0.00000000000E+00 0.  1.
         11    1    3    3    0    0  0.17252167829E+02  0.18550498367E+02 -0.29940026551E+02  0.39219427256E+02  0.00000000000E+00 0. -1.
        -11    1    4    4    0    0  0.59381461190E+02 -0.26264260402E+02 -0.96343492464E+02  0.11618105632E+03  0.00000000000E+00 0.  1.
         11    1    4    4    0    0 -0.53876355733E+01  0.37501389927E+02 -0.22461976186E+02  0.44044536979E+02  0.00000000000E+00 0. -1.
         21    1    1    2  503  501  0.21449162009E+02 -0.67039333666E+01 -0.22613368067E+02  0.31880616193E+02  0.00000000000E+00 0.  1.
         -1    1    1    2    0  502 -0.14058792363E+02 -0.21892626476E+02 -0.29729627245E+02  0.39506802868E+02  0.00000000000E+00 0.  1.
<scales pt_clust_5="13000.00000" pt_clust_6="13000.00000" pt_clust_7="13000.00000" pt_clust_8="13000.00000" pt_clust_9="22.47241" pt_clust_10="25.38280"></scales>
<clustering>
<clus scale="   22.472">  1  9  2 -1</clus>
<clus scale="   25.383">  1 10  2 -1</clus>
<clus scale="   91.945">  5  6 -1 -1</clus>
<clus scale="   92.282">  7  8 -1 -1</clus>
<clus scale="  109.464">  2  5  1 -1</clus>
<clus scale="   22.472">  1  5  2 -1</clus>
</clustering>
</event>
<event>
10    2  0.6640105E-006  0.1105178E+03  0.7546771E-02  0.1261106E+00
          1   -1    0    0  503    0 -0.00000000000E+00  0.00000000000E+00  0.19708920487E+03  0.19708920487E+03  0.00000000000E+00 0. -1.
         21   -1    0    0  501  502  0.00000000000E+00 -0.00000000000E+00 -0.36875493527E+03  0.36875493527E+03  0.00000000000E+00 0. -1.
         23    2    1    2    0    0 -0.26101923108E+02 -0.41179995326E+02  0.85551698485E+02  0.13495264372E+03  0.92282287183E+02 0.  0.
         23    2    1    2    0    0 -0.66081104411E+01  0.97658956823E+02  0.24043474104E+02  0.13408750246E+03  0.88433199065E+02 0.  0.
        -11    1    4    4    0    0 -0.31274731115E+02  0.49700525335E+02 -0.22465780187E+02  0.62872587860E+02  0.00000000000E+00 0.  1.
         11    1    4    4    0    0  0.24666620674E+02  0.47958431488E+02  0.46509254291E+02  0.71214914597E+02  0.00000000000E+00 0. -1.
        -13    1    3    3    0    0 -0.19875683698E+02 -0.70681482063E+02  0.52806481766E+02  0.90440252242E+02  0.00000000000E+00 0.  1.
         13    1    3    3    0    0 -0.62262394103E+01  0.29501486737E+02  0.32745216719E+02  0.44512391475E+02  0.00000000000E+00 0. -1.
         21    1    1    2  503  502 -0.20511136078E+02 -0.24910721929E+02 -0.11336452898E+03  0.11786758333E+03  0.00000000000E+00 0.  1.
          1    1    1    2  501    0  0.53221169627E+02 -0.31568239568E+02 -0.16789637401E+03  0.17893641063E+03  0.00000000000E+00 0. -1.
<scales pt_clust_5="13000.00000" pt_clust_6="13000.00000" pt_clust_7="13000.00000" pt_clust_8="13000.00000" pt_clust_9="32.26842" pt_clust_10="62.44600"></scales>
<clustering>
<clus scale="   32.268">  2  9  1 -1</clus>
<clus scale="   62.446">  2 10  1 -1</clus>
<clus scale="   88.433">  5  6 -1 -1</clus>
<clus scale="   92.282">  7  8 -1 -1</clus>
<clus scale="  107.325">  2  5  1 -1</clus>
<clus scale="   32.268">  2  5  1 -1</clus>
</clustering>
</event>
<event>
10    2  0.6640105E-006  0.1776307E+03  0.7546771E-02  0.1185655E+00
         21   -1    0    0  501  502  0.00000000000E+00  0.00000000000E+00  0.41242920366E+03  0.41242920366E+03  0.00000000000E+00 0.  1.
          1   -1    0    0  503    0 -0.00000000000E+00 -0.00000000000E+00 -0.41912745481E+03  0.41912745481E+03  0.00000000000E+00 0. -1.
         23    2    1    2    0    0  0.84471305135E+02 -0.54513546361E+01 -0.15094970901E+03  0.19596054997E+03  0.91921726692E+02 0.  0.
         23    2    1    2    0    0 -0.12276955044E+03 -0.97242819501E+02 -0.96967934858E+02  0.21530019251E+03  0.11145790256E+03 0.  0.
        -11    1    3    3    0    0  0.60384742041E+02  0.33396418394E+02 -0.50218303386E+02  0.85343516613E+02  0.00000000000E+00 0.  1.
         11    1    3    3    0    0  0.24086563094E+02 -0.38847773031E+02 -0.10073140562E+03  0.11061703336E+03  0.00000000000E+00 0. -1.
        -13    1    4    4    0    0 -0.13511387987E+03 -0.51315171227E+02 -0.69384556700E+02  0.16032225061E+03  0.00000000000E+00 0.  1.
         13    1    4    4    0    0  0.12344329427E+02 -0.45927648274E+02 -0.27583378158E+02  0.54977941900E+02  0.00000000000E+00 0. -1.
         21    1    1    2  503  502  0.46134505131E+02  0.20849454798E+03  0.22963184419E+03  0.31357479645E+03  0.00000000000E+00 0.  1.
          1    1    1    2  501    0 -0.78362598255E+01 -0.10580037385E+03  0.11587548518E+02  0.10672111953E+03  0.00000000000E+00 0. -1.
<scales pt_clust_5="13000.00000" pt_clust_6="13000.00000" pt_clust_7="13000.00000" pt_clust_8="13000.00000" pt_clust_9="138.31049" pt_clust_10="106.09018"></scales>
<clustering>
<clus scale="   91.922">  5  6 -1 -1</clus>
<clus scale="  106.090">  1 10  2 -1</clus>
<clus scale="  111.458">  7  8 -1 -1</clus>
<clus scale="  125.098">  2  5  1 -1</clus>
<clus scale="  138.310">  1  9  2 -1</clus>
<clus scale="  106.090">  1  5  2 -1</clus>
</clustering>
</event>
<event>
10    2  0.6640105E-006  0.1238745E+03  0.7546771E-02  0.1238439E+00
         21   -1    0    0  501  502  0.00000000000E+00  0.00000000000E+00  0.15653580577E+03  0.15653580577E+03  0.00000000000E+00 0.  1.
          3   -1    0    0  503    0 -0.00000000000E+00 -0.00000000000E+00 -0.20988768715E+03  0.20988768715E+03  0.00000000000E+00 0. -1.
         23    2    1    2    0    0 -0.22634684769E+01 -0.88803928269E+02 -0.74553745034E+02  0.14800362465E+03  0.91954070308E+02 0.  0.
         23    2    1    2    0    0  0.26367764694E+02  0.58907394386E+02 -0.22073984905E+02  0.11864942230E+03  0.97082874260E+02 0.  0.
        -11    1    4    4    0    0  0.81245393317E+01  0.20708919298E+02  0.38669038368E+02  0.44611231839E+02  0.00000000000E+00 0.  1.
         11    1    4    4    0    0  0.18243225362E+02  0.38198475088E+02 -0.60743023273E+02  0.74038190463E+02  0.00000000000E+00 0. -1.
        -13    1    3    3    0    0  0.31019101693E+02 -0.81830231202E+02 -0.73001135962E+02  0.11396287668E+03  0.00000000000E+00 0.  1.
         13    1    3    3    0    0 -0.33282570170E+02 -0.69736970670E+01 -0.15526090722E+01  0.34040747977E+02  0.00000000000E+00 0. -1.
         21    1    1    2  503  502 -0.44254844800E+02  0.38367816233E+01  0.49215397779E+02  0.66297568282E+02  0.00000000000E+00 0.  1.
          3    1    1    2  501    0  0.20150548583E+02  0.26059752260E+02 -0.59395492198E+01  0.33472877692E+02  0.00000000000E+00 0. -1.
<scales pt_clust_5="13000.00000" pt_clust_6="13000.00000" pt_clust_7="13000.00000" pt_clust_8="13000.00000" pt_clust_9="38.86115" pt_clust_10="32.94171"></scales>
<clustering>
<clus scale="   32.942">  1 10  2 -1</clus>
<clus scale="   38.861">  1  9  2 -1</clus>
<clus scale="   91.954">  7  8 -1 -1</clus>
<clus scale="   97.083">  5  6 -1 -1</clus>
<clus scale="  119.897">  2  7  1 -1</clus>
<clus scale="   32.942">  1  5  2 -1</clus>
</clustering>
</event>
<event>
10    2  0.6640105E-006  0.3291886E+03  0.7546771E-02  0.1099641E+00
          2   -1    0    0  503    0 -0.00000000000E+00  0.00000000000E+00  0.11239517352E+04  0.11239517352E+04  0.00000000000E+00 0. -1.
         21   -1    0    0  501  502  0.00000000000E+00 -0.00000000000E+00 -0.18734746814E+03  0.18734746814E+03  0.00000000000E+00 0. -1.
         23    2    1    2    0    0 -0.49434603361E+02  0.11883745920E+03  0.10044093063E+03  0.18169211338E+03  0.79734069258E+02 0.  0.
         23    2    1    2    0    0  0.33371532857E+03  0.17304010273E+02  0.65774317009E+03  0.74331516861E+03  0.90697369289E+02 0.  0.
        -11    1    3    3    0    0  0.30995900709E+01  0.79543731465E+02  0.80290409533E+02  0.11306353319E+03  0.00000000000E+00 0.  1.
         11    1    3    3    0    0 -0.52534193432E+02  0.39293727735E+02  0.20150521097E+02  0.68628580193E+02  0.00000000000E+00 0. -1.
        -13    1    4    4    0    0  0.24855217178E+03 -0.57901499100E+01  0.55327603892E+03  0.60656910832E+03  0.00000000000E+00 0. -1.
         13    1    4    4    0    0  0.85163156791E+02  0.23094160183E+02  0.10446713117E+03  0.13674606029E+03  0.00000000000E+00 0.  1.
         21    1    1    2  503  502 -0.46211386436E+01  0.20972335895E+02  0.15745401889E+02  0.26629147112E+02  0.00000000000E+00 0. -1.
          2    1    1    2  501    0 -0.27965958657E+03 -0.15711380537E+03  0.16267476448E+03  0.35966277427E+03  0.00000000000E+00 0. -1.
<scales pt_clust_5="13000.00000" pt_clust_6="13000.00000" pt_clust_7="13000.00000" pt_clust_8="13000.00000" pt_clust_9="21.47542" pt_clust_10="316.44766"></scales>
<clustering>
<clus scale="   21.475">  2  9  1 -1</clus>
<clus scale="   79.734">  5  6 -1 -1</clus>
<clus scale="   90.697">  7  8 -1 -1</clus>
<clus scale="  155.441">  1  5  2 -1</clus>
<clus scale="  316.448">  2 10  1 -1</clus>
<clus scale="   21.475">  2  5  1 -1</clus>
</clustering>
</event>
<event>
10    2  0.6640105E-006  0.9843635E+02  0.7546771E-02  0.1285387E+00
         21   -1    0    0  503  502  0.00000000000E+00  0.00000000000E+00  0.58603224431E+03  0.58603224431E+03  0.00000000000E+00 0. -1.
         -1   -1    0    0    0  501 -0.00000000000E+00 -0.00000000000E+00 -0.66706601909E+02  0.66706601909E+02  0.00000000000E+00 0.  1.
         23    2    1    2    0    0 -0.11881785318E+02 -0.86806315029E+01  0.63943310985E+01  0.93029158836E+02  0.91635182861E+02 0.  0.
         23    2    1    2    0    0  0.31324347282E+02  0.55507346658E+02  0.13828341731E+03  0.17946555184E+03  0.94991054985E+02 0.  0.
        -11    1    4    4    0    0  0.45033632920E+02  0.76710722003E+02  0.11187916817E+03  0.14293184122E+03  0.00000000000E+00 0. -1.
         11    1    4    4    0    0 -0.13709285637E+02 -0.21203375345E+02  0.26404249147E+02  0.36533710621E+02  0.00000000000E+00 0.  1.
        -13    1    3    3    0    0 -0.13271385170E+02  0.37363316089E+02  0.20786132811E+02  0.44768408177E+02  0.00000000000E+00 0. -1.
         13    1    3    3    0    0  0.13895998518E+01 -0.46043947592E+02 -0.14391801713E+02  0.48260750659E+02  0.00000000000E+00 0.  1.
         21    1    1    2  503  501 -0.28104633860E+02 -0.19436348705E+02  0.25025697636E+03  0.25257908922E+03  0.00000000000E+00 0. -1.
         -1    1    1    2    0  502  0.86620718949E+01 -0.27390366451E+02  0.12439091763E+03  0.12766504633E+03  0.00000000000E+00 0.  1.
<scales pt_clust_5="13000.00000" pt_clust_6="13000.00000" pt_clust_7="13000.00000" pt_clust_8="13000.00000" pt_clust_9="41.59320" pt_clust_10="28.72740"></scales>
<clustering>
<clus scale="   28.727">  1 10  2 -1</clus>
<clus scale="   41.593">  1  9  2 -1</clus>
<clus scale="   91.635">  7  8 -1 -1</clus>
<clus scale="   94.991">  5  6 -1 -1</clus>
<clus scale="   95.202">  2  7  1 -1</clus>
<clus scale="   28.727">  1  5  2 -1</clus>
</clustering>
</event>
<event>
10    2  0.6640105E-006  0.1369555E+03  0.7546771E-02  0.1233131E+00
         21   -1    0    0  501  502  0.00000000000E+00  0.00000000000E+00  0.57573203605E+03  0.57573203605E+03  0.00000000000E+00 0. -1.
          1   -1    0    0  503    0 -0.00000000000E+00 -0.00000000000E+00 -0.11592762455E+03  0.11592762455E+03  0.00000000000E+00 0. -1.
         23    2    1    2    0    0 -0.24808050101E+02 -0.34392135474E+02  0.90531759690E+02  0.13557155051E+03  0.91571761280E+02 0.  0.
         23    2    1    2    0    0  0.91414203329E+02  0.95814410538E+02 -0.12297083781E+01  0.15971112420E+03  0.89270225573E+02 0.  0.
        -11    1    4    4    0    0  0.38829496740E+02 -0.29935281755E+01  0.22944432861E+02  0.45201084360E+02  0.00000000000E+00 0.  1.
         11    1    4    4    0    0  0.52584706589E+02  0.98807938713E+02 -0.24174141239E+02  0.11451003984E+03  0.00000000000E+00 0. -1.
        -13    1    3    3    0    0 -0.24547221195E+02 -0.56891665338E+02  0.25939057979E+02  0.67171886844E+02  0.00000000000E+00 0.  1.
         13    1    3    3    0    0 -0.26082890632E+00  0.22499529864E+02  0.64592701711E+02  0.68399663670E+02  0.00000000000E+00 0. -1.
         21    1    1    2  503  502  0.22373197697E+02  0.11463102068E+02  0.82891400852E+02  0.86619553332E+02  0.00000000000E+00 0. -1.
          1    1    1    2  501    0 -0.88979350925E+02 -0.72885377132E+02  0.28761095934E+03  0.30975743256E+03  0.00000000000E+00 0. -1.
<scales pt_clust_5="13000.00000" pt_clust_6="13000.00000" pt_clust_7="13000.00000" pt_clust_8="13000.00000" pt_clust_9="25.13887" pt_clust_10="103.86356"></scales>
<clustering>
<clus scale="   25.139">  1  9  2 -1</clus>
<clus scale="   89.270">  5  6 -1 -1</clus>
<clus scale="   91.572">  7  8 -1 -1</clus>
<clus scale="   98.894">  2  7  1 -1</clus>
<clus scale="  103.864">  1 10  2 -1</clus>
<clus scale="   25.139">  1  5  2 -1</clus>
</clustering>
</event>
<event>
10    2  0.6640105E-006  0.2103639E+03  0.7546771E-02  0.1159993E+00
         -1   -1    0    0    0  501 -0.00000000000E+00  0.00000000000E+00  0.14051339620E+04  0.14051339620E+04  0.00000000000E+00 0.  1.
         21   -1    0    0  501  502  0.00000000000E+00 -0.00000000000E+00 -0.84349165123E+02  0.84349165123E+02  0.00000000000E+00 0.  1.
         23    2    1    2    0    0 -0.80231906880E+02 -0.65545150434E+02  0.30541667738E+03  0.33554822779E+03  0.92627969470E+02 0.  0.
         23    2    1    2    0    0  0.17957009266E+03  0.13632327256E+03  0.54123827367E+03  0.59410802005E+03  0.95895869485E+02 0.  0.
        -11    1    4    4    0    0  0.25239192634E+01  0.40789215011E+02  0.60888952754E+02  0.73332085727E+02  0.00000000000E+00 0. -1.
         11    1    4    4    0    0  0.17704617340E+03  0.95534057552E+02  0.48034932091E+03  0.52077593432E+03  0.00000000000E+00 0.  1.
        -13    1    3    3    0    0 -0.67288735165E+02 -0.24037253106E+01  0.20894716103E+03  0.21952782939E+03  0.00000000000E+00 0.  1.
         13    1    3    3    0    0 -0.12943171715E+02 -0.63141425124E+02  0.96469516345E+02  0.11602039840E+03  0.00000000000E+00 0. -1.
         21    1    1    2  503  502  0.85159770306E+02 -0.52069493977E+02  0.95119086216E+02  0.13788059778E+03  0.00000000000E+00 0.  1.
         -1    1    1    2    0  503 -0.18449795609E+03 -0.18708628152E+02  0.37901075961E+03  0.42194628150E+03  0.00000000000E+00 0.  1.
<scales pt_clust_5="13000.00000" pt_clust_6="13000.00000" pt_clust_7="13000.00000" pt_clust_8="13000.00000" pt_clust_9="99.81693" pt_clust_10="187.23505"></scales>
<clustering>
<clus scale="   92.628">  7  8 -1 -1</clus>
<clus scale="   95.896">  5  6 -1 -1</clus>
<clus scale="   99.817">  2  9  1 -1</clus>
<clus scale="  135.082">  1  7  2 -1</clus>
<clus scale="  187.235">  2 10  1 -1</clus>
<clus scale="   99.817">  2  5  1 -1</clus>
</clustering>
</event>
<event>
10    2  0.6640105E-006  0.2081514E+03  0.7546771E-02  0.1155960E+00
         -3   -1    0    0    0  501 -0.00000000000E+00  0.00000000000E+00  0.17517046458E+03  0.17517046458E+03  0.00000000000E+00 0.  1.
         21   -1    0    0  503  502  0.00000000000E+00 -0.00000000000E+00 -0.15039644384E+04  0.15039644384E+04  0.00000000000E+00 0.  1.
         23    2    1    2    0    0  0.13242135345E+03 -0.95694434749E+01 -0.46472763560E+02  0.16690761364E+03  0.89841219051E+02 0.  0.
         23    2    1    2    0    0 -0.89152081038E+01 -0.16563757376E+03  0.17422438819E+02  0.18757944791E+03  0.85832517883E+02 0.  0.
        -11    1    4    4    0    0 -0.24635642089E+02 -0.12739815983E+03  0.45609335864E+02  0.13754060312E+03  0.00000000000E+00 0.  1.
         11    1    4    4    0    0  0.15720433985E+02 -0.38239413928E+02 -0.28186897045E+02  0.50038844783E+02  0.00000000000E+00 0. -1.
        -11    1    3    3    0    0  0.56914207259E+02  0.40370653568E+02 -0.20496675466E+02  0.72726407601E+02  0.00000000000E+00 0. -1.
         11    1    3    3    0    0  0.75507146193E+02 -0.49940097042E+02 -0.25976088095E+02  0.94181206042E+02  0.00000000000E+00 0.  1.
         21    1    1    2  503  501 -0.31081842351E+02  0.13168753494E+03 -0.97142704012E+03  0.98080486441E+03  0.00000000000E+00 0.  1.
         -3    1    1    2    0  502 -0.92424302998E+02  0.43519482292E+02 -0.32831660896E+03  0.34384297702E+03  0.00000000000E+00 0.  1.
<scales pt_clust_5="13000.00000" pt_clust_6="13000.00000" pt_clust_7="13000.00000" pt_clust_8="13000.00000" pt_clust_9="189.63068" pt_clust_10="102.15771"></scales>
<clustering>
<clus scale="   85.833">  5  6 -1 -1</clus>
<clus scale="   89.841">  7  8 -1 -1</clus>
<clus scale="  102.158">  2 10  1 -1</clus>
<clus scale="  153.210">  1  7  2 -1</clus>
<clus scale="  189.631">  2  9  1 -1</clus>
<clus scale="  102.158">  2  5  1 -1</clus>
</clustering>
</event>
<event>
10    2  0.6640105E-006  0.9321495E+02  0.7546771E-02  0.1295462E+00
         21   -1    0    0  501  502  0.00000000000E+00  0.00000000000E+00  0.69120613963E+02  0.69120613963E+02  0.00000000000E+00 0.  1.
          1   -1    0    0  503    0 -0.00000000000E+00 -0.00000000000E+00 -0.56156427062E+03  0.56156427062E+03  0.00000000000E+00 0. -1.
         23    2    1    2    0    0 -0.15597544898E+02  0.18908789202E+02 -0.15905717123E+03  0.18478007765E+03  0.90794645555E+02 0.  0.
         23    2    1    2    0    0 -0.66541927634E+02 -0.32702511162E+01 -0.14019495103E+03  0.17963330742E+03  0.90415585852E+02 0.  0.
        -11    1    4    4    0    0 -0.40858034225E+02  0.42681981323E+02 -0.64987374265E+02  0.87832165544E+02  0.00000000000E+00 0.  1.
         11    1    4    4    0    0 -0.25683893409E+02 -0.45952232439E+02 -0.75207576770E+02  0.91801141879E+02  0.00000000000E+00 0. -1.
        -13    1    3    3    0    0 -0.51835058582E+02  0.96425493913E+01 -0.11797991567E+03  0.12922504617E+03  0.00000000000E+00 0.  1.
         13    1    3    3    0    0  0.36237513684E+02  0.92662398109E+01 -0.41077255558E+02  0.55555031477E+02  0.00000000000E+00 0. -1.
         21    1    1    2  503  502  0.50591014229E+02 -0.34146227096E+02  0.82007906596E+01  0.61584645108E+02  0.00000000000E+00 0. -1.
          1    1    1    2  501    0  0.31548458304E+02  0.18507689010E+02 -0.20139232506E+03  0.20468685440E+03  0.00000000000E+00 0. -1.
<scales pt_clust_5="13000.00000" pt_clust_6="13000.00000" pt_clust_7="13000.00000" pt_clust_8="13000.00000" pt_clust_9="71.27641" pt_clust_10="36.57651"></scales>
<clustering>
<clus scale="   36.577">  1 10  2 -1</clus>
<clus scale="   71.276">  1  9  2 -1</clus>
<clus scale="   90.416">  5  6 -1 -1</clus>
<clus scale="   90.795">  7  8 -1 -1</clus>
<clus scale="   92.846">  1  5  2 -1</clus>
<clus scale="   36.577">  1  5  2 -1</clus>
</clustering>
</event>
<event>
10    2  0.6640105E-006  0.4282892E+03  0.7546771E-02  0.1063800E+00
         21   -1    0    0  501  502  0.00000000000E+00  0.00000000000E+00  0.81263293112E+03  0.81263293112E+03  0.00000000000E+00 0. -1.
          1   -1    0    0  503    0 -0.00000000000E+00 -0.00000000000E+00 -0.45658912016E+03  0.45658912016E+03  0.00000000000E+00 0. -1.
         23    2    1    2    0    0 -0.22424267454E+02  0.15897182325E+03 -0.35388587665E+01  0.18433544663E+03  0.90510469042E+02 0.  0.
         23    2    1    2    0    0  0.36921954930E+03 -0.18712046756E+03  0.24564567589E+03  0.48988666063E+03  0.91159186146E+02 0.  0.
        -11    1    3    3    0    0 -0.20183774753E+02  0.86896150864E+02  0.42464365581E+02  0.98800547278E+02  0.00000000000E+00 0.  1.
         11    1    3    3    0    0 -0.22404927011E+01  0.72075672381E+02 -0.46003224348E+02  0.85534899352E+02  0.00000000000E+00 0. -1.
        -11    1    4    4    0    0  0.33056578587E+03 -0.17888041172E+03  0.24798000889E+03  0.45029548665E+03  0.00000000000E+00 0. -1.
         11    1    4    4    0    0  0.38653763421E+02 -0.82400558489E+01 -0.23343329987E+01  0.39591173986E+02  0.00000000000E+00 0.  1.
         21    1    1    2  503  502  0.66420724572E+02  0.11598146458E+02  0.16506407417E+03  0.17830417336E+03  0.00000000000E+00 0. -1.
          1    1    1    2  501    0 -0.41321600641E+03  0.16550497862E+02 -0.51127080340E+02  0.41669577065E+03  0.00000000000E+00 0. -1.
<scales pt_clust_5="13000.00000" pt_clust_6="13000.00000" pt_clust_7="13000.00000" pt_clust_8="13000.00000" pt_clust_9="67.42573" pt_clust_10="418.47556"></scales>
<clustering>
<clus scale="   67.426">  1  9  2 -1</clus>
<clus scale="   90.510">  5  6 -1 -1</clus>
<clus scale="   91.159">  7  8 -1 -1</clus>
<clus scale="  184.817">  2  5  1 -1</clus>
<clus scale="  418.476">  1 10  2 -1</clus>
<clus scale="   67.426">  1  5  2 -1</clus>
</clustering>
</event>
<event>
10    2  0.6640105E-006  0.1107278E+03  0.7546771E-02  0.1261600E+00
         21   -1    0    0  501  502  0.00000000000E+00  0.00000000000E+00  0.19934291918E+03  0.19934291918E+03  0.00000000000E+00 0.  1.
         -2   -1    0    0    0  501 -0.00000000000E+00 -0.00000000000E+00 -0.23065065388E+03  0.23065065388E+03  0.00000000000E+00 0.  1.
         23    2    1    2    0    0  0.61630517113E+02  0.52827141847E+02 -0.50280899299E+02  0.13157130381E+03  0.90519675194E+02 0.  0.
         23    2    1    2    0    0  0.41035324901E+02 -0.47296442674E+02  0.59539742691E+01  0.11506867784E+03  0.96356107387E+02 0.  0.
        -11    1    3    3    0    0 -0.19826715036E+02  0.22982763657E+02 -0.29581624357E+02  0.42383706233E+02  0.00000000000E+00 0. -1.
         11    1    3    3    0    0  0.81457232149E+02  0.29844378190E+02 -0.20699274943E+02  0.89187597580E+02  0.00000000000E+00 0.  1.
        -13    1    4    4    0    0  0.59709864046E+02 -0.19675901479E+02  0.34024171569E+02  0.71484636212E+02  0.00000000000E+00 0.  1.
         13    1    4    4    0    0 -0.18674539145E+02 -0.27620541195E+02 -0.28070197300E+02  0.43584041628E+02  0.00000000000E+00 0. -1.
         21    1    1    2  503  502 -0.32573000282E+02  0.68302139771E+01  0.79359646037E+02  0.86055828330E+02  0.00000000000E+00 0.  1.
         -2    1    1    2    0  503 -0.70092841731E+02 -0.12360913150E+02 -0.66340455707E+02  0.97297763075E+02  0.00000000000E+00 0.  1.
<scales pt_clust_5="13000.00000" pt_clust_6="13000.00000" pt_clust_7="13000.00000" pt_clust_8="13000.00000" pt_clust_9="33.28141" pt_clust_10="75.29205"></scales>
<clustering>
<clus scale="   33.281">  1  9  2 -1</clus>
<clus scale="   75.292">  1 10  2 -1</clus>
<clus scale="   90.520">  5  6 -1 -1</clus>
<clus scale="   96.356">  7  8 -1 -1</clus>
<clus scale="  105.688">  2  5  1 -1</clus>
<clus scale="   33.281">  1  5  2 -1</clus>
</clustering>
</event>
<event>
10    2  0.6640105E-006  0.1012457E+03  0.7546771E-02  0.1278771E+00
         21   -1    0    0  501  502  0.00000000000E+00  0.00000000000E+00  0.52727739006E+03  0.52727739006E+03  0.00000000000E+00 0. -1.
          1   -1    0    0  503    0 -0.00000000000E+00 -0.00000000000E+00 -0.38556419256E+03  0.38556419256E+03  0.00000000000E+00 0. -1.
         23    2    1    2    0    0  0.30642092842E+02 -0.16148754323E+02 -0.23713196984E+03  0.25616346637E+03  0.90489945654E+02 0.  0.
         23    2    1    2    0    0 -0.73313211150E+01  0.90089791458E+02 -0.77207862246E+02  0.15076733280E+03  0.92735192091E+02 0.  0.
        -11    1    4    4    0    0 -0.31521344457E+02  0.98854851989E+02 -0.62619146627E+02  0.12119007568E+03  0.00000000000E+00 0.  1.
         11    1    4    4    0    0  0.24190023342E+02 -0.87650605311E+01 -0.14588715619E+02  0.29577257121E+02  0.00000000000E+00 0. -1.
        -13    1    3    3    0    0  0.23502317000E+02 -0.52154437832E+02 -0.17368791574E+03  0.18286589721E+03  0.00000000000E+00 0. -1.
         13    1    3    3    0    0  0.71397758420E+01  0.36005683509E+02 -0.63444054101E+02  0.73297569160E+02  0.00000000000E+00 0.  1.
         21    1    1    2  503  502  0.19059526119E+02 -0.10746910907E+03  0.43406451404E+03  0.44757667197E+03  0.00000000000E+00 0. -1.
          1    1    1    2  501    0 -0.42370297847E+02  0.33528071933E+02  0.21988515538E+02  0.58334111485E+02  0.00000000000E+00 0. -1.
<scales pt_clust_5="13000.00000" pt_clust_6="13000.00000" pt_clust_7="13000.00000" pt_clust_8="13000.00000" pt_clust_9="79.50174" pt_clust_10="54.03123"></scales>
<clustering>
<clus scale="   54.031">  1 10  2 -1</clus>
<clus scale="   79.502">  1  9  2 -1</clus>
<clus scale="   90.490">  7  8 -1 -1</clus>
<clus scale="   92.735">  5  6 -1 -1</clus>
<clus scale="   99.193">  2  7  1 -1</clus>
<clus scale="   54.031">  1  5  2 -1</clus>
</clustering>
</event>
<event>
10    2  0.6640105E-006  0.1218561E+03  0.7546771E-02  0.1244119E+00
          1   -1    0    0  503    0 -0.00000000000E+00  0.00000000000E+00  0.54111400568E+03  0.54111400568E+03  0.00000000000E+00 0. -1.
         21   -1    0    0  501  502  0.00000000000E+00 -0.00000000000E+00 -0.22993441511E+03  0.22993441511E+03  0.00000000000E+00 0.  1.
         23    2    1    2    0    0 -0.44694101442E+02  0.41544606156E+02  0.41622966179E+03  0.43059641152E+03  0.91883737705E+02 0.  0.
         23    2    1    2    0    0  0.56766480571E+02 -0.61340064063E+02  0.74090330526E+02  0.15219603213E+03  0.10338867609E+03 0.  0.
        -13    1    3    3    0    0 -0.54604500019E+02  0.63980325563E+02  0.35016023031E+03  0.36012125787E+03  0.00000000000E+00 0.  1.
         13    1    3    3    0    0  0.99103985767E+01 -0.22435719408E+02  0.66069431483E+02  0.70475153648E+02  0.00000000000E+00 0. -1.
        -13    1    4    4    0    0  0.31338963759E+02  0.25281918047E+02  0.36704121414E+02  0.54483929359E+02  0.00000000000E+00 0.  1.
         13    1    4    4    0    0  0.25427516812E+02 -0.86621982111E+02  0.37386209112E+02  0.97712102770E+02  0.00000000000E+00 0. -1.
         21    1    1    2  503  502  0.88292229022E+01  0.19031598701E+02 -0.15457685962E+03  0.15599411033E+03  0.00000000000E+00 0.  1.
          1    1    1    2  501    0 -0.20901602031E+02  0.76385920662E+00 -0.24563542123E+02  0.32261866808E+02  0.00000000000E+00 0. -1.
<scales pt_clust_5="13000.00000" pt_clust_6="13000.00000" pt_clust_7="13000.00000" pt_clust_8="13000.00000" pt_clust_9="20.92616" pt_clust_10="20.91556"></scales>
<clustering>
<clus scale="   20.916">  2 10  1 -1</clus>
<clus scale="   20.926">  2  9  1 -1</clus>
<clus scale="   91.884">  5  6 -1 -1</clus>
<clus scale="  103.389">  7  8 -1 -1</clus>
<clus scale="  112.260">  1  5  2 -1</clus>
<clus scale="   20.916">  2  5  1 -1</clus>
</clustering>
</event>
<event>
10    2  0.6640105E-006  0.1250539E+03  0.7546771E-02  0.1235091E+00
         -2   -1    0    0    0  501 -0.00000000000E+00  0.00000000000E+00  0.26089776138E+03  0.26089776138E+03  0.00000000000E+00 0. -1.
         21   -1    0    0  501  502  0.00000000000E+00 -0.00000000000E+00 -0.17877205136E+03  0.17877205136E+03  0.00000000000E+00 0. -1.
         23    2    1    2    0    0 -0.67309078591E+02  0.30537333399E+02  0.78922450840E+02  0.14165161017E+03  0.91506199921E+02 0.  0.
         23    2    1    2    0    0  0.12164767976E+03 -0.39468806934E+02 -0.71182609486E+02  0.17281185636E+03  0.91875073296E+02 0.  0.
        -11    1    3    3    0    0 -0.14448726374E+02  0.56190873072E+02  0.30701209796E+02  0.65641025231E+02  0.00000000000E+00 0. -1.
         11    1    3    3    0    0 -0.52860352216E+02 -0.25653539673E+02  0.48221241044E+02  0.76010584934E+02  0.00000000000E+00 0.  1.
        -13    1    4    4    0    0  0.25468633716E+02  0.59804424439E+01  0.19819396229E+02  0.32821113053E+02  0.00000000000E+00 0.  1.
         13    1    4    4    0    0  0.96179046045E+02 -0.45449249378E+02 -0.91002005715E+02  0.13999074331E+03  0.00000000000E+00 0. -1.
         21    1    1    2  503  502  0.82718334709E+01  0.21950134369E+02 -0.42613871720E+01  0.23840953177E+02  0.00000000000E+00 0. -1.
         -2    1    1    2    0  503 -0.62610434641E+02 -0.13018660833E+02  0.78647255840E+02  0.10136539304E+03  0.00000000000E+00 0. -1.
<scales pt_clust_5="13000.00000" pt_clust_6="13000.00000" pt_clust_7="13000.00000" pt_clust_8="13000.00000" pt_clust_9="23.45702" pt_clust_10="63.09780"></scales>
<clustering>
<clus scale="   23.457">  2  9  1 -1</clus>
<clus scale="   63.098">  2 10  1 -1</clus>
<clus scale="   91.506">  5  6 -1 -1</clus>
<clus scale="   91.875">  7  8 -1 -1</clus>
<clus scale="  124.783">  1  5  2 -1</clus>
<clus scale="   23.457">  2  5  1 -1</clus>
</clustering>
</event>
<event>
10    2  0.6640105E-006  0.1178907E+03  0.7546771E-02  0.1247238E+00
         -2   -1    0    0    0  501 -0.00000000000E+00  0.00000000000E+00  0.25660476860E+03  0.25660476860E+03  0.00000000000E+00 0.  1.
         21   -1    0    0  503  502  0.00000000000E+00 -0.00000000000E+00 -0.15472594751E+03  0.15472594751E+03  0.00000000000E+00 0. -1.
         23    2    1    2    0    0  0.64885311763E+02  0.21670203580E+02  0.12978362577E+03  0.17260936802E+03  0.90942305899E+02 0.  0.
         23    2    1    2    0    0 -0.90601770952E+02  0.12159658089E+01  0.58164053437E+02  0.13972044673E+03  0.89042611427E+02 0.  0.
        -13    1    4    4    0    0 -0.16440906313E+02  0.21344415682E+02  0.56798273342E+02  0.62864388455E+02  0.00000000000E+00 0.  1.
         13    1    4    4    0    0 -0.74160864639E+02 -0.20128449873E+02  0.13657800954E+01  0.76856058275E+02  0.00000000000E+00 0. -1.
        -13    1    3    3    0    0  0.28159326372E+02  0.55919158788E+02  0.60705960133E+02  0.87207302314E+02  0.00000000000E+00 0.  1.
         13    1    3    3    0    0  0.36725985391E+02 -0.34248955208E+02  0.69077665642E+02  0.85402065703E+02  0.00000000000E+00 0. -1.
         21    1    1    2  503  501  0.26150379393E+02 -0.15791025087E+01 -0.58957361082E+02  0.64515938596E+02  0.00000000000E+00 0. -1.
         -2    1    1    2    0  502 -0.43392020393E+00 -0.21307066880E+02 -0.27111497041E+02  0.34484962775E+02  0.00000000000E+00 0.  1.
<scales pt_clust_5="13000.00000" pt_clust_6="13000.00000" pt_clust_7="13000.00000" pt_clust_8="13000.00000" pt_clust_9="28.65775" pt_clust_10="21.31148"></scales>
<clustering>
<clus scale="   21.311">  2 10  1 -1</clus>
<clus scale="   28.658">  2  9  1 -1</clus>
<clus scale="   89.043">  5  6 -1 -1</clus>
<clus scale="   90.942">  7  8 -1 -1</clus>
<clus scale="  116.432">  2  5  1 -1</clus>
<clus scale="   21.311">  2  5  1 -1</clus>
</clustering>
</event>
<event>
10    2  0.6640105E-006  0.1307638E+03  0.7546771E-02  0.1227234E+00
         21   -1    0    0  503  502  0.00000000000E+00  0.00000000000E+00  0.21475184978E+03  0.21475184978E+03  0.00000000000E+00 0.  1.
         -1   -1    0    0    0  501 -0.00000000000E+00 -0.00000000000E+00 -0.47430083330E+03  0.47430083330E+03  0.00000000000E+00 0.  1.
         23    2    1    2    0    0 -0.71842437538E+02  0.65937050882E+02 -0.31814608852E+03  0.34362615798E+03  0.85749474021E+02 0.  0.
         23    2    1    2    0    0  0.51002942142E+02 -0.63462318143E+02  0.53356138565E+02  0.13213786350E+03  0.89357548733E+02 0.  0.
        -11    1    4    4    0    0  0.52763583355E+01 -0.65634286460E+02  0.55778532177E+02  0.86295678734E+02  0.00000000000E+00 0.  1.
         11    1    4    4    0    0  0.45726583806E+02  0.21719683169E+01 -0.24223936112E+01  0.45842184762E+02  0.00000000000E+00 0. -1.
        -11    1    3    3    0    0 -0.85156836609E+02  0.34601744415E+02 -0.19048437432E+03  0.21150239809E+03  0.00000000000E+00 0.  1.
         11    1    3    3    0    0  0.13314399072E+02  0.31335306468E+02 -0.12766171420E+03  0.13212375989E+03  0.00000000000E+00 0. -1.
         21    1    1    2  503  501 -0.40255380780E+02 -0.12627845079E+02  0.95166739857E+02  0.10409931089E+03  0.00000000000E+00 0.  1.
         -1    1    1    2    0  502  0.61094876176E+02  0.10153112340E+02 -0.89925773416E+02  0.10918935072E+03  0.00000000000E+00 0.  1.
<scales pt_clust_5="13000.00000" pt_clust_6="13000.00000" pt_clust_7="13000.00000" pt_clust_8="13000.00000" pt_clust_9="42.18955" pt_clust_10="58.43913"></scales>
<clustering>
<clus scale="   42.190">  1  9  2 -1</clus>
<clus scale="   58.439">  1 10  2 -1</clus>
<clus scale="   85.749">  7  8 -1 -1</clus>
<clus scale="   89.358">  5  6 -1 -1</clus>
<clus scale="  128.325">  2  7  1 -1</clus>
<clus scale="   42.190">  1  5  2 -1</clus>
</clustering>
</event>
<event>
10    2  0.6640105E-006  0.2921169E+03  0.7546771E-02  0.1132963E+00
         21   -1    0    0  503  502  0.00000000000E+00  0.00000000000E+00  0.18668458232E+03  0.18668458232E+03  0.00000000000E+00 0. -1.
          2   -1    0    0  502    0 -0.00000000000E+00 -0.00000000000E+00 -0.84597127374E+03  0.84597127374E+03  0.00000000000E+00 0. -1.
         23    2    1    2    0    0 -0.23673972564E+02 -0.13056878721E+02  0.14046228305E+02  0.97132879140E+02  0.92231017676E+02 0.  0.
         23    2    1    2    0    0  0.27914086630E+03 -0.81740561007E+02 -0.54136638025E+03  0.62131873046E+03  0.91423545126E+02 0.  0.
        -11    1    4    4    0    0  0.76002343390E+02  0.11265633572E+02 -0.18987977631E+03  0.20483554416E+03  0.00000000000E+00 0.  1.
         11    1    4    4    0    0  0.20313852291E+03 -0.93006194579E+02 -0.35148660394E+03  0.41648318630E+03  0.00000000000E+00 0. -1.
        -13    1    3    3    0    0  0.28609485765E+02 -0.27494292751E+02  0.16178703764E+02  0.42850779049E+02  0.00000000000E+00 0.  1.
         13    1    3    3    0    0 -0.52283458329E+02  0.14437414030E+02 -0.21324754595E+01  0.54282100091E+02  0.00000000000E+00 0. -1.
         21    1    1    2  503  501 -0.28303857365E+02  0.11761396484E+02  0.11794210890E+02  0.32841166232E+02  0.00000000000E+00 0. -1.
          2    1    1    2  501    0 -0.22716303637E+03  0.83036043245E+02 -0.14376075036E+03  0.28136308023E+03  0.00000000000E+00 0. -1.
<scales pt_clust_5="13000.00000" pt_clust_6="13000.00000" pt_clust_7="13000.00000" pt_clust_8="13000.00000" pt_clust_9="29.90964" pt_clust_10="289.88494"></scales>
<clustering>
<clus scale="   29.910">  9 10 -1 -1</clus>
<clus scale="   91.424">  5  6 -1 -1</clus>
<clus scale="   92.231">  7  8 -1 -1</clus>
<clus scale="   96.112">  2  7  1 -1</clus>
<clus scale="  289.885">  1  9  2 -1</clus>
<clus scale="  289.885">  1  5  2 -1</clus>
</clustering>
</event>
<event>
10    2  0.6640105E-006  0.1501248E+03  0.7546771E-02  0.1224566E+00
         -1   -1    0    0    0  501 -0.00000000000E+00  0.00000000000E+00  0.47584192073E+03  0.47584192073E+03  0.00000000000E+00 0.  1.
         21   -1    0    0  503  502  0.00000000000E+00 -0.00000000000E+00 -0.39330320191E+03  0.39330320191E+03  0.00000000000E+00 0.  1.
         23    2    1    2    0    0 -0.74769561614E+01 -0.19794745474E+02 -0.25819910735E+03  0.27331691066E+03  0.87106933087E+02 0.  0.
         23    2    1    2    0    0 -0.43715436587E+02  0.21281675880E+02  0.25078192907E+03  0.27140334976E+03  0.91674714010E+02 0.  0.
        -11    1    4    4    0    0  0.13089731854E+00  0.47114945641E+02  0.16565076958E+03  0.17222082539E+03  0.00000000000E+00 0. -1.
         11    1    4    4    0    0 -0.43846333906E+02 -0.25833269761E+02  0.85131159488E+02  0.99182524364E+02  0.00000000000E+00 0.  1.
        -11    1    3    3    0    0 -0.16893423142E+02 -0.37678863176E+02 -0.24655936075E+03  0.24999320561E+03  0.00000000000E+00 0.  1.
         11    1    3    3    0    0  0.94164669805E+01  0.17884117702E+02 -0.11639746603E+02  0.23323705052E+02  0.00000000000E+00 0. -1.
         21    1    1    2  503  501 -0.37376885314E+02 -0.13449638216E+03  0.87220044202E+02  0.16460147169E+03  0.00000000000E+00 0.  1.
         -1    1    1    2    0  502  0.88569278062E+02  0.13300945176E+03  0.27358529081E+01  0.15982339054E+03  0.00000000000E+00 0.  1.
<scales pt_clust_5="13000.00000" pt_clust_6="13000.00000" pt_clust_7="13000.00000" pt_clust_8="13000.00000" pt_clust_9="13000.00000" pt_clust_10="150.12484"></scales>
<clustering>
<clus scale="   87.107">  7  8 -1 -1</clus>
<clus scale="   89.640">  1  7  2 -1</clus>
<clus scale="   91.675">  5  6 -1 -1</clus>
<clus scale="  103.933">  1  5  2 -1</clus>
<clus scale="  150.125">  2 10  1 -1</clus>
<clus scale="  150.125">  2  5  1 -1</clus>
</clustering>
</event>
<event>
10    2  0.6640105E-006  0.1179861E+03  0.7546771E-02  0.1246886E+00
          2   -1    0    0  503    0 -0.00000000000E+00  0.00000000000E+00  0.31541905574E+03  0.31541905574E+03  0.00000000000E+00 0. -1.
         21   -1    0    0  501  502  0.00000000000E+00 -0.00000000000E+00 -0.87812286262E+02  0.87812286262E+02  0.00000000000E+00 0.  1.
         23    2    1    2    0    0  0.42317366089E+02  0.49619167349E+02  0.13320835920E+03  0.17404520554E+03  0.91073845696E+02 0.  0.
         23    2    1    2    0    0 -0.38025063199E+02 -0.84758939177E+02  0.92794112042E+02  0.15905079462E+03  0.89757589306E+02 0.  0.
        -11    1    4    4    0    0 -0.63032696041E+02 -0.75296294965E+02  0.88056696587E+02  0.13189630252E+03  0.00000000000E+00 0.  1.
         11    1    4    4    0    0  0.25007632842E+02 -0.94626442126E+01  0.47374154550E+01  0.27154492097E+02  0.00000000000E+00 0. -1.
        -13    1    3    3    0    0 -0.16414605175E+01  0.45226739045E+02  0.14721916415E+02  0.47590830421E+02  0.00000000000E+00 0.  1.
         13    1    3    3    0    0  0.43958826607E+02  0.43924283041E+01  0.11848644278E+03  0.12645437512E+03  0.00000000000E+00 0. -1.
         21    1    1    2  503  502  0.16856642488E+02  0.40417319776E+02 -0.10734188852E+02  0.45088013309E+02  0.00000000000E+00 0. -1.
          2    1    1    2  501    0 -0.21148945378E+02 -0.52775479474E+01  0.12338487089E+02  0.25047328532E+02  0.00000000000E+00 0. -1.
<scales pt_clust_5="13000.00000" pt_clust_6="13000.00000" pt_clust_7="13000.00000" pt_clust_8="13000.00000" pt_clust_9="39.78703" pt_clust_10="21.79749"></scales>
<clustering>
<clus scale="   21.797">  2 10  1 -1</clus>
<clus scale="   39.787">  2  9  1 -1</clus>
<clus scale="   89.758">  5  6 -1 -1</clus>
<clus scale="   91.074">  7  8 -1 -1</clus>
<clus scale="  116.973">  2  5  1 -1</clus>
<clus scale="   21.797">  2  5  1 -1</clus>
</clustering>
</event>
<event>
10    2  0.6640105E-006  0.1050064E+03  0.7546771E-02  0.1270788E+00
          2   -1    0    0  502    0 -0.00000000000E+00  0.00000000000E+00  0.36030429488E+03  0.36030429488E+03  0.00000000000E+00 0. -1.
         21   -1    0    0  503  502  0.00000000000E+00 -0.00000000000E+00 -0.11487918716E+03  0.11487918716E+03  0.00000000000E+00 0.  1.
         23    2    1    2    0    0  0.72122606020E+02 -0.43877006222E+02  0.15904161680E+03  0.20179924320E+03  0.91114415476E+02 0.  0.
         23    2    1    2    0    0  0.13324415447E+02  0.37086980432E+02  0.71267747633E+02  0.12102639258E+03  0.89528273100E+02 0.  0.
        -11    1    3    3    0    0  0.36031184380E+02  0.71509454520E+01  0.69766092245E+01  0.37390578291E+02  0.00000000000E+00 0.  1.
         11    1    3    3    0    0  0.36091421640E+02 -0.51027951674E+02  0.15206500758E+03  0.16440866491E+03  0.00000000000E+00 0. -1.
        -13    1    4    4    0    0 -0.46352312282E+01 -0.28587647259E+02  0.14545120751E+02  0.32408324270E+02  0.00000000000E+00 0. -1.
         13    1    4    4    0    0  0.17959646675E+02  0.65674627691E+02  0.56722626881E+02  0.88618068312E+02  0.00000000000E+00 0.  1.
         21    1    1    2  503  501 -0.27473064267E+01  0.21367883174E+02 -0.44454486866E+02  0.49399752292E+02  0.00000000000E+00 0.  1.
          2    1    1    2  501    0 -0.82699715040E+02 -0.14577857384E+02  0.59570230151E+02  0.10295809397E+03  0.00000000000E+00 0. -1.
<scales pt_clust_5="13000.00000" pt_clust_6="13000.00000" pt_clust_7="13000.00000" pt_clust_8="13000.00000" pt_clust_9="21.54377" pt_clust_10="83.93592"></scales>
<clustering>
<clus scale="   21.544">  2  9  1 -1</clus>
<clus scale="   83.936">  2 10  1 -1</clus>
<clus scale="   89.528">  7  8 -1 -1</clus>
<clus scale="   91.114">  5  6 -1 -1</clus>
<clus scale="  103.633">  2  7  1 -1</clus>
<clus scale="   21.544">  2  5  1 -1</clus>
</clustering>
</event>
<event>
10    2  0.6640105E-006  0.1710621E+03  0.7546771E-02  0.1177181E+00
         21   -1    0    0  501  502  0.00000000000E+00  0.00000000000E+00  0.72717548710E+02  0.72717548710E+02  0.00000000000E+00 0.  1.
          2   -1    0    0  503    0 -0.00000000000E+00 -0.00000000000E+00 -0.15752163449E+04  0.15752163449E+04  0.00000000000E+00 0. -1.
         23    2    1    2    0    0  0.94485428692E+02  0.11385554757E+03 -0.71374635434E+03  0.73445640542E+03  0.90009839321E+02 0.  0.
         23    2    1    2    0    0 -0.11466590701E+03 -0.84593385312E+02 -0.25601154561E+03  0.30557512705E+03  0.86775202210E+02 0.  0.
        -13    1    4    4    0    0 -0.11981004775E+03 -0.52459818368E+02 -0.17663940910E+03  0.21979072076E+03  0.00000000000E+00 0.  1.
         13    1    4    4    0    0  0.51441407440E+01 -0.32133566945E+02 -0.79372136509E+02  0.85784406291E+02  0.00000000000E+00 0. -1.
        -13    1    3    3    0    0  0.26007558653E+02  0.12441636873E+02 -0.37888705882E+02  0.47610308427E+02  0.00000000000E+00 0.  1.
         13    1    3    3    0    0  0.68477870039E+02  0.10141391069E+03 -0.67585764846E+03  0.68684609699E+03  0.00000000000E+00 0. -1.
         21    1    1    2  503  502 -0.76279584587E+02 -0.95986276164E+02 -0.96089047350E+02  0.15577241494E+03  0.00000000000E+00 0.  1.
          2    1    1    2  501    0  0.96460062902E+02  0.66724113910E+02 -0.43665184889E+03  0.45212994620E+03  0.00000000000E+00 0. -1.
<scales pt_clust_5="13000.00000" pt_clust_6="13000.00000" pt_clust_7="13000.00000" pt_clust_8="13000.00000" pt_clust_9="72.74893" pt_clust_10="117.28881"></scales>
<clustering>
<clus scale="   86.775">  5  6 -1 -1</clus>
<clus scale="   90.010">  7  8 -1 -1</clus>
<clus scale="  117.289">  1 10  2 -1</clus>
<clus scale="   72.749">  1  9  2 -1</clus>
<clus scale="  169.382">  1  5  2 -1</clus>
<clus scale="  117.289">  1  5  2 -1</clus>
</clustering>
</event>
<event>
10    2  0.6640105E-006  0.1053445E+03  0.7546771E-02  0.1269583E+00
          3   -1    0    0  503    0 -0.00000000000E+00  0.00000000000E+00  0.42344074931E+03  0.42344074931E+03  0.00000000000E+00 0. -1.
         21   -1    0    0  501  502  0.00000000000E+00 -0.00000000000E+00 -0.15787422786E+03  0.15787422786E+03  0.00000000000E+00 0.  1.
         23    2    1    2    0    0  0.25939725717E+02  0.49910483337E+02  0.28398726541E+03  0.30434230685E+03  0.93869841288E+02 0.  0.
         23    2    1    2    0    0  0.25205850853E+02 -0.37167698513E+02  0.75803448449E+02  0.12850747930E+03  0.93548044920E+02 0.  0.
        -11    1    4    4    0    0  0.38661892118E+02 -0.53140434984E+02  0.19643049112E+02  0.68589336714E+02  0.00000000000E+00 0. -1.
         11    1    4    4    0    0 -0.13456041265E+02  0.15972736471E+02  0.56160399337E+02  0.59918142583E+02  0.00000000000E+00 0.  1.
        -13    1    3    3    0    0 -0.85540014585E+01  0.59015106654E+02  0.96099239409E+02  0.11309738091E+03  0.00000000000E+00 0. -1.
         13    1    3    3    0    0  0.34493727175E+02 -0.91046233171E+01  0.18788802600E+03  0.19124492594E+03  0.00000000000E+00 0.  1.
         21    1    1    2  503  502  0.12277943703E+02  0.19708567936E+02  0.73867518487E+01  0.24366773576E+02  0.00000000000E+00 0.  1.
          3    1    1    2  501    0 -0.63423520272E+02 -0.32451352760E+02 -0.10161094426E+03  0.12409841745E+03  0.00000000000E+00 0. -1.
<scales pt_clust_5="13000.00000" pt_clust_6="13000.00000" pt_clust_7="13000.00000" pt_clust_8="13000.00000" pt_clust_9="23.22015" pt_clust_10="56.92479"></scales>
<clustering>
<clus scale="   23.220">  2  9  1 -1</clus>
<clus scale="   56.925">  2 10  1 -1</clus>
<clus scale="   93.548">  5  6 -1 -1</clus>
<clus scale="   93.870">  7  8 -1 -1</clus>
<clus scale="  105.058">  2  5  1 -1</clus>
<clus scale="   23.220">  2  5  1 -1</clus>
</clustering>
</event>
<event>
10    2  0.6640105E-006  0.9494444E+02  0.7546771E-02  0.1292349E+00
          1   -1    0    0  503    0 -0.00000000000E+00  0.00000000000E+00  0.34713159811E+03  0.34713159811E+03  0.00000000000E+00 0. -1.
         21   -1    0    0  501  502  0.00000000000E+00 -0.00000000000E+00 -0.64225797869E+02  0.64225797869E+02  0.00000000000E+00 0. -1.
         23    2    1    2    0    0 -0.39264564808E+02 -0.11112025022E+02  0.20413826280E+03  0.22637509409E+03  0.88927328396E+02 0.  0.
         23    2    1    2    0    0 -0.16828853209E+02  0.18777345664E+02  0.42801677932E+02  0.10354540725E+03  0.90850804715E+02 0.  0.
        -11    1    3    3    0    0  0.12806730048E+01  0.33933893537E+02  0.47242595650E+02  0.58180856797E+02  0.00000000000E+00 0.  1.
         11    1    3    3    0    0 -0.40545237813E+02 -0.45045918559E+02  0.15689566715E+03  0.16819423729E+03  0.00000000000E+00 0. -1.
        -13    1    4    4    0    0 -0.37028865707E+02  0.24905416216E+02 -0.10820051531E+02  0.45918298831E+02  0.00000000000E+00 0. -1.
         13    1    4    4    0    0  0.20200012498E+02 -0.61280705511E+01  0.53621729463E+02  0.57627108414E+02  0.00000000000E+00 0.  1.
         21    1    1    2  503  502  0.20647770315E+02  0.12875620697E+02 -0.34620920415E+01  0.24578407365E+02  0.00000000000E+00 0. -1.
          1    1    1    2  501    0  0.35445647702E+02 -0.20540941339E+02  0.39427951552E+02  0.56858487280E+02  0.00000000000E+00 0. -1.
<scales pt_clust_5="13000.00000" pt_clust_6="13000.00000" pt_clust_7="13000.00000" pt_clust_8="13000.00000" pt_clust_9="24.33335" pt_clust_10="43.10962"></scales>
<clustering>
<clus scale="   24.333">  2  9  1 -1</clus>
<clus scale="   43.110">  2 10  1 -1</clus>
<clus scale="   88.927">  5  6 -1 -1</clus>
<clus scale="   90.851">  7  8 -1 -1</clus>
<clus scale="   93.106">  1  5  2 -1</clus>
<clus scale="   24.333">  2  5  1 -1</clus>
</clustering>
</event>
<event>
10    2  0.6640105E-006  0.1116385E+03  0.7546771E-02  0.1258789E+00
         21   -1    0    0  501  502  0.00000000000E+00  0.00000000000E+00  0.87786905856E+02  0.87786905856E+02  0.00000000000E+00 0. -1.
          1   -1    0    0  503    0 -0.00000000000E+00 -0.00000000000E+00 -0.47572254355E+03  0.47572254355E+03  0.00000000000E+00 0. -1.
         23    2    1    2    0    0 -0.72264229909E+02  0.24491773733E+02 -0.20573840520E+03  0.23894590341E+03  0.94577415261E+02 0.  0.
         23    2    1    2    0    0  0.42333001581E+02  0.55275503405E+02 -0.18381717620E+03  0.21678169633E+03  0.91422564480E+02 0.  0.
        -13    1    3    3    0    0 -0.84581589216E+02  0.40311417164E+02 -0.19466795869E+03  0.21604321264E+03  0.00000000000E+00 0. -1.
         13    1    3    3    0    0  0.12317359308E+02 -0.15819643431E+02 -0.11070446515E+02  0.22902690773E+02  0.00000000000E+00 0.  1.
        -13    1    4    4    0    0  0.11585246864E+02  0.74513441884E+02 -0.14634611963E+03  0.16463188542E+03  0.00000000000E+00 0.  1.
         13    1    4    4    0    0  0.30747754716E+02 -0.19237938479E+02 -0.37471056572E+02  0.52149810907E+02  0.00000000000E+00 0. -1.
         21    1    1    2  503  502 -0.11748040564E+02 -0.24476798481E+02 -0.21661315929E+02  0.34732444900E+02  0.00000000000E+00 0. -1.
          1    1    1    2  501    0  0.41679268892E+02 -0.55290478658E+02  0.23281259643E+02  0.73049404762E+02  0.00000000000E+00 0. -1.
<scales pt_clust_5="13000.00000" pt_clust_6="13000.00000" pt_clust_7="13000.00000" pt_clust_8="13000.00000" pt_clust_9="27.15014" pt_clust_10="77.95642"></scales>
<clustering>
<clus scale="   27.150">  1  9  2 -1</clus>
<clus scale="   77.956">  1 10  2 -1</clus>
<clus scale="   91.423">  7  8 -1 -1</clus>
<clus scale="   94.577">  5  6 -1 -1</clus>
<clus scale="  108.979">  1  7  2 -1</clus>
<clus scale="   27.150">  1  5  2 -1</clus>
</clustering>
</event>
<event>
10    2  0.6640105E-006  0.1663085E+03  0.7546771E-02  0.1197456E+00
          1   -1    0    0  503    0 -0.00000000000E+00  0.00000000000E+00  0.31022476919E+03  0.31022476919E+03  0.00000000000E+00 0. -1.
         21   -1    0    0  501  502  0.00000000000E+00 -0.00000000000E+00 -0.94473906571E+03  0.94473906571E+03  0.00000000000E+00 0.  1.
         23    2    1    2    0    0  0.49289576774E+02 -0.52948157136E+02  0.84456653306E+02  0.14416076697E+03  0.91741107044E+02 0.  0.
         23    2    1    2    0    0 -0.72498948630E+01 -0.92252360010E+02  0.10058322901E+03  0.16568799050E+03  0.93661439950E+02 0.  0.
        -11    1    4    4    0    0 -0.48608314115E+02 -0.45671688638E+02  0.35337854863E+02  0.75481357503E+02  0.00000000000E+00 0. -1.
         11    1    4    4    0    0  0.41358419252E+02 -0.46580671372E+02  0.65245374145E+02  0.90206632992E+02  0.00000000000E+00 0.  1.
        -11    1    3    3    0    0  0.19198893221E+02 -0.27030310169E+02  0.97002821588E+02  0.10251235323E+03  0.00000000000E+00 0. -1.
         11    1    3    3    0    0  0.30090683553E+02 -0.25917846967E+02 -0.12546168282E+02  0.41648413735E+02  0.00000000000E+00 0.  1.
         21    1    1    2  503  502 -0.16120856872E+02  0.21485077195E+03 -0.84068338906E+03  0.86785326921E+03  0.00000000000E+00 0.  1.
          1    1    1    2  501    0 -0.25918825039E+02 -0.69650254802E+02  0.21129210223E+02  0.77261808224E+02  0.00000000000E+00 0. -1.
<scales pt_clust_5="13000.00000" pt_clust_6="13000.00000" pt_clust_7="13000.00000" pt_clust_8="13000.00000" pt_clust_9="137.42655" pt_clust_10="74.31655"></scales>
<clustering>
<clus scale="   74.317">  2 10  1 -1</clus>
<clus scale="   91.741">  7  8 -1 -1</clus>
<clus scale="   93.661">  5  6 -1 -1</clus>
<clus scale="  117.526">  1  7  2 -1</clus>
<clus scale="  137.427">  2  9  1 -1</clus>
<clus scale="   74.317">  2  5  1 -1</clus>
</clustering>
</event>
<event>
10    2  0.6640105E-006  0.1232034E+03  0.7546771E-02  0.1246595E+00
         -2   -1    0    0    0  501 -0.00000000000E+00  0.00000000000E+00  0.26203072638E+03  0.26203072638E+03  0.00000000000E+00 0.  1.
         21   -1    0    0  501  502  0.00000000000E+00 -0.00000000000E+00 -0.22318649123E+03  0.22318649123E+03  0.00000000000E+00 0. -1.
         23    2    1    2    0    0 -0.80621946619E+01 -0.52486721693E+02  0.19926527682E+03  0.22534431468E+03  0.90849076381E+02 0.  0.
         23    2    1    2    0    0 -0.44146535218E+02  0.25822977104E+02 -0.52014996810E+02  0.13444522607E+03  0.11293456601E+03 0.  0.
        -11    1    4    4    0    0 -0.17429786106E+02 -0.19310808419E+02  0.28352167020E+02  0.38477917566E+02  0.00000000000E+00 0.  1.
         11    1    4    4    0    0 -0.26716749112E+02  0.45133785523E+02 -0.80367163830E+02  0.95967308500E+02  0.00000000000E+00 0. -1.
        -13    1    3    3    0    0 -0.38472107881E+02 -0.60593776314E+02  0.15718275805E+03  0.17279504692E+03  0.00000000000E+00 0.  1.
         13    1    3    3    0    0  0.30409913219E+02  0.81070546203E+01  0.42082518766E+02  0.52549267762E+02  0.00000000000E+00 0. -1.
         21    1    1    2  503  502  0.28593263153E+02  0.16623492799E+02 -0.37398532062E+02  0.49925598754E+02  0.00000000000E+00 0.  1.
         -2    1    1    2    0  503  0.23615466727E+02  0.10040251791E+02 -0.71007512798E+02  0.75502078107E+02  0.00000000000E+00 0.  1.
<scales pt_clust_5="13000.00000" pt_clust_6="13000.00000" pt_clust_7="13000.00000" pt_clust_8="13000.00000" pt_clust_9="20.53535" pt_clust_10="63.08908"></scales>
<clustering>
<clus scale="   20.535">  9 10 -1 -1</clus>
<clus scale="   63.089">  2  9  1 -1</clus>
<clus scale="   90.849">  7  8 -1 -1</clus>
<clus scale="  103.336">  1  7  2 -1</clus>
<clus scale="  112.935">  5  6 -1 -1</clus>
<clus scale="   63.089">  2  5  1 -1</clus>
</clustering>
</event>
<event>
10    2  0.6640105E-006  0.9604881E+02  0.7546771E-02  0.1290137E+00
         21   -1    0    0  503  502  0.00000000000E+00  0.00000000000E+00  0.46044357239E+02  0.46044357239E+02  0.00000000000E+00 0.  1.
         -1   -1    0    0    0  501 -0.00000000000E+00 -0.00000000000E+00 -0.66640969517E+03  0.66640969517E+03  0.00000000000E+00 0.  1.
         23    2    1    2    0    0 -0.12766610516E+02 -0.18317960613E+02 -0.36596318466E+03  0.37756499551E+03  0.90153975430E+02 0.  0.
         23    2    1    2    0    0 -0.57520295695E+01  0.39166934273E+02 -0.17497168573E+03  0.20186815902E+03  0.92566345052E+02 0.  0.
        -11    1    3    3    0    0 -0.50463581232E+02  0.10953486998E+01 -0.19924114429E+03  0.20553541397E+03  0.00000000000E+00 0.  1.
         11    1    3    3    0    0  0.37696970716E+02 -0.19413309313E+02 -0.16672204037E+03  0.17202958154E+03  0.00000000000E+00 0. -1.
        -11    1    4    4    0    0 -0.24070876366E+02 -0.18547598443E+02 -0.10512257356E+03  0.10942657799E+03  0.00000000000E+00 0. -1.
         11    1    4    4    0    0  0.18318846796E+02  0.57714532716E+02 -0.69849112166E+02  0.92441581039E+02  0.00000000000E+00 0.  1.
         21    1    1    2  503  501 -0.30082680177E+02  0.21128181770E+02 -0.50806179667E+02  0.62710729575E+02  0.00000000000E+00 0. -1.
         -1    1    1    2    0  502  0.48601320262E+02 -0.41977155431E+02 -0.28624287876E+02  0.70310168296E+02  0.00000000000E+00 0.  1.
<scales pt_clust_5="13000.00000" pt_clust_6="13000.00000" pt_clust_7="13000.00000" pt_clust_8="13000.00000" pt_clust_9="36.76095" pt_clust_10="45.24454"></scales>
<clustering>
<clus scale="   36.761">  1  9  2 -1</clus>
<clus scale="   45.245">  1 10  2 -1</clus>
<clus scale="   90.154">  5  6 -1 -1</clus>
<clus scale="   92.566">  7  8 -1 -1</clus>
<clus scale="   93.726">  2  5  1 -1</clus>
<clus scale="   36.761">  1  5  2 -1</clus>
</clustering>
</event>
<event>
10    2  0.6640105E-006  0.1514540E+03  0.7546771E-02  0.1198879E+00
         21   -1    0    0  501  502  0.00000000000E+00  0.00000000000E+00  0.36730974538E+03  0.36730974538E+03  0.00000000000E+00 0. -1.
          2   -1    0    0  503    0 -0.00000000000E+00 -0.00000000000E+00 -0.54146885272E+03  0.54146885272E+03  0.00000000000E+00 0. -1.
         23    2    1    2    0    0 -0.10647921544E+02 -0.11302237715E+03 -0.41067895541E+03  0.43544054828E+03  0.89798834617E+02 0.  0.
         23    2    1    2    0    0  0.58677820530E+02  0.19887914251E+03  0.37169471402E+02  0.22939491168E+03  0.90798986518E+02 0.  0.
        -11    1    4    4    0    0 -0.17063894514E+02  0.78681400444E+02  0.33705657250E+02  0.87281215633E+02  0.00000000000E+00 0.  1.
         11    1    4    4    0    0  0.75741715044E+02  0.12019774207E+03  0.34638141523E+01  0.14211369605E+03  0.00000000000E+00 0. -1.
        -13    1    3    3    0    0 -0.48046042546E+02 -0.73392449090E+02 -0.21216896798E+03  0.22958777137E+03  0.00000000000E+00 0.  1.
         13    1    3    3    0    0  0.37398121002E+02 -0.39629928062E+02 -0.19850998743E+03  0.20585277691E+03  0.00000000000E+00 0. -1.
         21    1    1    2  503  502 -0.19749918246E+02 -0.31517706470E+02  0.17352124334E+03  0.17746280450E+03  0.00000000000E+00 0. -1.
          2    1    1    2  501    0 -0.28279980741E+02 -0.54339058889E+02  0.25829133333E+02  0.66480333637E+02  0.00000000000E+00 0. -1.
<scales pt_clust_5="13000.00000" pt_clust_6="13000.00000" pt_clust_7="13000.00000" pt_clust_8="13000.00000" pt_clust_9="37.19442" pt_clust_10="70.18229"></scales>
<clustering>
<clus scale="   37.194">  1  9  2 -1</clus>
<clus scale="   70.182">  1 10  2 -1</clus>
<clus scale="   89.799">  7  8 -1 -1</clus>
<clus scale="   90.799">  5  6 -1 -1</clus>
<clus scale="  150.857">  2  7  1 -1</clus>
<clus scale="   37.194">  1  5  2 -1</clus>
</clustering>
</event>
<event>
10    2  0.6640105E-006  0.1944074E+03  0.7546771E-02  0.1155345E+00
         21   -1    0    0  503  502  0.00000000000E+00  0.00000000000E+00  0.45043781808E+03  0.45043781808E+03  0.00000000000E+00 0. -1.
          2   -1    0    0  502    0 -0.00000000000E+00 -0.00000000000E+00 -0.19481900250E+03  0.19481900250E+03  0.00000000000E+00 0. -1.
         23    2    1    2    0    0 -0.69171588488E+02 -0.14585626637E+03 -0.17788945326E+02  0.18914036623E+03  0.96947782176E+02 0.  0.
         23    2    1    2    0    0  0.14742799123E+03  0.12532345876E+03  0.10538309032E+03  0.23780481841E+03  0.89468173217E+02 0.  0.
        -11    1    3    3    0    0 -0.35564312706E+02  0.24275671678E+01  0.25662890867E+01  0.35739323725E+02  0.00000000000E+00 0.  1.
         11    1    3    3    0    0 -0.33607275782E+02 -0.14828383354E+03 -0.20355234413E+02  0.15340104250E+03  0.00000000000E+00 0. -1.
        -13    1    4    4    0    0  0.72013201846E+02  0.35239906105E+02  0.87994642458E+02  0.11904120851E+03  0.00000000000E+00 0. -1.
         13    1    4    4    0    0  0.75414789381E+02  0.90083552655E+02  0.17388447863E+02  0.11876360990E+03  0.00000000000E+00 0.  1.
         21    1    1    2  503  501 -0.20309347163E+02  0.21762002092E+02  0.15638706689E+03  0.15919475182E+03  0.00000000000E+00 0.  1.
          2    1    1    2  501    0 -0.57947055576E+02 -0.12291944839E+01  0.11637603691E+02  0.59116884125E+02  0.00000000000E+00 0. -1.
<scales pt_clust_5="13000.00000" pt_clust_6="13000.00000" pt_clust_7="13000.00000" pt_clust_8="13000.00000" pt_clust_9="29.76666" pt_clust_10="60.41848"></scales>
<clustering>
<clus scale="   29.767">  1  9  2 -1</clus>
<clus scale="   60.418">  1 10  2 -1</clus>
<clus scale="   89.468">  7  8 -1 -1</clus>
<clus scale="   96.948">  5  6 -1 -1</clus>
<clus scale="  190.788">  1  7  2 -1</clus>
<clus scale="   29.767">  1  5  2 -1</clus>
</clustering>
</event>
<event>
10    2  0.6640105E-006  0.3862740E+03  0.7546771E-02  0.1079710E+00
          2   -1    0    0  502    0 -0.00000000000E+00  0.00000000000E+00  0.86318640617E+03  0.86318640617E+03  0.00000000000E+00 0. -1.
         21   -1    0    0  503  502  0.00000000000E+00 -0.00000000000E+00 -0.32931252557E+03  0.32931252557E+03  0.00000000000E+00 0.  1.
         23    2    1    2    0    0 -0.75976161071E+00 -0.13329890830E+03  0.20686457293E+03  0.26304406676E+03  0.92898080346E+02 0.  0.
         23    2    1    2    0    0  0.20295006097E+03  0.35614399119E+03 -0.37271984549E+01  0.41995975329E+03  0.91241616956E+02 0.  0.
        -11    1    3    3    0    0  0.18910926863E+01 -0.95361577346E+02  0.63169867824E+02  0.11440209293E+03  0.00000000000E+00 0.  1.
         11    1    3    3    0    0 -0.26508542970E+01 -0.37937330950E+02  0.14369470511E+03  0.14864197383E+03  0.00000000000E+00 0. -1.
        -13    1    4    4    0    0  0.15476613107E+02  0.31101746188E+02 -0.27013167297E+02  0.44006310646E+02  0.00000000000E+00 0. -1.
         13    1    4    4    0    0  0.18747344787E+03  0.32504224500E+03  0.23285968842E+02  0.37595344264E+03  0.00000000000E+00 0.  1.
         21    1    1    2  503  501  0.20398044486E+02 -0.67336994932E+01 -0.27951271808E+02  0.35251900990E+02  0.00000000000E+00 0.  1.
          2    1    1    2  501    0 -0.22258834385E+03 -0.21611138340E+03  0.35868777793E+03  0.47424321069E+03  0.00000000000E+00 0. -1.
<scales pt_clust_5="13000.00000" pt_clust_6="13000.00000" pt_clust_7="13000.00000" pt_clust_8="13000.00000" pt_clust_9="21.48076" pt_clust_10="375.34344"></scales>
<clustering>
<clus scale="   21.481">  2  9  1 -1</clus>
<clus scale="   91.242">  7  8 -1 -1</clus>
<clus scale="   92.898">  5  6 -1 -1</clus>
<clus scale="  163.002">  1  5  2 -1</clus>
<clus scale="  375.343">  2 10  1 -1</clus>
<clus scale="   21.481">  2  5  1 -1</clus>
</clustering>
</event>
<event>
10    2  0.6640105E-006  0.9482003E+02  0.7546771E-02  0.1291611E+00
         21   -1    0    0  503  502  0.00000000000E+00  0.00000000000E+00  0.26537621907E+03  0.26537621907E+03  0.00000000000E+00 0.  1.
         -4   -1    0    0    0  501 -0.00000000000E+00 -0.00000000000E+00 -0.84736685419E+02  0.84736685419E+02  0.00000000000E+00 0.  1.
         23    2    1    2    0    0  0.89113815029E+01  0.21078668843E+02  0.27135576969E+02  0.97580308736E+02  0.90894741955E+02 0.  0.
         23    2    1    2    0    0 -0.50037415999E+02 -0.62758769840E+01  0.13275825314E+03  0.16864002964E+03  0.90948206078E+02 0.  0.
        -11    1    3    3    0    0 -0.18384647394E+02  0.38264155512E+02 -0.14547080211E+02  0.44874919494E+02  0.00000000000E+00 0.  1.
         11    1    3    3    0    0  0.27296028897E+02 -0.17185486669E+02  0.41682657180E+02  0.52705389242E+02  0.00000000000E+00 0. -1.
        -13    1    4    4    0    0 -0.28312624394E+01 -0.43669059117E+02  0.57094210243E+02  0.71935746430E+02  0.00000000000E+00 0. -1.
         13    1    4    4    0    0 -0.47206153559E+02  0.37393182133E+02  0.75664042902E+02  0.96704283215E+02  0.00000000000E+00 0.  1.
         21    1    1    2  503  501  0.22863993506E+02 -0.41155799403E+01  0.45645078690E+02  0.51216924995E+02  0.00000000000E+00 0. -1.
         -4    1    1    2    0  502  0.18262040990E+02 -0.10687211919E+02 -0.24899375148E+02  0.32675641118E+02  0.00000000000E+00 0.  1.
<scales pt_clust_5="13000.00000" pt_clust_6="13000.00000" pt_clust_7="13000.00000" pt_clust_8="13000.00000" pt_clust_9="26.94477" pt_clust_10="21.15937"></scales>
<clustering>
<clus scale="   21.159">  1 10  2 -1</clus>
<clus scale="   26.945">  1  9  2 -1</clus>
<clus scale="   90.895">  5  6 -1 -1</clus>
<clus scale="   90.948">  7  8 -1 -1</clus>
<clus scale="   94.769">  2  5  1 -1</clus>
<clus scale="   21.159">  1  5  2 -1</clus>
</clustering>
</event>
<event>
10    2  0.6640105E-006  0.1000457E+03  0.7546771E-02  0.1299852E+00
         21   -1    0    0  501  502  0.00000000000E+00  0.00000000000E+00  0.62548874771E+03  0.62548874771E+03  0.00000000000E+00 0. -1.
          3   -1    0    0  503    0 -0.00000000000E+00 -0.00000000000E+00 -0.19636184669E+03  0.19636184669E+03  0.00000000000E+00 0. -1.
         23    2    1    2    0    0  0.57778044074E+01  0.44920830981E+02 -0.16149100636E+03  0.19128114870E+03  0.91966671322E+02 0.  0.
         23    2    1    2    0    0 -0.31140327778E+02  0.53059702863E+00  0.73896144103E+02  0.98351833030E+02  0.56942439355E+02 0.  0.
        -11    1    3    3    0    0  0.43409701651E+02  0.30952871000E+02 -0.51223169982E+02  0.73934400407E+02  0.00000000000E+00 0.  1.
         11    1    3    3    0    0 -0.37631897243E+02  0.13967959981E+02 -0.11026783638E+03  0.11734674829E+03  0.00000000000E+00 0. -1.
        -11    1    4    4    0    0 -0.28634636987E+02 -0.22055252826E+02  0.23616589890E+02  0.43175455187E+02  0.00000000000E+00 0. -1.
         11    1    4    4    0    0 -0.25056907909E+01  0.22585849854E+02  0.50279554214E+02  0.55176377843E+02  0.00000000000E+00 0.  1.
         21    1    1    2  503  502  0.24367624495E+01  0.27073752126E+02  0.33955206707E+02  0.43495769081E+02  0.00000000000E+00 0.  1.
          3    1    1    2  501    0  0.22925760921E+02 -0.72525180135E+02  0.48276655656E+03  0.48872184359E+03  0.00000000000E+00 0. -1.
<scales pt_clust_5="13000.00000" pt_clust_6="13000.00000" pt_clust_7="13000.00000" pt_clust_8="13000.00000" pt_clust_9="27.18319" pt_clust_10="55.97695"></scales>
<clustering>
<clus scale="   27.183">  1  9  2 -1</clus>
<clus scale="   55.977">  1 10  2 -1</clus>
<clus scale="   56.942">  7  8 -1 -1</clus>
<clus scale="   69.237">  1  7  2 -1</clus>
<clus scale="   91.967">  5  6 -1 -1</clus>
<clus scale="   27.183">  1  5  2 -1</clus>
</clustering>
</event>
<event>
10    2  0.6640105E-006  0.9379677E+02  0.7546771E-02  0.1298119E+00
         21   -1    0    0  501  502  0.00000000000E+00  0.00000000000E+00  0.33526300245E+03  0.33526300245E+03  0.00000000000E+00 0. -1.
          2   -1    0    0  503    0 -0.00000000000E+00 -0.00000000000E+00 -0.98100752930E+02  0.98100752930E+02  0.00000000000E+00 0. -1.
         23    2    1    2    0    0 -0.15475789512E+02  0.23409266373E+02 -0.32484998718E+02  0.10017146657E+03  0.90507202810E+02 0.  0.
         23    2    1    2    0    0  0.21192091059E+02 -0.56757199384E+01  0.38324400693E+02  0.94177131005E+02  0.83182052125E+02 0.  0.
        -13    1    3    3    0    0 -0.26121256988E+02 -0.28958379100E+02 -0.29407404479E+01  0.39109535168E+02  0.00000000000E+00 0.  1.
         13    1    3    3    0    0  0.10645467475E+02  0.52367645473E+02 -0.29544258270E+02  0.61061931405E+02  0.00000000000E+00 0. -1.
        -13    1    4    4    0    0 -0.25897964163E+02  0.19622136199E+02  0.16458359535E+02  0.36422662937E+02  0.00000000000E+00 0. -1.
         13    1    4    4    0    0  0.47090055222E+02 -0.25297856137E+02  0.21866041157E+02  0.57754468068E+02  0.00000000000E+00 0.  1.
         21    1    1    2  503  502  0.79556649566E+01  0.18751989345E+02  0.99061353676E+02  0.10113397798E+03  0.00000000000E+00 0. -1.
          2    1    1    2  501    0 -0.13671966504E+02 -0.36485535780E+02  0.13226149387E+03  0.13788117983E+03  0.00000000000E+00 0. -1.
<scales pt_clust_5="13000.00000" pt_clust_6="13000.00000" pt_clust_7="13000.00000" pt_clust_8="13000.00000" pt_clust_9="20.36982" pt_clust_10="27.27850"></scales>
<clustering>
<clus scale="   20.370">  1  9  2 -1</clus>
<clus scale="   27.279">  1 10  2 -1</clus>
<clus scale="   83.182">  7  8 -1 -1</clus>
<clus scale="   86.750">  1  7  2 -1</clus>
<clus scale="   90.507">  5  6 -1 -1</clus>
<clus scale="   20.370">  1  5  2 -1</clus>
</clustering>
</event>
<event>
10    2  0.6640105E-006  0.4072720E+03  0.7546771E-02  0.1080748E+00
          2   -1    0    0  503    0 -0.00000000000E+00  0.00000000000E+00  0.18460748294E+04  0.18460748294E+04  0.00000000000E+00 0. -1.
         21   -1    0    0  501  502  0.00000000000E+00 -0.00000000000E+00 -0.24953721857E+03  0.24953721857E+03  0.00000000000E+00 0. -1.
         23    2    1    2    0    0  0.84542403937E+02 -0.79799563466E+02  0.13831666013E+03  0.20146017616E+03  0.89102837857E+02 0.  0.
         23    2    1    2    0    0 -0.14317552319E+03 -0.35122896002E+03  0.52054693179E+03  0.65027143342E+03  0.89570174289E+02 0.  0.
        -11    1    4    4    0    0 -0.12310236069E+02 -0.27106200688E+02  0.95083077828E+02  0.99634731480E+02  0.00000000000E+00 0.  1.
         11    1    4    4    0    0 -0.13086528712E+03 -0.32412275933E+03  0.42546385396E+03  0.55063670193E+03  0.00000000000E+00 0. -1.
        -11    1    3    3    0    0  0.45329953915E+02 -0.72172642481E+02  0.37680425210E+02  0.93185350182E+02  0.00000000000E+00 0. -1.
         11    1    3    3    0    0  0.39212450022E+02 -0.76269209855E+01  0.10063623492E+03  0.10827482598E+03  0.00000000000E+00 0.  1.
         21    1    1    2  503  502 -0.68510915948E+02  0.22077772481E+02 -0.98901016962E+02  0.12232164485E+03  0.00000000000E+00 0. -1.
          2    1    1    2  501    0  0.12714403520E+03  0.40895075100E+03  0.10365750359E+04  0.11215587936E+04  0.00000000000E+00 0. -1.
<scales pt_clust_5="13000.00000" pt_clust_6="13000.00000" pt_clust_7="13000.00000" pt_clust_8="13000.00000" pt_clust_9="71.98037" pt_clust_10="397.30067"></scales>
<clustering>
<clus scale="   71.980">  2  9  1 -1</clus>
<clus scale="   89.103">  7  8 -1 -1</clus>
<clus scale="   89.570">  5  6 -1 -1</clus>
<clus scale="  135.237">  1  7  2 -1</clus>
<clus scale="  397.301">  2 10  1 -1</clus>
<clus scale="   71.980">  2  5  1 -1</clus>
</clustering>
</event>
<event>
10    2  0.6640105E-006  0.1169089E+03  0.7546771E-02  0.1250146E+00
         21   -1    0    0  503  502  0.00000000000E+00  0.00000000000E+00  0.30425032021E+03  0.30425032021E+03  0.00000000000E+00 0.  1.
         -1   -1    0    0    0  501 -0.00000000000E+00 -0.00000000000E+00 -0.22713165921E+03  0.22713165921E+03  0.00000000000E+00 0.  1.
         23    2    1    2    0    0  0.71530627213E+02 -0.12873002281E+02 -0.17862174310E+03  0.21102912591E+03  0.85704259275E+02 0.  0.
         23    2    1    2    0    0 -0.72563377987E+02  0.30717841228E+02  0.13379443634E+03  0.18009918192E+03  0.91245463112E+02 0.  0.
        -13    1    4    4    0    0  0.10480312918E+02  0.20419088660E+02  0.73390679950E+02  0.76895825921E+02  0.00000000000E+00 0. -1.
         13    1    4    4    0    0 -0.83043690906E+02  0.10298752568E+02  0.60403756392E+02  0.10320335600E+03  0.00000000000E+00 0.  1.
        -13    1    3    3    0    0  0.75964133065E+02  0.12611977703E+02 -0.16432697057E+03  0.18147441900E+03  0.00000000000E+00 0.  1.
         13    1    3    3    0    0 -0.44335058518E+01 -0.25484979985E+02 -0.14294772525E+02  0.29554706909E+02  0.00000000000E+00 0. -1.
         21    1    1    2  503  501 -0.28335202594E+02 -0.13268545562E+02  0.95410252346E+02  0.10040943312E+03  0.00000000000E+00 0.  1.
         -1    1    1    2    0  502  0.29367953368E+02 -0.45762933838E+01  0.26535715414E+02  0.39844238463E+02  0.00000000000E+00 0.  1.
<scales pt_clust_5="13000.00000" pt_clust_6="13000.00000" pt_clust_7="13000.00000" pt_clust_8="13000.00000" pt_clust_9="23.17123" pt_clust_10="29.72237"></scales>
<clustering>
<clus scale="   29.722">  1 10  2 -1</clus>
<clus scale="   23.171">  1  9  2 -1</clus>
<clus scale="   85.704">  7  8 -1 -1</clus>
<clus scale="   91.245">  5  6 -1 -1</clus>
<clus scale="  112.637">  2  7  1 -1</clus>
<clus scale="   29.722">  1  5  2 -1</clus>
</clustering>
</event>
<event>
10    2  0.6640105E-006  0.2033378E+03  0.7546771E-02  0.1146984E+00
         -1   -1    0    0    0  501 -0.00000000000E+00  0.00000000000E+00  0.68295268846E+03  0.68295268846E+03  0.00000000000E+00 0.  1.
         21   -1    0    0  501  502  0.00000000000E+00 -0.00000000000E+00 -0.98397075079E+02  0.98397075079E+02  0.00000000000E+00 0.  1.
         23    2    1    2    0    0 -0.13078982529E+03 -0.17718302424E+03  0.40523593940E+03  0.47025832698E+03  0.91798284438E+02 0.  0.
         23    2    1    2    0    0  0.88581174726E+02  0.99476574120E+02  0.11944440635E+03  0.20093514166E+03  0.91464482905E+02 0.  0.
        -11    1    4    4    0    0  0.28230839288E+02  0.83677369956E+02  0.10443986944E+03  0.13677195933E+03  0.00000000000E+00 0. -1.
         11    1    4    4    0    0  0.60350335437E+02  0.15799204164E+02  0.15004536907E+02  0.64163182335E+02  0.00000000000E+00 0.  1.
        -13    1    3    3    0    0 -0.13179366862E+03 -0.13204229296E+03  0.36439574998E+03  0.40937635596E+03  0.00000000000E+00 0.  1.
         13    1    3    3    0    0  0.10038433231E+01 -0.45140731285E+02  0.40840189422E+02  0.60881971013E+02  0.00000000000E+00 0. -1.
         21    1    1    2  503  502  0.34605964954E+01  0.33471413848E+02  0.21146294882E+02  0.39742635297E+02  0.00000000000E+00 0.  1.
         -1    1    1    2    0  503  0.38748054073E+02  0.44235036274E+02  0.38728972749E+02  0.70413659604E+02  0.00000000000E+00 0.  1.
<scales pt_clust_5="13000.00000" pt_clust_6="13000.00000" pt_clust_7="13000.00000" pt_clust_8="13000.00000" pt_clust_9="20.43115" pt_clust_10="92.46276"></scales>
<clustering>
<clus scale="   20.431">  9 10 -1 -1</clus>
<clus scale="   91.464">  5  6 -1 -1</clus>
<clus scale="   91.798">  7  8 -1 -1</clus>
<clus scale="   92.463">  2  9  1 -1</clus>
<clus scale="  203.187">  2  5  1 -1</clus>
<clus scale="   92.463">  2  5  1 -1</clus>
</clustering>
</event>
<event>
10    2  0.6640105E-006  0.1213213E+03  0.7546771E-02  0.1257664E+00
          2   -1    0    0  503    0 -0.00000000000E+00  0.00000000000E+00  0.11036348764E+03  0.11036348764E+03  0.00000000000E+00 0. -1.
         21   -1    0    0  501  502  0.00000000000E+00 -0.00000000000E+00 -0.41307956279E+03  0.41307956279E+03  0.00000000000E+00 0.  1.
         23    2    1    2    0    0 -0.14274912965E+02 -0.26992990857E+02  0.13750855448E+02  0.92688742611E+02  0.86427555129E+02 0.  0.
         23    2    1    2    0    0 -0.18653719670E+02 -0.49198329751E+02 -0.64267562753E+02  0.14680018421E+03  0.12104353578E+03 0.  0.
        -11    1    3    3    0    0  0.36140846533E+02 -0.46633323880E+01  0.35424809446E+01  0.36612246972E+02  0.00000000000E+00 0.  1.
         11    1    3    3    0    0 -0.50415759498E+02 -0.22329658469E+02  0.10208374503E+02  0.56076495639E+02  0.00000000000E+00 0. -1.
        -13    1    4    4    0    0 -0.22948573736E+02 -0.76373067281E+02 -0.31875588301E+01  0.79810043064E+02  0.00000000000E+00 0. -1.
         13    1    4    4    0    0  0.42948540662E+01  0.27174737530E+02 -0.61080003923E+02  0.66990141144E+02  0.00000000000E+00 0.  1.
         21    1    1    2  503  502 -0.29410148192E+02  0.53813512645E+01 -0.10452852504E+03  0.10872041347E+03  0.00000000000E+00 0.  1.
          2    1    1    2  501    0  0.62338780827E+02  0.70809969344E+02 -0.14767084281E+03  0.17523371014E+03  0.00000000000E+00 0. -1.
<scales pt_clust_5="13000.00000" pt_clust_6="13000.00000" pt_clust_7="13000.00000" pt_clust_8="13000.00000" pt_clust_9="29.89842" pt_clust_10="87.28112"></scales>
<clustering>
<clus scale="   29.898">  2  9  1 -1</clus>
<clus scale="   86.428">  5  6 -1 -1</clus>
<clus scale="   87.281">  2 10  1 -1</clus>
<clus scale="   86.816">  1  5  2 -1</clus>
<clus scale="  121.044">  7  8 -1 -1</clus>
<clus scale="   29.898">  2  5  1 -1</clus>
</clustering>
</event>
<event>
10    2  0.6952383E-006  0.3250554E+03  0.7546771E-02  0.1073357E+00
         21   -1    0    0  501  502  0.00000000000E+00  0.00000000000E+00  0.11248392614E+03  0.11248392614E+03  0.00000000000E+00 0. -1.
          1   -1    0    0  503    0 -0.00000000000E+00 -0.00000000000E+00 -0.15007316015E+04  0.15007316015E+04  0.00000000000E+00 0. -1.
         23    2    1    2    0    0  0.73925082474E+01 -0.35706680140E+03 -0.86697836858E+03  0.94218894573E+03  0.92288504329E+02 0.  0.
         23    2    1    2    0    0  0.14841675743E+02  0.26497791689E+03 -0.47147710740E+03  0.54879531305E+03  0.91935091470E+02 0.  0.
        -11    1    4    4    0    0  0.50039597461E+02  0.10075034634E+03 -0.20389182680E+03  0.23286577816E+03  0.00000000000E+00 0. -1.
         11    1    4    4    0    0 -0.35197921718E+02  0.16422757054E+03 -0.26758528060E+03  0.31592953489E+03  0.00000000000E+00 0.  1.
        -11    1    3    3    0    0  0.97726882764E+01 -0.40869709883E+02 -0.45408699771E+02  0.61869125070E+02  0.00000000000E+00 0.  1.
         11    1    3    3    0    0 -0.23801800289E+01 -0.31619709152E+03 -0.82156966881E+03  0.88031982066E+03  0.00000000000E+00 0. -1.
         21    1    1    2  503  502  0.14494638596E+01  0.22010223464E+02  0.12649764928E+02  0.25427690323E+02  0.00000000000E+00 0. -1.
          1    1    1    2  501    0 -0.23683647850E+02  0.70078661049E+02 -0.62441964281E+02  0.96803578514E+02  0.00000000000E+00 0. -1.
<scales pt_clust_5="13000.00000" pt_clust_6="13000.00000" pt_clust_7="13000.00000" pt_clust_8="13000.00000" pt_clust_9="22.05790" pt_clust_10="77.73639"></scales>
<clustering>
<clus scale="   22.058">  1  9  2 -1</clus>
<clus scale="   77.736">  1 10  2 -1</clus>
<clus scale="   91.935">  5  6 -1 -1</clus>
<clus scale="   92.289">  7  8 -1 -1</clus>
<clus scale="  324.955">  1  5  2 -1</clus>
<clus scale="   22.058">  1  5  2 -1</clus>
</clustering>
</event>
<event>
10    2  0.6640105E-006  0.1334019E+03  0.7546771E-02  0.1229137E+00
         21   -1    0    0  503  502  0.00000000000E+00  0.00000000000E+00  0.16651638577E+03  0.16651638577E+03  0.00000000000E+00 0.  1.
         -1   -1    0    0    0  501 -0.00000000000E+00 -0.00000000000E+00 -0.27296051247E+03  0.27296051247E+03  0.00000000000E+00 0.  1.
         23    2    1    2    0    0 -0.73004794128E+02 -0.93384143766E+01 -0.73672886182E+02  0.14049778757E+03  0.94313457176E+02 0.  0.
         23    2    1    2    0    0 -0.73998201723E+02 -0.20209027579E+02  0.16997384406E+02  0.12043617013E+03  0.91278811045E+02 0.  0.
        -11    1    3    3    0    0 -0.63405894472E+02  0.35870482459E+02 -0.51655928336E+02  0.89304724947E+02  0.00000000000E+00 0.  1.
         11    1    3    3    0    0 -0.95988996564E+01 -0.45208896836E+02 -0.22016957846E+02  0.51193062621E+02  0.00000000000E+00 0. -1.
        -13    1    4    4    0    0 -0.50982485949E+02 -0.47417549960E+02 -0.16471219823E+02  0.71546760934E+02  0.00000000000E+00 0.  1.
         13    1    4    4    0    0 -0.23015715774E+02  0.27208522381E+02  0.33468604229E+02  0.48889409199E+02  0.00000000000E+00 0. -1.
         21    1    1    2  503  501  0.12319678623E+02  0.34186001152E+02 -0.15397426229E+02  0.39465654570E+02  0.00000000000E+00 0.  1.
         -1    1    1    2    0  502  0.13468331723E+03 -0.46385591968E+01 -0.34371198699E+02  0.13907728596E+03  0.00000000000E+00 0.  1.
<scales pt_clust_5="13000.00000" pt_clust_6="13000.00000" pt_clust_7="13000.00000" pt_clust_8="13000.00000" pt_clust_9="36.33810" pt_clust_10="97.28439"></scales>
<clustering>
<clus scale="   36.338">  2  9  1 -1</clus>
<clus scale="   91.279">  7  8 -1 -1</clus>
<clus scale="   94.313">  5  6 -1 -1</clus>
<clus scale="  116.190">  2  5  1 -1</clus>
<clus scale="   97.284">  1 10  2 -1</clus>
<clus scale="   97.284">  1  5  2 -1</clus>
</clustering>
</event>
<event>
10    2  0.6640105E-006  0.2234516E+03  0.7546771E-02  0.1157837E+00
         21   -1    0    0  503  502  0.00000000000E+00  0.00000000000E+00  0.11378099377E+04  0.11378099377E+04  0.00000000000E+00 0. -1.
          2   -1    0    0  502    0 -0.00000000000E+00 -0.00000000000E+00 -0.52309172698E+03  0.52309172698E+03  0.00000000000E+00 0. -1.
         23    2    1    2    0    0 -0.69830902938E+02 -0.15387281411E+02 -0.31890654821E+02  0.12273595761E+03  0.94519722766E+02 0.  0.
         23    2    1    2    0    0  0.20629644173E+03 -0.13481491676E+03 -0.39572699256E+03  0.47512331668E+03  0.91700762031E+02 0.  0.
        -13    1    3    3    0    0 -0.21873163815E+02 -0.46367998507E+02 -0.40055995184E+02  0.65060812560E+02  0.00000000000E+00 0.  1.
         13    1    3    3    0    0 -0.47957739122E+02  0.30980717097E+02  0.81653403624E+01  0.57675145052E+02  0.00000000000E+00 0. -1.
        -13    1    4    4    0    0  0.75942572282E+02 -0.43731145542E+01 -0.14670668077E+03  0.16525510158E+03  0.00000000000E+00 0.  1.
         13    1    4    4    0    0  0.13035386945E+03 -0.13044180221E+03 -0.24902031180E+03  0.30986821510E+03  0.00000000000E+00 0. -1.
         21    1    1    2  503  501 -0.13582567350E+02  0.44343069618E+02  0.25293317606E+03  0.25714973364E+03  0.00000000000E+00 0.  1.
          2    1    1    2  501    0 -0.12288297144E+03  0.10585912855E+03  0.78940268210E+03  0.80589265679E+03  0.00000000000E+00 0. -1.
<scales pt_clust_5="13000.00000" pt_clust_6="13000.00000" pt_clust_7="13000.00000" pt_clust_8="13000.00000" pt_clust_9="26.25921" pt_clust_10="209.60232"></scales>
<clustering>
<clus scale="   26.259">  9 10 -1 -1</clus>
<clus scale="   91.701">  7  8 -1 -1</clus>
<clus scale="   94.520">  5  6 -1 -1</clus>
<clus scale="  118.520">  2  5  1 -1</clus>
<clus scale="  209.602">  1  9  2 -1</clus>
<clus scale="  209.602">  1  5  2 -1</clus>
</clustering>
</event>
<event>
10    2  0.6640105E-006  0.1749504E+03  0.7546771E-02  0.1173233E+00
          1   -1    0    0  502    0 -0.00000000000E+00  0.00000000000E+00  0.44623435899E+03  0.44623435899E+03  0.00000000000E+00 0. -1.
         21   -1    0    0  503  502  0.00000000000E+00 -0.00000000000E+00 -0.16814429152E+03  0.16814429152E+03  0.00000000000E+00 0. -1.
         23    2    1    2    0    0  0.10711750433E+03 -0.73270259685E+02  0.96504396408E+02  0.18638709860E+03  0.92651828435E+02 0.  0.
         23    2    1    2    0    0 -0.40406089708E+02  0.19432815285E+03  0.14792399411E+03  0.26313384871E+03  0.89229094067E+02 0.  0.
        -11    1    3    3    0    0  0.10509693814E+03 -0.24392831900E+02  0.50083884401E+02  0.11894861130E+03  0.00000000000E+00 0. -1.
         11    1    3    3    0    0  0.20205661905E+01 -0.48877427785E+02  0.46420512007E+02  0.67438487302E+02  0.00000000000E+00 0.  1.
        -13    1    4    4    0    0 -0.43112626923E+02  0.31278117134E+02  0.49175367490E+02  0.72493006417E+02  0.00000000000E+00 0.  1.
         13    1    4    4    0    0  0.27065372151E+01  0.16305003572E+03  0.98748626622E+02  0.19064084229E+03  0.00000000000E+00 0. -1.
         21    1    1    2  503  501  0.57421564189E+01 -0.22782276930E+02 -0.20599714242E+02  0.31246643489E+02  0.00000000000E+00 0. -1.
          1    1    1    2  501    0 -0.72453571039E+02 -0.98275616236E+02  0.54261391190E+02  0.13361105971E+03  0.00000000000E+00 0. -1.
<scales pt_clust_5="13000.00000" pt_clust_6="13000.00000" pt_clust_7="13000.00000" pt_clust_8="13000.00000" pt_clust_9="23.49478" pt_clust_10="126.36309"></scales>
<clustering>
<clus scale="   23.495">  2  9  1 -1</clus>
<clus scale="   89.229">  7  8 -1 -1</clus>
<clus scale="   92.652">  5  6 -1 -1</clus>
<clus scale="  126.363">  2 10  1 -1</clus>
<clus scale="  173.162">  2  7  1 -1</clus>
<clus scale="   23.495">  2  5  1 -1</clus>
</clustering>
</event>
<event>
10    2  0.6640105E-006  0.1172533E+03  0.7546771E-02  0.1248389E+00
          2   -1    0    0  502    0 -0.00000000000E+00  0.00000000000E+00  0.11964355311E+04  0.11964355311E+04  0.00000000000E+00 0. -1.
         21   -1    0    0  503  502  0.00000000000E+00 -0.00000000000E+00 -0.10508383645E+03  0.10508383645E+03  0.00000000000E+00 0. -1.
         23    2    1    2    0    0 -0.24807994521E+02  0.95280671529E+02  0.71625695058E+03  0.72855759307E+03  0.89879386998E+02 0.  0.
         23    2    1    2    0    0  0.21292830582E+02 -0.30124438864E+02  0.26235021391E+03  0.28043268270E+03  0.91945572714E+02 0.  0.
        -11    1    3    3    0    0  0.15791135259E+02  0.91144954479E+02  0.49639737807E+03  0.50494268945E+03  0.00000000000E+00 0.  1.
         11    1    3    3    0    0 -0.40599129780E+02  0.41357170503E+01  0.21985957252E+03  0.22361490362E+03  0.00000000000E+00 0. -1.
        -13    1    4    4    0    0 -0.28236067009E+02 -0.37603723307E+02  0.99491861398E+02  0.11004519967E+03  0.00000000000E+00 0. -1.
         13    1    4    4    0    0  0.49528897591E+02  0.74792844433E+01  0.16285835251E+03  0.17038748303E+03  0.00000000000E+00 0.  1.
         21    1    1    2  503  501 -0.19104892042E+02  0.20417613136E+02 -0.77668672619E+02  0.82548764573E+02  0.00000000000E+00 0. -1.
          2    1    1    2  501    0  0.22620055981E+02 -0.85573845802E+02  0.19041320282E+03  0.20998032724E+03  0.00000000000E+00 0. -1.
<scales pt_clust_5="13000.00000" pt_clust_6="13000.00000" pt_clust_7="13000.00000" pt_clust_8="13000.00000" pt_clust_9="27.96204" pt_clust_10="79.03844"></scales>
<clustering>
<clus scale="   27.962">  2  9  1 -1</clus>
<clus scale="   79.038">  2 10  1 -1</clus>
<clus scale="   89.879">  5  6 -1 -1</clus>
<clus scale="   91.946">  7  8 -1 -1</clus>
<clus scale="  115.640">  1  5  2 -1</clus>
<clus scale="   27.962">  2  5  1 -1</clus>
</clustering>
</event>
<event>
10    2  0.6640105E-006  0.1437248E+03  0.7546771E-02  0.1208489E+00
         21   -1    0    0  501  502  0.00000000000E+00  0.00000000000E+00  0.23192151503E+03  0.23192151503E+03  0.00000000000E+00 0.  1.
          1   -1    0    0  503    0 -0.00000000000E+00 -0.00000000000E+00 -0.10071354768E+04  0.10071354768E+04  0.00000000000E+00 0. -1.
         23    2    1    2    0    0 -0.12785330875E+03 -0.74927768720E+01 -0.81387631647E+03  0.82891738390E+03  0.91141431585E+02 0.  0.
         23    2    1    2    0    0  0.61038181150E+02  0.31330015889E+02 -0.13921763219E+03  0.18019829200E+03  0.91556790428E+02 0.  0.
        -11    1    4    4    0    0  0.16233664575E+02 -0.15335242085E+02 -0.10434017511E+03  0.10670320359E+03  0.00000000000E+00 0. -1.
         11    1    4    4    0    0  0.44804516574E+02  0.46665257974E+02 -0.34877457077E+02  0.73495088403E+02  0.00000000000E+00 0.  1.
        -13    1    3    3    0    0  0.93035459545E-01 -0.24440868688E+02 -0.75840616980E+02  0.79681640933E+02  0.00000000000E+00 0.  1.
         13    1    3    3    0    0 -0.12794634421E+03  0.16948091816E+02 -0.73803569949E+03  0.74923574297E+03  0.00000000000E+00 0. -1.
         21    1    1    2  503  502  0.34138198045E+02 -0.50972352050E+02  0.17713757445E+03  0.18746017582E+03  0.00000000000E+00 0.  1.
          1    1    1    2  501    0  0.32676929560E+02  0.27135113033E+02  0.74241248220E+00  0.42481140063E+02  0.00000000000E+00 0. -1.
<scales pt_clust_5="13000.00000" pt_clust_6="13000.00000" pt_clust_7="13000.00000" pt_clust_8="13000.00000" pt_clust_9="68.22898" pt_clust_10="42.47465"></scales>
<clustering>
<clus scale="   42.475">  1 10  2 -1</clus>
<clus scale="   68.229">  1  9  2 -1</clus>
<clus scale="   91.141">  7  8 -1 -1</clus>
<clus scale="   91.557">  5  6 -1 -1</clus>
<clus scale="  143.461">  2  7  1 -1</clus>
<clus scale="   42.475">  1  5  2 -1</clus>
</clustering>
</event>
<event>
10    2  0.6640105E-006  0.3654869E+03  0.7546771E-02  0.1056612E+00
          2   -1    0    0  503    0 -0.00000000000E+00  0.00000000000E+00  0.20716191860E+04  0.20716191860E+04  0.00000000000E+00 0. -1.
         21   -1    0    0  501  502  0.00000000000E+00 -0.00000000000E+00 -0.26166243271E+03  0.26166243271E+03  0.00000000000E+00 0. -1.
         23    2    1    2    0    0  0.67383233751E+02  0.34671320017E+03  0.15361766026E+04  0.15789641182E+04  0.92404484831E+02 0.  0.
         23    2    1    2    0    0 -0.10870024513E+03 -0.34119249287E+03  0.14610963378E+03  0.39594246603E+03  0.84819519228E+02 0.  0.
        -11    1    4    4    0    0 -0.10036228651E+02 -0.12492187357E+03  0.81891393693E+02  0.14970771771E+03  0.00000000000E+00 0.  1.
         11    1    4    4    0    0 -0.98664016476E+02 -0.21627061931E+03  0.64218240089E+02  0.24623474832E+03  0.00000000000E+00 0. -1.
        -13    1    3    3    0    0  0.36953423698E+02  0.85106102995E+02  0.26450732762E+03  0.28030827789E+03  0.00000000000E+00 0.  1.
         13    1    3    3    0    0  0.30429810053E+02  0.26160709717E+03  0.12716692750E+04  0.12986558403E+04  0.00000000000E+00 0. -1.
         21    1    1    2  503  502  0.74748117782E+02 -0.15781032979E+03  0.96028241852E+02  0.19928071792E+03  0.00000000000E+00 0.  1.
          2    1    1    2  501    0 -0.33431106406E+02  0.15228962250E+03  0.31642275066E+02  0.15909431658E+03  0.00000000000E+00 0. -1.
<scales pt_clust_5="13000.00000" pt_clust_6="13000.00000" pt_clust_7="13000.00000" pt_clust_8="13000.00000" pt_clust_9="135.29585" pt_clust_10="155.91590"></scales>
<clustering>
<clus scale="   84.820">  5  6 -1 -1</clus>
<clus scale="   92.404">  7  8 -1 -1</clus>
<clus scale="  155.916">  2 10  1 -1</clus>
<clus scale="  135.296">  2  9  1 -1</clus>
<clus scale="  363.643">  2  5  1 -1</clus>
<clus scale="  155.916">  2  5  1 -1</clus>
</clustering>
</event>
<event>
10    2  0.6640105E-006  0.1376886E+03  0.7546771E-02  0.1220961E+00
         -1   -1    0    0    0  501 -0.00000000000E+00  0.00000000000E+00  0.40615089538E+03  0.40615089538E+03  0.00000000000E+00 0.  1.
         21   -1    0    0  503  502  0.00000000000E+00 -0.00000000000E+00 -0.92052099204E+02  0.92052099204E+02  0.00000000000E+00 0. -1.
         23    2    1    2    0    0  0.10267344279E+03  0.16855476644E+02  0.28701529307E+03  0.31874532651E+03  0.91623478254E+02 0.  0.
         23    2    1    2    0    0 -0.96771933803E+02 -0.22859795252E+02  0.41425438727E+02  0.12936606519E+03  0.71638917055E+02 0.  0.
        -11    1    4    4    0    0 -0.26415260795E+02 -0.72172634050E+01  0.49774163025E+02  0.56809525599E+02  0.00000000000E+00 0.  1.
         11    1    4    4    0    0 -0.70356673008E+02 -0.15642531847E+02 -0.83487242980E+01  0.72556539586E+02  0.00000000000E+00 0. -1.
        -13    1    3    3    0    0  0.60009769703E+02 -0.36406244603E+02  0.13681024786E+03  0.15376485627E+03  0.00000000000E+00 0. -1.
         13    1    3    3    0    0  0.42663673083E+02  0.53261721247E+02  0.15020504522E+03  0.16498047024E+03  0.00000000000E+00 0.  1.
         21    1    1    2  503  501  0.10625826512E+01  0.25380266817E+02 -0.73684954341E+00  0.25413185020E+02  0.00000000000E+00 0. -1.
         -1    1    1    2    0  502 -0.69640916336E+01 -0.19375948209E+02 -0.13605086081E+02  0.24678417870E+02  0.00000000000E+00 0.  1.
<scales pt_clust_5="13000.00000" pt_clust_6="13000.00000" pt_clust_7="13000.00000" pt_clust_8="13000.00000" pt_clust_9="21.90637" pt_clust_10="20.58946"></scales>
<clustering>
<clus scale="   20.589">  2 10  1 -1</clus>
<clus scale="   21.906">  2  9  1 -1</clus>
<clus scale="   71.639">  5  6 -1 -1</clus>
<clus scale="   91.623">  7  8 -1 -1</clus>
<clus scale="  125.281">  2  5  1 -1</clus>
<clus scale="   20.589">  2  5  1 -1</clus>
</clustering>
</event>
<event>
10    2  0.6640105E-006  0.2199788E+03  0.7546771E-02  0.1146838E+00
         21   -1    0    0  503  502  0.00000000000E+00  0.00000000000E+00  0.66498387903E+03  0.66498387903E+03  0.00000000000E+00 0. -1.
         -1   -1    0    0    0  501 -0.00000000000E+00 -0.00000000000E+00 -0.16745336335E+03  0.16745336335E+03  0.00000000000E+00 0.  1.
         23    2    1    2    0    0  0.41485461078E+02  0.13460152368E+03  0.11004337186E+03  0.20048137651E+03  0.90799917281E+02 0.  0.
         23    2    1    2    0    0  0.18182695564E+03 -0.39478556563E+02  0.20049527756E+03  0.28858397957E+03  0.91993253649E+02 0.  0.
        -11    1    3    3    0    0 -0.14856463887E+02  0.54923714675E+02  0.50198694719E+01  0.57118543770E+02  0.00000000000E+00 0.  1.
         11    1    3    3    0    0  0.56341924964E+02  0.79677809010E+02  0.10502350239E+03  0.14336283274E+03  0.00000000000E+00 0. -1.
        -11    1    4    4    0    0  0.11307998698E+03  0.12578130392E+02  0.74837662552E+02  0.13618358401E+03  0.00000000000E+00 0.  1.
         11    1    4    4    0    0  0.68746968662E+02 -0.52056686955E+02  0.12565761501E+03  0.15240039556E+03  0.00000000000E+00 0. -1.
         21    1    1    2  503  501  0.39553580988E+01 -0.32396422867E+02  0.76153390828E+02  0.82852350642E+02  0.00000000000E+00 0.  1.
         -1    1    1    2    0  502 -0.22726777481E+03 -0.62726544255E+02  0.11083847544E+03  0.26051953566E+03  0.00000000000E+00 0.  1.
<scales pt_clust_5="13000.00000" pt_clust_6="13000.00000" pt_clust_7="13000.00000" pt_clust_8="13000.00000" pt_clust_9="32.63699" pt_clust_10="199.81985"></scales>
<clustering>
<clus scale="   32.637">  1  9  2 -1</clus>
<clus scale="   90.800">  5  6 -1 -1</clus>
<clus scale="   91.993">  7  8 -1 -1</clus>
<clus scale="  161.036">  2  5  1 -1</clus>
<clus scale="  199.820">  1 10  2 -1</clus>
<clus scale="   32.637">  1  5  2 -1</clus>
</clustering>
</event>
<event>
10    2  0.6640105E-006  0.2731230E+03  0.7546771E-02  0.1139524E+00
          2   -1    0    0  503    0 -0.00000000000E+00  0.00000000000E+00  0.58847734852E+03  0.58847734852E+03  0.00000000000E+00 0. -1.
         21   -1    0    0  501  502  0.00000000000E+00 -0.00000000000E+00 -0.25258983099E+03  0.25258983099E+03  0.00000000000E+00 0. -1.
         23    2    1    2    0    0  0.10298945979E+02 -0.42934823809E+02  0.24021713923E+03  0.26050326737E+03  0.90599177390E+02 0.  0.
         23    2    1    2    0    0  0.24357582706E+03 -0.82248440216E+02  0.50353678116E+02  0.27442232487E+03  0.81719826473E+02 0.  0.
        -11    1    4    4    0    0  0.96355120583E+02 -0.47737483425E+01  0.48663259841E+02  0.10805188936E+03  0.00000000000E+00 0. -1.
         11    1    4    4    0    0  0.14722070648E+03 -0.77474691874E+02  0.16904182752E+01  0.16637043551E+03  0.00000000000E+00 0.  1.
        -13    1    3    3    0    0 -0.34266791992E+02 -0.40039587862E+02  0.16292463696E+03  0.17123614968E+03  0.00000000000E+00 0.  1.
         13    1    3    3    0    0  0.44565737971E+02 -0.28952359468E+01  0.77292502275E+02  0.89267117686E+02  0.00000000000E+00 0. -1.
         21    1    1    2  503  502 -0.67260003492E+01  0.25717996040E+02 -0.18256761325E+02  0.32248468725E+02  0.00000000000E+00 0.  1.
          2    1    1    2  501    0 -0.24714877269E+03  0.99465267985E+02  0.63573461503E+02  0.27389311855E+03  0.00000000000E+00 0. -1.
<scales pt_clust_5="13000.00000" pt_clust_6="13000.00000" pt_clust_7="13000.00000" pt_clust_8="13000.00000" pt_clust_9="26.58297" pt_clust_10="260.61099"></scales>
<clustering>
<clus scale="   26.583">  2  9  1 -1</clus>
<clus scale="   81.720">  5  6 -1 -1</clus>
<clus scale="   90.599">  7  8 -1 -1</clus>
<clus scale="  100.271">  1  7  2 -1</clus>
<clus scale="  260.611">  2 10  1 -1</clus>
<clus scale="   26.583">  2  5  1 -1</clus>
</clustering>
</event>
<event>
10    2  0.6640105E-006  0.1294099E+03  0.7546771E-02  0.1232339E+00
         21   -1    0    0  501  502  0.00000000000E+00  0.00000000000E+00  0.20503072151E+03  0.20503072151E+03  0.00000000000E+00 0.  1.
          1   -1    0    0  503    0 -0.00000000000E+00 -0.00000000000E+00 -0.40794213527E+03  0.40794213527E+03  0.00000000000E+00 0. -1.
         23    2    1    2    0    0 -0.82741023878E+01  0.77932159364E+02 -0.26129609113E+03  0.29304631516E+03  0.10704491278E+03 0.  0.
         23    2    1    2    0    0 -0.79713378955E+01 -0.61958550229E+02 -0.67067370660E+02  0.13155799312E+03  0.94377270425E+02 0.  0.
        -11    1    3    3    0    0  0.18687660889E+02  0.32833041931E+02 -0.14094793500E+02  0.40322456718E+02  0.00000000000E+00 0.  1.
         11    1    3    3    0    0 -0.26961763277E+02  0.45099117433E+02 -0.24720129763E+03  0.25272385844E+03  0.00000000000E+00 0. -1.
        -13    1    4    4    0    0  0.42300272511E+02 -0.40005514810E+02 -0.37313149174E+02  0.69152189922E+02  0.00000000000E+00 0.  1.
         13    1    4    4    0    0 -0.50271610406E+02 -0.21953035419E+02 -0.29754221486E+02  0.62405803201E+02  0.00000000000E+00 0. -1.
         21    1    1    2  503  502  0.45330207800E+02  0.20116694061E+02  0.13250690850E+03  0.14148353232E+03  0.00000000000E+00 0.  1.
          1    1    1    2  501    0 -0.29084767516E+02 -0.36090303196E+02 -0.70548604622E+01  0.46885016182E+02  0.00000000000E+00 0. -1.
<scales pt_clust_5="13000.00000" pt_clust_6="13000.00000" pt_clust_7="13000.00000" pt_clust_8="13000.00000" pt_clust_9="24.70179" pt_clust_10="46.35120"></scales>
<clustering>
<clus scale="   46.351">  1 10  2 -1</clus>
<clus scale="   24.702">  1  9  2 -1</clus>
<clus scale="   94.377">  7  8 -1 -1</clus>
<clus scale="  107.045">  5  6 -1 -1</clus>
<clus scale="  119.144">  1  7  2 -1</clus>
<clus scale="   46.351">  1  5  2 -1</clus>
</clustering>
</event>
<event>
10    2  0.6640105E-006  0.1710272E+03  0.7546771E-02  0.1189607E+00
         21   -1    0    0  503  502  0.00000000000E+00  0.00000000000E+00  0.34351992860E+03  0.34351992860E+03  0.00000000000E+00 0.  1.
         -1   -1    0    0    0  501 -0.00000000000E+00 -0.00000000000E+00 -0.52027610779E+03  0.52027610779E+03  0.00000000000E+00 0.  1.
         23    2    1    2    0    0  0.49523059869E+02 -0.82342639831E+02 -0.15355121578E+03  0.19951013678E+03  0.83626999325E+02 0.  0.
         23    2    1    2    0    0  0.13047755107E+03 -0.37675801202E+02  0.86341219108E+01  0.16317834656E+03  0.90048694579E+02 0.  0.
        -13    1    4    4    0    0  0.44366242672E+02  0.45915540219E+01 -0.36055546708E+02  0.57353712221E+02  0.00000000000E+00 0.  1.
         13    1    4    4    0    0  0.86111308399E+02 -0.42267355224E+02  0.44689668618E+02  0.10582463434E+03  0.00000000000E+00 0. -1.
        -13    1    3    3    0    0  0.41633706865E+02 -0.34615149186E+02 -0.13872064170E+03  0.14891269434E+03  0.00000000000E+00 0. -1.
         13    1    3    3    0    0  0.78893530035E+01 -0.47727490645E+02 -0.14830574081E+02  0.50597442442E+02  0.00000000000E+00 0.  1.
         21    1    1    2  503  501 -0.22050080571E+02 -0.22674107556E+02  0.19061376941E+03  0.19321990139E+03  0.00000000000E+00 0.  1.
         -1    1    1    2    0  502 -0.15795053037E+03  0.14269254859E+03 -0.22245285472E+03  0.30788765165E+03  0.00000000000E+00 0.  1.
<scales pt_clust_5="13000.00000" pt_clust_6="13000.00000" pt_clust_7="13000.00000" pt_clust_8="13000.00000" pt_clust_9="31.62785" pt_clust_10="145.40137"></scales>
<clustering>
<clus scale="   31.628">  1  9  2 -1</clus>
<clus scale="   83.627">  7  8 -1 -1</clus>
<clus scale="   90.049">  5  6 -1 -1</clus>
<clus scale="  128.391">  2  7  1 -1</clus>
<clus scale="  145.401">  1 10  2 -1</clus>
<clus scale="   31.628">  1  5  2 -1</clus>
</clustering>
</event>
<event>
10    2  0.6640105E-006  0.9848144E+02  0.7546771E-02  0.1289143E+00
         -1   -1    0    0    0  501 -0.00000000000E+00  0.00000000000E+00  0.22475995658E+03  0.22475995658E+03  0.00000000000E+00 0.  1.
         21   -1    0    0  503  502  0.00000000000E+00 -0.00000000000E+00 -0.37799580968E+03  0.37799580968E+03  0.00000000000E+00 0.  1.
         23    2    1    2    0    0  0.26474853671E+02  0.31904114044E+02  0.17089819269E+03  0.19836997331E+03  0.91791413952E+02 0.  0.
         23    2    1    2    0    0  0.46272576684E+01 -0.20227599649E+01 -0.69252190803E+02  0.10675213616E+03  0.81084212837E+02 0.  0.
        -11    1    4    4    0    0 -0.18756592271E+01  0.39257285882E+02 -0.30326012129E+02  0.49641913783E+02  0.00000000000E+00 0.  1.
         11    1    4    4    0    0  0.65029168954E+01 -0.41280045847E+02 -0.38926178674E+02  0.57110222373E+02  0.00000000000E+00 0. -1.
        -13    1    3    3    0    0  0.46993734320E+02  0.33888375349E+02  0.52486159727E+02  0.78176914829E+02  0.00000000000E+00 0. -1.
         13    1    3    3    0    0 -0.20518880649E+02 -0.19842613055E+01  0.11841203296E+03  0.12019305848E+03  0.00000000000E+00 0.  1.
         21    1    1    2  503  501  0.54794148019E+02  0.68081922922E+01 -0.13354653625E+03  0.14451099433E+03  0.00000000000E+00 0.  1.
         -1    1    1    2    0  502 -0.85896259358E+02 -0.36689546371E+02 -0.12133531874E+03  0.15312266246E+03  0.00000000000E+00 0.  1.
<scales pt_clust_5="13000.00000" pt_clust_6="13000.00000" pt_clust_7="13000.00000" pt_clust_8="13000.00000" pt_clust_9="55.21549" pt_clust_10="63.53873"></scales>
<clustering>
<clus scale="   55.215">  2  9  1 -1</clus>
<clus scale="   63.539">  2 10  1 -1</clus>
<clus scale="   81.084">  5  6 -1 -1</clus>
<clus scale="   88.587">  2  5  1 -1</clus>
<clus scale="   91.791">  7  8 -1 -1</clus>
<clus scale="   55.215">  2  5  1 -1</clus>
</clustering>
</event>
<event>
10    2  0.6640105E-006  0.1216962E+03  0.7546771E-02  0.1249197E+00
         -4   -1    0    0    0  501 -0.00000000000E+00  0.00000000000E+00  0.82522801526E+03  0.82522801526E+03  0.00000000000E+00 0.  1.
         21   -1    0    0  501  502  0.00000000000E+00 -0.00000000000E+00 -0.22281581014E+03  0.22281581014E+03  0.00000000000E+00 0.  1.
         23    2    1    2    0    0  0.15371301884E+02  0.58347447977E+02  0.59466423077E+03  0.60835381612E+03  0.11326127592E+03 0.  0.
         23    2    1    2    0    0 -0.35959907796E+02 -0.35595486255E+01  0.19498932721E+03  0.21840932274E+03  0.91520539647E+02 0.  0.
        -11    1    4    4    0    0 -0.45093589501E+02 -0.29647702560E+02  0.60341925782E+02  0.80954098651E+02  0.00000000000E+00 0.  1.
         11    1    4    4    0    0  0.91336817052E+01  0.26088153935E+02  0.13464740143E+03  0.13745522409E+03  0.00000000000E+00 0. -1.
        -11    1    3    3    0    0 -0.20167717240E+02  0.82232640766E+02  0.36078144944E+03  0.37058359149E+03  0.00000000000E+00 0.  1.
         11    1    3    3    0    0  0.35539019124E+02 -0.23885192789E+02  0.23388278134E+03  0.23777022463E+03  0.00000000000E+00 0. -1.
         21    1    1    2  503  502 -0.24783340660E+02  0.50642200370E+01 -0.11255042488E+03  0.11535795785E+03  0.00000000000E+00 0.  1.
         -4    1    1    2    0  503  0.45371946572E+02 -0.59852119388E+02 -0.74690927976E+02  0.10592272869E+03  0.00000000000E+00 0.  1.
<scales pt_clust_5="13000.00000" pt_clust_6="13000.00000" pt_clust_7="13000.00000" pt_clust_8="13000.00000" pt_clust_9="25.29546" pt_clust_10="60.93205"></scales>
<clustering>
<clus scale="   25.295">  2  9  1 -1</clus>
<clus scale="   60.932">  2 10  1 -1</clus>
<clus scale="   91.521">  5  6 -1 -1</clus>
<clus scale="  101.774">  2  5  1 -1</clus>
<clus scale="  113.261">  7  8 -1 -1</clus>
<clus scale="   25.295">  2  5  1 -1</clus>
</clustering>
</event>
<event>
10    2  0.6640105E-006  0.1550859E+03  0.7546771E-02  0.1194515E+00
         21   -1    0    0  503  502  0.00000000000E+00  0.00000000000E+00  0.25159472301E+03  0.25159472301E+03  0.00000000000E+00 0. -1.
          1   -1    0    0  502    0 -0.00000000000E+00 -0.00000000000E+00 -0.48313765786E+03  0.48313765786E+03  0.00000000000E+00 0. -1.
         23    2    1    2    0    0  0.65686722579E+02  0.12111830076E+03 -0.35814547362E+03  0.39423249596E+03  0.90369753209E+02 0.  0.
         23    2    1    2    0    0  0.23043687665E+02 -0.95334022466E+02  0.86056877615E+01  0.13425345942E+03  0.91270729835E+02 0.  0.
        -11    1    3    3    0    0 -0.10153181674E+02  0.59631725110E+02 -0.86319163732E+02  0.10540411645E+03  0.00000000000E+00 0.  1.
         11    1    3    3    0    0  0.75839904254E+02  0.61486575651E+02 -0.27182630989E+03  0.28882837951E+03  0.00000000000E+00 0. -1.
        -13    1    4    4    0    0  0.55060208531E+02 -0.34303950936E+02  0.77169488551E+01  0.65329464355E+02  0.00000000000E+00 0. -1.
         13    1    4    4    0    0 -0.32016520866E+02 -0.61030071530E+02  0.88873890640E+00  0.68923995068E+02  0.00000000000E+00 0.  1.
         21    1    1    2  503  501  0.16633687821E+02  0.22616567077E+02  0.79119702387E+02  0.83953058209E+02  0.00000000000E+00 0. -1.
          1    1    1    2  501    0 -0.10536409807E+03 -0.48400845371E+02  0.38877148627E+02  0.12229336727E+03  0.00000000000E+00 0. -1.
<scales pt_clust_5="13000.00000" pt_clust_6="13000.00000" pt_clust_7="13000.00000" pt_clust_8="13000.00000" pt_clust_9="28.07470" pt_clust_10="104.51209"></scales>
<clustering>
<clus scale="   28.075">  1  9  2 -1</clus>
<clus scale="   90.370">  5  6 -1 -1</clus>
<clus scale="   91.271">  7  8 -1 -1</clus>
<clus scale="  104.512">  1 10  2 -1</clus>
<clus scale="  154.557">  2  5  1 -1</clus>
<clus scale="   28.075">  1  5  2 -1</clus>
</clustering>
</event>
<event>
10    2  0.6640105E-006  0.1329547E+03  0.7546771E-02  0.1240772E+00
         21   -1    0    0  501  502  0.00000000000E+00  0.00000000000E+00  0.88335895046E+03  0.88335895046E+03  0.00000000000E+00 0.  1.
          1   -1    0    0  503    0 -0.00000000000E+00 -0.00000000000E+00 -0.21440051054E+03  0.21440051054E+03  0.00000000000E+00 0. -1.
         23    2    1    2    0    0 -0.69135450030E+01 -0.24470264211E+02 -0.75602632415E+02  0.11956687414E+03  0.89072377470E+02 0.  0.
         23    2    1    2    0    0  0.36341677771E+02  0.11007094847E+03 -0.30369304909E+02  0.14986945304E+03  0.90012371559E+02 0.  0.
        -11    1    3    3    0    0  0.30097430968E+02 -0.21294738509E+02 -0.73656836922E+02  0.82368992129E+02  0.00000000000E+00 0. -1.
         11    1    3    3    0    0 -0.37010975971E+02 -0.31755257011E+01 -0.19457954927E+01  0.37197882009E+02  0.00000000000E+00 0.  1.
        -13    1    4    4    0    0 -0.21217213088E+02  0.10796746933E+02  0.13083163882E+02  0.27164481455E+02  0.00000000000E+00 0.  1.
         13    1    4    4    0    0  0.57558890859E+02  0.99274201535E+02 -0.43452468791E+02  0.12270497158E+03  0.00000000000E+00 0. -1.
         21    1    1    2  503  502 -0.70364461076E+02 -0.97157095689E+02  0.77654504326E+03  0.78575623627E+03  0.00000000000E+00 0.  1.
          1    1    1    2  501    0  0.40936328308E+02  0.11556411432E+02 -0.16146660196E+01  0.42566897548E+02  0.00000000000E+00 0. -1.
<scales pt_clust_5="13000.00000" pt_clust_6="13000.00000" pt_clust_7="13000.00000" pt_clust_8="13000.00000" pt_clust_9="97.85058" pt_clust_10="42.53628"></scales>
<clustering>
<clus scale="   42.536">  1 10  2 -1</clus>
<clus scale="   89.072">  5  6 -1 -1</clus>
<clus scale="   90.012">  7  8 -1 -1</clus>
<clus scale="   92.481">  2  5  1 -1</clus>
<clus scale="   97.851">  1  9  2 -1</clus>
<clus scale="   42.536">  1  5  2 -1</clus>
</clustering>
</event>
<event>
10    2  0.6640105E-006  0.2429989E+03  0.7546771E-02  0.1142437E+00
         21   -1    0    0  503  502  0.00000000000E+00  0.00000000000E+00  0.42325163695E+03  0.42325163695E+03  0.00000000000E+00 0.  1.
          2   -1    0    0  502    0 -0.00000000000E+00 -0.00000000000E+00 -0.33514327121E+03  0.33514327121E+03  0.00000000000E+00 0. -1.
         23    2    1    2    0    0  0.94271830110E+02 -0.39078002815E+02  0.55201247966E+02  0.14291667007E+03  0.83448957758E+02 0.  0.
         23    2    1    2    0    0  0.18679592952E+03  0.87417798394E+02 -0.50922761653E+02  0.23131094144E+03  0.91526134058E+02 0.  0.
        -13    1    4    4    0    0  0.76954834039E+02 -0.73640466671E+01  0.72691744472E+00  0.77309792874E+02  0.00000000000E+00 0.  1.
         13    1    4    4    0    0  0.10984109548E+03  0.94781845062E+02 -0.51649679097E+02  0.15400114857E+03  0.00000000000E+00 0. -1.
        -13    1    3    3    0    0  0.93916118600E+02 -0.14458887643E+02  0.66343538199E+02  0.11589116371E+03  0.00000000000E+00 0.  1.
         13    1    3    3    0    0  0.35571150944E+00 -0.24619115173E+02 -0.11142290232E+02  0.27025506363E+02  0.00000000000E+00 0. -1.
         21    1    1    2  503  501 -0.22058532478E+02 -0.50207621989E+02  0.11092239485E+03  0.12373827960E+03  0.00000000000E+00 0.  1.
          2    1    1    2  501    0 -0.25900922715E+03  0.18678264095E+01 -0.27092515421E+02  0.26042901704E+03  0.00000000000E+00 0. -1.
<scales pt_clust_5="13000.00000" pt_clust_6="13000.00000" pt_clust_7="13000.00000" pt_clust_8="13000.00000" pt_clust_9="54.83962" pt_clust_10="225.10323"></scales>
<clustering>
<clus scale="   54.840">  1  9  2 -1</clus>
<clus scale="   83.449">  7  8 -1 -1</clus>
<clus scale="   91.526">  5  6 -1 -1</clus>
<clus scale="  132.730">  2  7  1 -1</clus>
<clus scale="  225.103">  1 10  2 -1</clus>
<clus scale="   54.840">  1  5  2 -1</clus>
</clustering>
</event>
<event>
10    2  0.6640105E-006  0.1523441E+03  0.7546771E-02  0.1217698E+00
         -1   -1    0    0    0  501 -0.00000000000E+00  0.00000000000E+00  0.66459333936E+03  0.66459333936E+03  0.00000000000E+00 0.  1.
         21   -1    0    0  503  502  0.00000000000E+00 -0.00000000000E+00 -0.13161016408E+03  0.13161016408E+03  0.00000000000E+00 0.  1.
         23    2    1    2    0    0  0.12877552039E+02 -0.37386135226E+02  0.64552239056E+02  0.11823592614E+03  0.90825041754E+02 0.  0.
         23    2    1    2    0    0 -0.49099007703E+02 -0.15359132017E+02  0.57113067834E+01  0.10468929107E+03  0.90997874407E+02 0.  0.
        -13    1    3    3    0    0  0.35353025069E+02  0.68856303393E+01  0.57835333158E+02  0.68133501658E+02  0.00000000000E+00 0. -1.
         13    1    3    3    0    0 -0.22475473029E+02 -0.44271765566E+02  0.67169058974E+01  0.50102424483E+02  0.00000000000E+00 0.  1.
        -13    1    4    4    0    0 -0.68430641903E+02 -0.34899735113E+02  0.72590850006E+01  0.77158528869E+02  0.00000000000E+00 0.  1.
         13    1    4    4    0    0  0.19331634199E+02  0.19540603096E+02 -0.15477782172E+01  0.27530762205E+02  0.00000000000E+00 0. -1.
         21    1    1    2  503  501 -0.13632119916E+03 -0.23411170858E+02  0.12483796924E+03  0.18632249146E+03  0.00000000000E+00 0.  1.
         -1    1    1    2    0  502  0.17254265482E+03  0.76156438101E+02  0.33788166020E+03  0.38695579476E+03  0.00000000000E+00 0.  1.
<scales pt_clust_5="13000.00000" pt_clust_6="13000.00000" pt_clust_7="13000.00000" pt_clust_8="13000.00000" pt_clust_9="13000.00000" pt_clust_10="152.34410"></scales>
<clustering>
<clus scale="   90.825">  5  6 -1 -1</clus>
<clus scale="   90.998">  7  8 -1 -1</clus>
<clus scale="   99.059">  1  5  2 -1</clus>
<clus scale="  104.549">  1  7  2 -1</clus>
<clus scale="  152.344">  1 10  2 -1</clus>
<clus scale="  152.344">  2  5  1 -1</clus>
</clustering>
</event>
<event>
10    2  0.6640105E-006  0.2515338E+03  0.7546771E-02  0.1152655E+00
          2   -1    0    0  502    0 -0.00000000000E+00  0.00000000000E+00  0.59879803977E+03  0.59879803977E+03  0.00000000000E+00 0. -1.
         21   -1    0    0  503  502  0.00000000000E+00 -0.00000000000E+00 -0.15309747600E+04  0.15309747600E+04  0.00000000000E+00 0.  1.
         23    2    1    2    0    0 -0.71340660398E+01  0.11906735384E+02 -0.17100327664E+03  0.19505943705E+03  0.92808394634E+02 0.  0.
         23    2    1    2    0    0 -0.35219743300E+02 -0.12772924844E+02  0.40924093095E+03  0.42092642060E+03  0.91089703422E+02 0.  0.
        -11    1    4    4    0    0 -0.62547964517E+02 -0.26380364898E+02  0.29006355783E+03  0.29790105588E+03  0.00000000000E+00 0. -1.
         11    1    4    4    0    0  0.27328221218E+02  0.13607440054E+02  0.11917737312E+03  0.12302536472E+03  0.00000000000E+00 0.  1.
        -13    1    3    3    0    0  0.17231352163E+02 -0.21429025468E+02 -0.14190716929E+03  0.14454676519E+03  0.00000000000E+00 0.  1.
         13    1    3    3    0    0 -0.24365418203E+02  0.33335760852E+02 -0.29096107349E+02  0.50512671862E+02  0.00000000000E+00 0. -1.
         21    1    1    2  503  501  0.15945875922E+03  0.19713248050E+03 -0.12471792500E+04  0.12726917900E+04  0.00000000000E+00 0.  1.
          2    1    1    2  501    0 -0.11710494988E+03 -0.19626629104E+03  0.76764875425E+02  0.24109515213E+03  0.00000000000E+00 0. -1.
<scales pt_clust_5="13000.00000" pt_clust_6="13000.00000" pt_clust_7="13000.00000" pt_clust_8="13000.00000" pt_clust_9="251.53379" pt_clust_10="13000.00000"></scales>
<clustering>
<clus scale="   91.090">  5  6 -1 -1</clus>
<clus scale="   92.808">  7  8 -1 -1</clus>
<clus scale="   93.841">  1  7  2 -1</clus>
<clus scale="   99.688">  1  5  2 -1</clus>
<clus scale="  251.534">  2  9  1 -1</clus>
<clus scale="  251.534">  2  5  1 -1</clus>
</clustering>
</event>
<event>
10    2  0.6640105E-006  0.2024832E+03  0.7546771E-02  0.1169531E+00
          4   -1    0    0  503    0 -0.00000000000E+00  0.00000000000E+00  0.37324207245E+03  0.37324207245E+03  0.00000000000E+00 0. -1.
         21   -1    0    0  501  502  0.00000000000E+00 -0.00000000000E+00 -0.23725964157E+03  0.23725964157E+03  0.00000000000E+00 0. -1.
         23    2    1    2    0    0 -0.49485724395E+02 -0.44705360037E+02  0.15374053179E+03  0.19642965969E+03  0.10247465030E+03 0.  0.
         23    2    1    2    0    0 -0.14886134486E+03  0.47303042954E+02  0.30708517894E+02  0.18363908977E+03  0.91558857321E+02 0.  0.
        -11    1    4    4    0    0 -0.51733484681E+02 -0.71786589423E+01 -0.26359378746E+02  0.58503875336E+02  0.00000000000E+00 0.  1.
         11    1    4    4    0    0 -0.97127860176E+02  0.54481701896E+02  0.57067896640E+02  0.12513521443E+03  0.00000000000E+00 0. -1.
        -11    1    3    3    0    0  0.10694942620E+02  0.26589676823E+02  0.42216319009E+02  0.51025584778E+02  0.00000000000E+00 0. -1.
         11    1    3    3    0    0 -0.60180667016E+02 -0.71295036860E+02  0.11152421278E+03  0.14540407491E+03  0.00000000000E+00 0.  1.
         21    1    1    2  503  502 -0.18458782256E+01  0.22983972720E+02 -0.92119658275E+01  0.24830033887E+02  0.00000000000E+00 0.  1.
          4    1    1    2  501    0  0.20019294748E+03 -0.25581655637E+02 -0.39254652977E+02  0.20560293068E+03  0.00000000000E+00 0. -1.
<scales pt_clust_5="13000.00000" pt_clust_6="13000.00000" pt_clust_7="13000.00000" pt_clust_8="13000.00000" pt_clust_9="23.05798" pt_clust_10="180.60012"></scales>
<clustering>
<clus scale="   23.058">  2  9  1 -1</clus>
<clus scale="   91.559">  5  6 -1 -1</clus>
<clus scale="  102.475">  7  8 -1 -1</clus>
<clus scale="  121.540">  1  7  2 -1</clus>
<clus scale="  180.600">  2 10  1 -1</clus>
<clus scale="   23.058">  2  5  1 -1</clus>
</clustering>
</event>
<event>
10    2  0.6640105E-006  0.1735805E+03  0.7546771E-02  0.1183311E+00
          1   -1    0    0  502    0 -0.00000000000E+00  0.00000000000E+00  0.10202546081E+04  0.10202546081E+04  0.00000000000E+00 0. -1.
         21   -1    0    0  503  502  0.00000000000E+00 -0.00000000000E+00 -0.95670348507E+02  0.95670348507E+02  0.00000000000E+00 0. -1.
         23    2    1    2    0    0 -0.10693886523E+03 -0.27787700390E+02  0.39705835450E+03  0.42254460757E+03  0.93169368978E+02 0.  0.
         23    2    1    2    0    0  0.92194456699E+02  0.16155964734E+03  0.40693770972E+03  0.45589497253E+03  0.87410462145E+02 0.  0.
        -11    1    3    3    0    0 -0.83161192093E+02 -0.61312653381E+02  0.29129519779E+03  0.30907590911E+03  0.00000000000E+00 0. -1.
         11    1    3    3    0    0 -0.23777673138E+02  0.33524952991E+02  0.10576315670E+03  0.11346869845E+03  0.00000000000E+00 0.  1.
        -13    1    4    4    0    0  0.21530981906E+02 -0.19276729342E+01  0.87802535117E+02  0.90424467251E+02  0.00000000000E+00 0.  1.
         13    1    4    4    0    0  0.70663474794E+02  0.16348732028E+03  0.31913517460E+03  0.36547050528E+03  0.00000000000E+00 0. -1.
         21    1    1    2  503  501  0.20418756160E+02  0.14835506788E+02 -0.20482118316E+02  0.32504384865E+02  0.00000000000E+00 0. -1.
          1    1    1    2  501    0 -0.56743476273E+01 -0.14860745374E+03  0.14107031367E+03  0.20498099162E+03  0.00000000000E+00 0. -1.
<scales pt_clust_5="13000.00000" pt_clust_6="13000.00000" pt_clust_7="13000.00000" pt_clust_8="13000.00000" pt_clust_9="25.23921" pt_clust_10="149.96530"></scales>
<clustering>
<clus scale="   25.239">  2  9  1 -1</clus>
<clus scale="   87.410">  7  8 -1 -1</clus>
<clus scale="   93.169">  5  6 -1 -1</clus>
<clus scale="  141.258">  1  5  2 -1</clus>
<clus scale="  149.965">  2 10  1 -1</clus>
<clus scale="   25.239">  2  5  1 -1</clus>
</clustering>
</event>
<event>
10    2  0.6640105E-006  0.9544700E+02  0.7546771E-02  0.1290685E+00
          2   -1    0    0  503    0 -0.00000000000E+00  0.00000000000E+00  0.43356214987E+03  0.43356214987E+03  0.00000000000E+00 0. -1.
         21   -1    0    0  501  502  0.00000000000E+00 -0.00000000000E+00 -0.73058536020E+02  0.73058536020E+02  0.00000000000E+00 0. -1.
         23    2    1    2    0    0  0.35385068210E+01 -0.20708540379E+02  0.28467609938E+03  0.29992183058E+03  0.92039438414E+02 0.  0.
         23    2    1    2    0    0 -0.23421212906E+02  0.17190242090E+02  0.81969711295E+02  0.12730788565E+03  0.92974225144E+02 0.  0.
        -11    1    3    3    0    0 -0.17033741485E+02 -0.52894024095E+02  0.18547308781E+03  0.19361867791E+03  0.00000000000E+00 0.  1.
         11    1    3    3    0    0  0.20572248306E+02  0.32185483716E+02  0.99203011574E+02  0.10630315267E+03  0.00000000000E+00 0. -1.
        -13    1    4    4    0    0  0.87487932653E+01 -0.34379159971E+02  0.21037684100E+02  0.41243813793E+02  0.00000000000E+00 0.  1.
         13    1    4    4    0    0 -0.32170006171E+02  0.51569402061E+02  0.60932027195E+02  0.86064071854E+02  0.00000000000E+00 0. -1.
         21    1    1    2  503  502  0.17839284179E+02 -0.33040877929E+02 -0.16972155737E+02  0.41206719655E+02  0.00000000000E+00 0. -1.
          2    1    1    2  501    0  0.20434219059E+01  0.36559176218E+02  0.10829958914E+02  0.38184250011E+02  0.00000000000E+00 0. -1.
<scales pt_clust_5="13000.00000" pt_clust_6="13000.00000" pt_clust_7="13000.00000" pt_clust_8="13000.00000" pt_clust_9="24.16440" pt_clust_10="36.61624"></scales>
<clustering>
<clus scale="   36.616">  2 10  1 -1</clus>
<clus scale="   24.164">  2  9  1 -1</clus>
<clus scale="   92.039">  5  6 -1 -1</clus>
<clus scale="   92.974">  7  8 -1 -1</clus>
<clus scale="   94.537">  1  5  2 -1</clus>
<clus scale="   36.616">  2  5  1 -1</clus>
</clustering>
</event>
<event>
10    2  0.6640105E-006  0.1323957E+03  0.7546771E-02  0.1228877E+00
         -2   -1    0    0    0  501 -0.00000000000E+00  0.00000000000E+00  0.28766223446E+03  0.28766223446E+03  0.00000000000E+00 0.  1.
         21   -1    0    0  501  502  0.00000000000E+00 -0.00000000000E+00 -0.12036960459E+03  0.12036960459E+03  0.00000000000E+00 0. -1.
         23    2    1    2    0    0 -0.96218931693E+02  0.39734812289E+02  0.14697570640E+03  0.20942769049E+03  0.10686983273E+03 0.  0.
         23    2    1    2    0    0  0.23246727927E+02 -0.87136949858E+01 -0.29943125731E+02  0.98415622161E+02  0.90403014702E+02 0.  0.
        -11    1    4    4    0    0 -0.14487200615E+02 -0.39796418239E+02 -0.26704768706E+01  0.42435425449E+02  0.00000000000E+00 0. -1.
         11    1    4    4    0    0  0.37733928542E+02  0.31082723254E+02 -0.27272648861E+02  0.55980196712E+02  0.00000000000E+00 0.  1.
        -11    1    3    3    0    0 -0.30880353994E+02 -0.32895844023E+02  0.20352218567E+02  0.49496925333E+02  0.00000000000E+00 0.  1.
         11    1    3    3    0    0 -0.65338577698E+02  0.72630656311E+02  0.12662348783E+03  0.15993076515E+03  0.00000000000E+00 0. -1.
         21    1    1    2  503  502  0.15825926106E+02 -0.12514991114E+02 -0.23835049484E+01  0.20316644298E+02  0.00000000000E+00 0. -1.
         -2    1    1    2    0  503  0.57146277660E+02 -0.18506126189E+02  0.52643554148E+02  0.79871882100E+02  0.00000000000E+00 0.  1.
<scales pt_clust_5="13000.00000" pt_clust_6="13000.00000" pt_clust_7="13000.00000" pt_clust_8="13000.00000" pt_clust_9="20.17635" pt_clust_10="62.43595"></scales>
<clustering>
<clus scale="   20.176">  2  9  1 -1</clus>
<clus scale="   62.436">  2 10  1 -1</clus>
<clus scale="   90.403">  5  6 -1 -1</clus>
<clus scale="  106.870">  7  8 -1 -1</clus>
<clus scale="  119.500">  2  5  1 -1</clus>
<clus scale="   20.176">  2  5  1 -1</clus>
</clustering>
</event>
<event>
10    2  0.6640105E-006  0.2146511E+03  0.7546771E-02  0.1139974E+00
         21   -1    0    0  501  502  0.00000000000E+00  0.00000000000E+00  0.14060857785E+03  0.14060857785E+03  0.00000000000E+00 0. -1.
          1   -1    0    0  503    0 -0.00000000000E+00 -0.00000000000E+00 -0.92984699496E+03  0.92984699496E+03  0.00000000000E+00 0. -1.
         23    2    1    2    0    0  0.91887161016E+02  0.15777857161E+03 -0.63546475344E+03  0.66731011781E+03  0.90277419392E+02 0.  0.
         23    2    1    2    0    0 -0.83504701617E+02 -0.16571511371E+03 -0.21947660460E+03  0.30834838027E+03  0.11168800088E+03 0.  0.
        -11    1    4    4    0    0 -0.14132085520E+02 -0.63718274176E+02 -0.11108139684E+02  0.66205174061E+02  0.00000000000E+00 0.  1.
         11    1    4    4    0    0 -0.69372616098E+02 -0.10199683953E+03 -0.20836846492E+03  0.24214320620E+03  0.00000000000E+00 0. -1.
        -13    1    3    3    0    0  0.10502554849E+03  0.13304527025E+03 -0.47311957204E+03  0.50256694998E+03  0.00000000000E+00 0.  1.
         13    1    3    3    0    0 -0.13138387474E+02  0.24733301359E+02 -0.16234518140E+03  0.16474316783E+03  0.00000000000E+00 0. -1.
         21    1    1    2  503  502  0.21561832183E+02 -0.17688471546E+02  0.35490834423E+02  0.45137500604E+02  0.00000000000E+00 0. -1.
          1    1    1    2  501    0 -0.29944291582E+02  0.25625013645E+02  0.30212106505E+02  0.49659574124E+02  0.00000000000E+00 0. -1.
<scales pt_clust_5="13000.00000" pt_clust_6="13000.00000" pt_clust_7="13000.00000" pt_clust_8="13000.00000" pt_clust_9="27.88897" pt_clust_10="28.31029"></scales>
<clustering>
<clus scale="   27.889">  1  9  2 -1</clus>
<clus scale="   28.310">  1 10  2 -1</clus>
<clus scale="   90.277">  7  8 -1 -1</clus>
<clus scale="  111.688">  5  6 -1 -1</clus>
<clus scale="  204.330">  2  7  1 -1</clus>
<clus scale="   27.889">  1  5  2 -1</clus>
</clustering>
</event>
<event>
10    2  0.6640105E-006  0.1139941E+03  0.7546771E-02  0.1253970E+00
          1   -1    0    0  502    0 -0.00000000000E+00  0.00000000000E+00  0.10828275880E+03  0.10828275880E+03  0.00000000000E+00 0. -1.
         21   -1    0    0  503  502  0.00000000000E+00 -0.00000000000E+00 -0.32543064959E+03  0.32543064959E+03  0.00000000000E+00 0.  1.
         23    2    1    2    0    0  0.76120257052E+02 -0.20257110046E+02  0.13445828212E+02  0.12157914707E+03  0.91629987806E+02 0.  0.
         23    2    1    2    0    0 -0.17243866840E+02  0.55194915204E+02 -0.14239427074E+03  0.17804056885E+03  0.89880399469E+02 0.  0.
        -13    1    4    4    0    0 -0.50138772232E+02  0.54358226051E+02 -0.96987982724E+02  0.12196467527E+03  0.00000000000E+00 0.  1.
         13    1    4    4    0    0  0.32894905392E+02  0.83668915236E+00 -0.45406288019E+02  0.56075893584E+02  0.00000000000E+00 0. -1.
        -13    1    3    3    0    0  0.14653689813E+01  0.22698444411E+02  0.25992179823E+02  0.34539254434E+02  0.00000000000E+00 0.  1.
         13    1    3    3    0    0  0.74654888071E+02 -0.42955554457E+02 -0.12546351611E+02  0.87039892638E+02  0.00000000000E+00 0. -1.
         21    1    1    2  503  501 -0.20304101613E+02 -0.85870995969E+01 -0.84393226910E+02  0.87225062741E+02  0.00000000000E+00 0.  1.
          1    1    1    2  501    0 -0.38572288599E+02 -0.26350705560E+02 -0.38062213439E+01  0.46868629724E+02  0.00000000000E+00 0. -1.
<scales pt_clust_5="13000.00000" pt_clust_6="13000.00000" pt_clust_7="13000.00000" pt_clust_8="13000.00000" pt_clust_9="22.04529" pt_clust_10="49.00097"></scales>
<clustering>
<clus scale="   22.045">  2  9  1 -1</clus>
<clus scale="   49.001">  2 10  1 -1</clus>
<clus scale="   89.880">  5  6 -1 -1</clus>
<clus scale="   91.630">  7  8 -1 -1</clus>
<clus scale="  112.593">  2  5  1 -1</clus>
<clus scale="   22.045">  2  5  1 -1</clus>
</clustering>
</event>
<event>
10    2  0.6640105E-006  0.1104575E+03  0.7546771E-02  0.1261139E+00
         21   -1    0    0  501  502  0.00000000000E+00  0.00000000000E+00  0.12173130722E+03  0.12173130722E+03  0.00000000000E+00 0.  1.
          1   -1    0    0  503    0 -0.00000000000E+00 -0.00000000000E+00 -0.59072442660E+03  0.59072442660E+03  0.00000000000E+00 0. -1.
         23    2    1    2    0    0  0.86890072936E+01  0.72548053767E+02 -0.29640992280E+03  0.31826457334E+03  0.89970980646E+02 0.  0.
         23    2    1    2    0    0 -0.38539846555E+02 -0.33050782696E+02 -0.21211834911E+03  0.23733040375E+03  0.93562024908E+02 0.  0.
        -11    1    4    4    0    0 -0.48153796905E+02 -0.13032433037E+02 -0.20904083054E+03  0.21491091480E+03  0.00000000000E+00 0. -1.
         11    1    4    4    0    0  0.96139503507E+01 -0.20018349659E+02 -0.30775185770E+01  0.22419488955E+02  0.00000000000E+00 0.  1.
        -13    1    3    3    0    0 -0.40004484106E+02  0.42331324310E+02 -0.16179762786E+03  0.17196154264E+03  0.00000000000E+00 0. -1.
         13    1    3    3    0    0  0.48693491400E+02  0.30216729457E+02 -0.13461229494E+03  0.14630303070E+03  0.00000000000E+00 0.  1.
         21    1    1    2  503  502  0.42703918550E+02 -0.56419543487E+01  0.87046939679E+02  0.97121707233E+02  0.00000000000E+00 0.  1.
          1    1    1    2  501    0 -0.12853079289E+02 -0.33855316722E+02 -0.47511787145E+02  0.59739049501E+02  0.00000000000E+00 0. -1.
<scales pt_clust_5="13000.00000" pt_clust_6="13000.00000" pt_clust_7="13000.00000" pt_clust_8="13000.00000" pt_clust_9="46.01382" pt_clust_10="36.21306"></scales>
<clustering>
<clus scale="   36.213">  1 10  2 -1</clus>
<clus scale="   46.014">  1  9  2 -1</clus>
<clus scale="   89.971">  7  8 -1 -1</clus>
<clus scale="   93.562">  5  6 -1 -1</clus>
<clus scale="  107.433">  2  7  1 -1</clus>
<clus scale="   36.213">  1  5  2 -1</clus>
</clustering>
</event>
<event>
10    2  0.6640105E-006  0.1253200E+03  0.7546771E-02  0.1249459E+00
          3   -1    0    0  503    0 -0.00000000000E+00  0.00000000000E+00  0.16800618145E+03  0.16800618145E+03  0.00000000000E+00 0. -1.
         21   -1    0    0  501  502  0.00000000000E+00 -0.00000000000E+00 -0.28511466352E+03  0.28511466352E+03  0.00000000000E+00 0. -1.
         23    2    1    2    0    0 -0.40514876272E+01  0.10804240000E+02  0.26487011190E+02  0.96419159231E+02  0.91988838187E+02 0.  0.
         23    2    1    2    0    0  0.61112976571E+01  0.35885067057E+02 -0.55814476526E+02  0.11445831656E+03  0.93061079103E+02 0.  0.
        -13    1    3    3    0    0 -0.28709001133E+02 -0.85709912764E+01  0.49265185458E+02  0.57660446891E+02  0.00000000000E+00 0.  1.
         13    1    3    3    0    0  0.24657513505E+02  0.19375231277E+02 -0.22778174268E+02  0.38758712340E+02  0.00000000000E+00 0. -1.
        -13    1    4    4    0    0 -0.17715991713E+01  0.67272833504E+02 -0.41565520381E+02  0.79097820297E+02  0.00000000000E+00 0. -1.
         13    1    4    4    0    0  0.78828968283E+01 -0.31387766447E+02 -0.14248956145E+02  0.35360496265E+02  0.00000000000E+00 0.  1.
         21    1    1    2  503  502 -0.66353005665E+02 -0.11436803643E+03 -0.46319563306E+02  0.14010093170E+03  0.00000000000E+00 0. -1.
          3    1    1    2  501    0  0.64293195635E+02  0.67678729371E+02 -0.41461453423E+02  0.10214243748E+03  0.00000000000E+00 0. -1.
<scales pt_clust_5="13000.00000" pt_clust_6="13000.00000" pt_clust_7="13000.00000" pt_clust_8="13000.00000" pt_clust_9="83.93296" pt_clust_10="94.83090"></scales>
<clustering>
<clus scale="   91.989">  5  6 -1 -1</clus>
<clus scale="   92.710">  1  5  2 -1</clus>
<clus scale="   93.061">  7  8 -1 -1</clus>
<clus scale="   94.831">  2 10  1 -1</clus>
<clus scale="   83.933">  2  9  1 -1</clus>
<clus scale="   94.831">  2  5  1 -1</clus>
</clustering>
</event>
<event>
10    2  0.6640105E-006  0.9177263E+02  0.7546771E-02  0.1299840E+00
         21   -1    0    0  503  502  0.00000000000E+00  0.00000000000E+00  0.11649971548E+03  0.11649971548E+03  0.00000000000E+00 0.  1.
          2   -1    0    0  502    0 -0.00000000000E+00 -0.00000000000E+00 -0.69340310202E+03  0.69340310202E+03  0.00000000000E+00 0. -1.
         23    2    1    2    0    0  0.14825190623E+02  0.85209556732E+01 -0.47451117977E+03  0.48357044369E+03  0.91581227968E+02 0.  0.
         23    2    1    2    0    0  0.19811458767E+02  0.31936798642E+02 -0.18398882902E+03  0.20803638720E+03  0.89525394096E+02 0.  0.
        -13    1    3    3    0    0  0.34952178846E+02  0.41651372351E+02 -0.27143472941E+03  0.27682720956E+03  0.00000000000E+00 0. -1.
         13    1    3    3    0    0 -0.20126988223E+02 -0.33130416678E+02 -0.20307645037E+03  0.20674323413E+03  0.00000000000E+00 0.  1.
        -13    1    4    4    0    0  0.18116985046E+02 -0.25876471386E+02 -0.30081469267E+02  0.43620083813E+02  0.00000000000E+00 0.  1.
         13    1    4    4    0    0  0.16944737211E+01  0.57813270029E+02 -0.15390735975E+03  0.16441630338E+03  0.00000000000E+00 0. -1.
         21    1    1    2  503  501 -0.24992525995E+02  0.90852281988E+01  0.55349653306E+02  0.61406447936E+02  0.00000000000E+00 0.  1.
          2    1    1    2  501    0 -0.96441233955E+01 -0.49542982514E+02  0.26246968952E+02  0.56889538684E+02  0.00000000000E+00 0. -1.
<scales pt_clust_5="13000.00000" pt_clust_6="13000.00000" pt_clust_7="13000.00000" pt_clust_8="13000.00000" pt_clust_9="26.59263" pt_clust_10="51.08983"></scales>
<clustering>
<clus scale="   26.593">  1  9  2 -1</clus>
<clus scale="   51.090">  1 10  2 -1</clus>
<clus scale="   89.525">  7  8 -1 -1</clus>
<clus scale="   89.721">  1  7  2 -1</clus>
<clus scale="   91.581">  5  6 -1 -1</clus>
<clus scale="   26.593">  1  5  2 -1</clus>
</clustering>
</event>
<event>
10    2  0.6640105E-006  0.1184589E+03  0.7546771E-02  0.1256096E+00
         21   -1    0    0  503  502  0.00000000000E+00  0.00000000000E+00  0.36461197324E+03  0.36461197324E+03  0.00000000000E+00 0.  1.
         -1   -1    0    0    0  501 -0.00000000000E+00 -0.00000000000E+00 -0.37627491689E+03  0.37627491689E+03  0.00000000000E+00 0.  1.
         23    2    1    2    0    0  0.81318671438E+01 -0.31803440622E+02 -0.26748136227E+03  0.28425369193E+03  0.90422873824E+02 0.  0.
         23    2    1    2    0    0 -0.41874037551E+02 -0.53217606775E+01  0.55263045400E+01  0.10024343900E+03  0.90754894436E+02 0.  0.
        -13    1    4    4    0    0  0.19817038312E+02 -0.33152019628E+01  0.28080112764E+02  0.34528224750E+02  0.00000000000E+00 0.  1.
         13    1    4    4    0    0 -0.61691075863E+02 -0.20065587146E+01 -0.22553808224E+02  0.65715214254E+02  0.00000000000E+00 0. -1.
        -13    1    3    3    0    0 -0.15323972060E+01 -0.51218716764E+02 -0.25309090804E+03  0.25822608877E+03  0.00000000000E+00 0.  1.
         13    1    3    3    0    0  0.96642643498E+01  0.19415276141E+02 -0.14390454235E+02  0.26027603158E+02  0.00000000000E+00 0. -1.
         21    1    1    2  503  501  0.82316492775E+02  0.12616218648E+03  0.12941694429E+03  0.19859921387E+03  0.00000000000E+00 0.  1.
         -1    1    1    2    0  502 -0.48574322368E+02 -0.89036985182E+02  0.12087516979E+03  0.15779054533E+03  0.00000000000E+00 0.  1.
<scales pt_clust_5="13000.00000" pt_clust_6="13000.00000" pt_clust_7="13000.00000" pt_clust_8="13000.00000" pt_clust_9="118.45888" pt_clust_10="13000.00000"></scales>
<clustering>
<clus scale="   90.423">  7  8 -1 -1</clus>
<clus scale="   90.755">  5  6 -1 -1</clus>
<clus scale="   96.197">  2  7  1 -1</clus>
<clus scale="  100.481">  2  5  1 -1</clus>
<clus scale="  118.459">  2  9  1 -1</clus>
<clus scale="  118.459">  1  5  2 -1</clus>
</clustering>
</event>
<event>
10    2  0.6640105E-006  0.1025078E+03  0.7546771E-02  0.1276061E+00
          1   -1    0    0  503    0 -0.00000000000E+00  0.00000000000E+00  0.44211694749E+03  0.44211694749E+03  0.00000000000E+00 0. -1.
         21   -1    0    0  501  502  0.00000000000E+00 -0.00000000000E+00 -0.27431736012E+03  0.27431736012E+03  0.00000000000E+00 0. -1.
         23    2    1    2    0    0  0.46072115796E+02 -0.18948567165E+01  0.36070723880E+03  0.37485154654E+03  0.90982083323E+02 0.  0.
         23    2    1    2    0    0 -0.11965549765E+02 -0.67824651393E+02 -0.15713663935E+02  0.11680936263E+03  0.93027685374E+02 0.  0.
        -11    1    3    3    0    0 -0.29136680104E+00 -0.29884127616E+02  0.41835787741E+02  0.51413802757E+02  0.00000000000E+00 0.  1.
         11    1    3    3    0    0  0.46363482597E+02  0.27989270900E+02  0.31887145106E+03  0.32343774378E+03  0.00000000000E+00 0. -1.
        -13    1    4    4    0    0  0.28936222398E+02 -0.34547786173E+01 -0.26983209889E+02  0.39715665396E+02  0.00000000000E+00 0. -1.
         13    1    4    4    0    0 -0.40901772163E+02 -0.64369872775E+02  0.11269545954E+02  0.77093697234E+02  0.00000000000E+00 0.  1.
         21    1    1    2  503  502 -0.15031470924E+02  0.23708543916E+02 -0.17247216134E+03  0.17474177122E+03  0.00000000000E+00 0. -1.
          1    1    1    2  501    0 -0.19075095107E+02  0.46010964193E+02 -0.47218261518E+01  0.50031627213E+02  0.00000000000E+00 0. -1.
<scales pt_clust_5="13000.00000" pt_clust_6="13000.00000" pt_clust_7="13000.00000" pt_clust_8="13000.00000" pt_clust_9="28.07205" pt_clust_10="57.34154"></scales>
<clustering>
<clus scale="   28.072">  2  9  1 -1</clus>
<clus scale="   57.342">  2 10  1 -1</clus>
<clus scale="   90.982">  5  6 -1 -1</clus>
<clus scale="   93.028">  7  8 -1 -1</clus>
<clus scale="  100.655">  1  5  2 -1</clus>
<clus scale="   28.072">  2  5  1 -1</clus>
</clustering>
</event>
<event>
10    2  0.6640105E-006  0.1193954E+03  0.7546771E-02  0.1245980E+00
         21   -1    0    0  501  502  0.00000000000E+00  0.00000000000E+00  0.10693568897E+03  0.10693568897E+03  0.00000000000E+00 0.  1.
          2   -1    0    0  503    0 -0.00000000000E+00 -0.00000000000E+00 -0.66893879395E+03  0.66893879395E+03  0.00000000000E+00 0. -1.
         23    2    1    2    0    0 -0.27604133915E+01  0.26528496092E+02 -0.31293762657E+03  0.32773644294E+03  0.93647407424E+02 0.  0.
         23    2    1    2    0    0 -0.20745572318E+02 -0.15532029548E+03 -0.30980848362E+02  0.18232888052E+03  0.87916066488E+02 0.  0.
        -11    1    4    4    0    0 -0.30823512744E+02 -0.82425002024E+01 -0.12051673493E+01  0.31929299644E+02  0.00000000000E+00 0.  1.
         11    1    4    4    0    0  0.10077940426E+02 -0.14707779528E+03 -0.29775681013E+02  0.15039958087E+03  0.00000000000E+00 0. -1.
        -11    1    3    3    0    0  0.21203021020E+02 -0.28939692096E+02 -0.14092868069E+03  0.14542340568E+03  0.00000000000E+00 0.  1.
         11    1    3    3    0    0 -0.23963434412E+02  0.55468188188E+02 -0.17200894588E+03  0.18231303725E+03  0.00000000000E+00 0. -1.
         21    1    1    2  503  502  0.44920901872E+02  0.45776616391E+02 -0.11554013630E+03  0.13214730088E+03  0.00000000000E+00 0.  1.
          2    1    1    2  501    0 -0.21414916163E+02  0.83015182998E+02 -0.10254449375E+03  0.13366185859E+03  0.00000000000E+00 0. -1.
<scales pt_clust_5="13000.00000" pt_clust_6="13000.00000" pt_clust_7="13000.00000" pt_clust_8="13000.00000" pt_clust_9="64.13568" pt_clust_10="93.66480"></scales>
<clustering>
<clus scale="   64.136">  2  9  1 -1</clus>
<clus scale="   87.916">  5  6 -1 -1</clus>
<clus scale="   93.647">  7  8 -1 -1</clus>
<clus scale="   93.665">  1 10  2 -1</clus>
<clus scale="  114.955">  1  5  2 -1</clus>
<clus scale="   93.665">  1  5  2 -1</clus>
</clustering>
</event>
<event>
10    2  0.6640105E-006  0.1050922E+03  0.7546771E-02  0.1270589E+00
          2   -1    0    0  503    0 -0.00000000000E+00  0.00000000000E+00  0.18368430322E+03  0.18368430322E+03  0.00000000000E+00 0. -1.
         21   -1    0    0  501  502  0.00000000000E+00 -0.00000000000E+00 -0.40569193349E+03  0.40569193349E+03  0.00000000000E+00 0.  1.
         23    2    1    2    0    0 -0.29054576321E+02 -0.39134986907E+02  0.86096722107E+02  0.13411588399E+03  0.90546723709E+02 0.  0.
         23    2    1    2    0    0  0.45924270154E+02  0.32108092566E+02  0.23518206939E+02  0.11029989245E+03  0.92048856700E+02 0.  0.
        -11    1    4    4    0    0  0.28228542772E+02  0.58177438268E+02 -0.86870704029E+01  0.65245154170E+02  0.00000000000E+00 0.  1.
         11    1    4    4    0    0  0.17695727382E+02 -0.26069345702E+02  0.32205277342E+02  0.45054738281E+02  0.00000000000E+00 0. -1.
        -13    1    3    3    0    0 -0.46633372253E+02 -0.12841102599E+02  0.90072601957E+02  0.10223814820E+03  0.00000000000E+00 0. -1.
         13    1    3    3    0    0  0.17578795932E+02 -0.26293884308E+02 -0.39758798493E+01  0.31877735788E+02  0.00000000000E+00 0.  1.
         21    1    1    2  503  502 -0.47854498082E+02  0.18633018454E+02 -0.27169352415E+03  0.27650427380E+03  0.00000000000E+00 0.  1.
          2    1    1    2  501    0  0.30984804248E+02 -0.11606124113E+02 -0.59929035166E+02  0.68456186478E+02  0.00000000000E+00 0. -1.
<scales pt_clust_5="13000.00000" pt_clust_6="13000.00000" pt_clust_7="13000.00000" pt_clust_8="13000.00000" pt_clust_9="24.80180" pt_clust_10="33.08716"></scales>
<clustering>
<clus scale="   33.087">  2 10  1 -1</clus>
<clus scale="   24.802">  2  9  1 -1</clus>
<clus scale="   90.547">  7  8 -1 -1</clus>
<clus scale="   92.049">  5  6 -1 -1</clus>
<clus scale="  103.779">  1  7  2 -1</clus>
<clus scale="   33.087">  2  5  1 -1</clus>
</clustering>
</event>
<event>
10    2  0.6640105E-006  0.1036019E+03  0.7546771E-02  0.1273789E+00
         21   -1    0    0  501  502  0.00000000000E+00  0.00000000000E+00  0.36634117298E+03  0.36634117298E+03  0.00000000000E+00 0. -1.
         -1   -1    0    0    0  501 -0.00000000000E+00 -0.00000000000E+00 -0.14851253253E+03  0.14851253253E+03  0.00000000000E+00 0.  1.
         23    2    1    2    0    0  0.32379709617E+01 -0.33442308294E+02 -0.50771718457E+02  0.11049537377E+03  0.92209477767E+02 0.  0.
         23    2    1    2    0    0 -0.41630368616E+02  0.62721197311E+02  0.40472301647E+02  0.12715706092E+03  0.94148153230E+02 0.  0.
        -13    1    3    3    0    0 -0.25828136628E+02  0.39683120967E+01 -0.57007990308E+02  0.62711650445E+02  0.00000000000E+00 0. -1.
         13    1    3    3    0    0  0.29066107590E+02 -0.37410620391E+02  0.62362718509E+01  0.47783723328E+02  0.00000000000E+00 0.  1.
        -13    1    4    4    0    0 -0.70028675197E+02  0.30155521379E+02  0.33936450354E+02  0.83456895953E+02  0.00000000000E+00 0.  1.
         13    1    4    4    0    0  0.28398306581E+02  0.32565675932E+02  0.65358512936E+01  0.43700164962E+02  0.00000000000E+00 0. -1.
         21    1    1    2  503  502 -0.21971601565E+02 -0.61802113624E+02  0.18478967075E+03  0.19608537666E+03  0.00000000000E+00 0. -1.
         -1    1    1    2    0  503  0.60363999220E+02  0.32523224606E+02  0.43338386505E+02  0.81115894161E+02  0.00000000000E+00 0.  1.
<scales pt_clust_5="13000.00000" pt_clust_6="13000.00000" pt_clust_7="13000.00000" pt_clust_8="13000.00000" pt_clust_9="65.59156" pt_clust_10="53.66094"></scales>
<clustering>
<clus scale="   65.592">  1  9  2 -1</clus>
<clus scale="   53.661">  1 10  2 -1</clus>
<clus scale="   92.209">  5  6 -1 -1</clus>
<clus scale="   94.148">  7  8 -1 -1</clus>
<clus scale="  101.843">  2  5  1 -1</clus>
<clus scale="   65.592">  1  5  2 -1</clus>
</clustering>
</event>
<event>
10    2  0.6640105E-006  0.1005937E+03  0.7546771E-02  0.1279454E+00
         21   -1    0    0  501  502  0.00000000000E+00  0.00000000000E+00  0.12036573150E+03  0.12036573150E+03  0.00000000000E+00 0.  1.
          4   -1    0    0  503    0 -0.00000000000E+00 -0.00000000000E+00 -0.26506523769E+03  0.26506523769E+03  0.00000000000E+00 0. -1.
         23    2    1    2    0    0  0.17549235526E+02 -0.29455677254E+02 -0.16811481006E+03  0.19569321418E+03  0.94114994157E+02 0.  0.
         23    2    1    2    0    0 -0.30894608494E+01  0.41654387076E+02 -0.36466737186E+02  0.10852874448E+03  0.93295405708E+02 0.  0.
        -11    1    4    4    0    0  0.27367061028E+02  0.49242979588E+02  0.49594048983E+01  0.56554599857E+02  0.00000000000E+00 0.  1.
         11    1    4    4    0    0 -0.30456521877E+02 -0.75885925124E+01 -0.41426142085E+02  0.51974144622E+02  0.00000000000E+00 0. -1.
        -13    1    3    3    0    0  0.33843067056E+02  0.21415599215E+02 -0.10845827156E+03  0.11561651157E+03  0.00000000000E+00 0.  1.
         13    1    3    3    0    0 -0.16293831530E+02 -0.50871276469E+02 -0.59656538496E+02  0.80076702609E+02  0.00000000000E+00 0. -1.
         21    1    1    2  503  502 -0.12719615184E+02  0.18733180961E+02  0.17039160447E+02  0.28338201567E+02  0.00000000000E+00 0.  1.
          4    1    1    2  501    0 -0.17401594932E+01 -0.30931890783E+02  0.42842880601E+02  0.52870808965E+02  0.00000000000E+00 0. -1.
<scales pt_clust_5="13000.00000" pt_clust_6="13000.00000" pt_clust_7="13000.00000" pt_clust_8="13000.00000" pt_clust_9="22.64334" pt_clust_10="23.16836"></scales>
<clustering>
<clus scale="   22.643">  1  9  2 -1</clus>
<clus scale="   23.168">  1 10  2 -1</clus>
<clus scale="   93.295">  5  6 -1 -1</clus>
<clus scale="   94.115">  7  8 -1 -1</clus>
<clus scale="   99.827">  1  5  2 -1</clus>
<clus scale="   22.643">  1  5  2 -1</clus>
</clustering>
</event>
<event>
10    2  0.6640105E-006  0.1555102E+03  0.7546771E-02  0.1211816E+00
          2   -1    0    0  503    0 -0.00000000000E+00  0.00000000000E+00  0.57951445666E+03  0.57951445666E+03  0.00000000000E+00 0. -1.
         21   -1    0    0  501  502  0.00000000000E+00 -0.00000000000E+00 -0.12661070580E+03  0.12661070580E+03  0.00000000000E+00 0. -1.
         23    2    1    2    0    0 -0.42564178296E+02  0.31685308025E+02  0.36574421556E+03  0.38092161553E+03  0.92286390929E+02 0.  0.
         23    2    1    2    0    0 -0.31141449880E+02  0.59079247878E+02  0.89710149386E+02  0.16768395713E+03  0.12493938989E+03 0.  0.
        -13    1    4    4    0    0 -0.35924088452E+01 -0.39213264652E+02  0.20930441412E+02  0.44594494096E+02  0.00000000000E+00 0.  1.
         13    1    4    4    0    0 -0.27549041035E+02  0.98292512531E+02  0.68779707974E+02  0.12308946304E+03  0.00000000000E+00 0. -1.
        -13    1    3    3    0    0 -0.37950512504E+02 -0.27242512973E+02  0.14116583066E+03  0.14869494833E+03  0.00000000000E+00 0. -1.
         13    1    3    3    0    0 -0.46136657915E+01  0.58927820998E+02  0.22457838489E+03  0.23222666721E+03  0.00000000000E+00 0.  1.
         21    1    1    2  503  502  0.35460047897E+02  0.85163961979E+01 -0.30472484894E+02  0.47523850188E+02  0.00000000000E+00 0. -1.
          2    1    1    2  501    0  0.38245580279E+02 -0.99280952101E+02  0.27921870811E+02  0.10999573960E+03  0.00000000000E+00 0. -1.
<scales pt_clust_5="13000.00000" pt_clust_6="13000.00000" pt_clust_7="13000.00000" pt_clust_8="13000.00000" pt_clust_9="36.46840" pt_clust_10="92.59362"></scales>
<clustering>
<clus scale="   36.468">  2  9  1 -1</clus>
<clus scale="   92.286">  7  8 -1 -1</clus>
<clus scale="  105.488">  1  7  2 -1</clus>
<clus scale="   92.594">  2 10  1 -1</clus>
<clus scale="  124.939">  5  6 -1 -1</clus>
<clus scale="   36.468">  2  5  1 -1</clus>
</clustering>
</event>
<event>
10    2  0.6640105E-006  0.2532729E+03  0.7546771E-02  0.1150293E+00
          2   -1    0    0  503    0 -0.00000000000E+00  0.00000000000E+00  0.38873139680E+03  0.38873139680E+03  0.00000000000E+00 0. -1.
         21   -1    0    0  501  502  0.00000000000E+00 -0.00000000000E+00 -0.60956413378E+03  0.60956413378E+03  0.00000000000E+00 0.  1.
         23    2    1    2    0    0  0.33579311739E+02 -0.10237094943E+02 -0.54215910887E+02  0.11129546190E+03  0.90636342364E+02 0.  0.
         23    2    1    2    0    0  0.20279490441E+03  0.15851699852E+03  0.22978821195E+02  0.27390790377E+03  0.90797034377E+02 0.  0.
        -13    1    4    4    0    0  0.53952137112E+02  0.63005457615E+02  0.47148023936E+02  0.95412037759E+02  0.00000000000E+00 0. -1.
         13    1    4    4    0    0  0.14884276730E+03  0.95511540900E+02 -0.24169202741E+02  0.17849586601E+03  0.00000000000E+00 0.  1.
        -13    1    3    3    0    0 -0.27192510605E+02  0.19080102394E+00  0.27714878173E+01  0.27334048049E+02  0.00000000000E+00 0. -1.
         13    1    3    3    0    0  0.60771822344E+02 -0.10427895967E+02 -0.56987398704E+02  0.83961413854E+02  0.00000000000E+00 0.  1.
         21    1    1    2  503  502  0.25263815929E+02 -0.19745421575E+03 -0.26958511957E+03  0.33511574777E+03  0.00000000000E+00 0.  1.
          2    1    1    2  501    0 -0.26163803208E+03  0.49174312177E+02  0.79989472276E+02  0.27797641714E+03  0.00000000000E+00 0. -1.
<scales pt_clust_5="13000.00000" pt_clust_6="13000.00000" pt_clust_7="13000.00000" pt_clust_8="13000.00000" pt_clust_9="200.39640" pt_clust_10="236.43842"></scales>
<clustering>
<clus scale="   90.636">  7  8 -1 -1</clus>
<clus scale="   90.797">  5  6 -1 -1</clus>
<clus scale="   97.197">  1  7  2 -1</clus>
<clus scale="  200.396">  2  9  1 -1</clus>
<clus scale="  236.438">  2 10  1 -1</clus>
<clus scale="  200.396">  2  5  1 -1</clus>
</clustering>
</event>
<event>
10    2  0.6640105E-006  0.1120935E+03  0.7546771E-02  0.1257711E+00
         -2   -1    0    0    0  501 -0.00000000000E+00  0.00000000000E+00  0.44042783375E+03  0.44042783375E+03  0.00000000000E+00 0.  1.
         21   -1    0    0  503  502  0.00000000000E+00 -0.00000000000E+00 -0.35341569258E+03  0.35341569258E+03  0.00000000000E+00 0. -1.
         23    2    1    2    0    0  0.56765177472E+02  0.26465248512E+02  0.39756441683E+03  0.41225246332E+03  0.89285683257E+02 0.  0.
         23    2    1    2    0    0 -0.11442196009E+03 -0.15420896582E+02 -0.19234292489E+03  0.24242475532E+03  0.91890000726E+02 0.  0.
        -11    1    3    3    0    0  0.79535179085E+02  0.23128150693E+02  0.26301801598E+03  0.27575212202E+03  0.00000000000E+00 0. -1.
         11    1    3    3    0    0 -0.22770001613E+02  0.33370978187E+01  0.13454640085E+03  0.13650034130E+03  0.00000000000E+00 0.  1.
        -11    1    4    4    0    0 -0.65645557554E+02  0.37432223034E+02 -0.10231616381E+03  0.12719712231E+03  0.00000000000E+00 0.  1.
         11    1    4    4    0    0 -0.48776402534E+02 -0.52853119616E+02 -0.90026761086E+02  0.11522763301E+03  0.00000000000E+00 0. -1.
         21    1    1    2  503  501  0.25152558960E+02  0.12773910150E+02 -0.25295871583E+02  0.37890699676E+02  0.00000000000E+00 0.  1.
         -2    1    1    2    0  502  0.32504223656E+02 -0.23818262080E+02 -0.92913479188E+02  0.10127560802E+03  0.00000000000E+00 0.  1.
<scales pt_clust_5="13000.00000" pt_clust_6="13000.00000" pt_clust_7="13000.00000" pt_clust_8="13000.00000" pt_clust_9="28.21035" pt_clust_10="44.78848"></scales>
<clustering>
<clus scale="   28.210">  2  9  1 -1</clus>
<clus scale="   44.788">  2 10  1 -1</clus>
<clus scale="   89.286">  5  6 -1 -1</clus>
<clus scale="   91.890">  7  8 -1 -1</clus>
<clus scale="  109.969">  1  5  2 -1</clus>
<clus scale="   28.210">  2  5  1 -1</clus>
</clustering>
</event>
<event>
10    2  0.6640105E-006  0.1175634E+03  0.7546771E-02  0.1247989E+00
         21   -1    0    0  501  502  0.00000000000E+00  0.00000000000E+00  0.12457032432E+03  0.12457032432E+03  0.00000000000E+00 0. -1.
          2   -1    0    0  503    0 -0.00000000000E+00 -0.00000000000E+00 -0.42385435167E+03  0.42385435167E+03  0.00000000000E+00 0. -1.
         23    2    1    2    0    0 -0.47916455238E+02  0.59550138404E+02 -0.26527656842E+03  0.29133128901E+03  0.93059424754E+02 0.  0.
         23    2    1    2    0    0  0.76833404303E+02 -0.85017100762E+01 -0.85348236457E+02  0.14654133976E+03  0.90633281429E+02 0.  0.
        -11    1    4    4    0    0  0.43538237808E+02 -0.49405922054E+02 -0.40503050076E+02  0.77311191628E+02  0.00000000000E+00 0. -1.
         11    1    4    4    0    0  0.33295166494E+02  0.40904211978E+02 -0.44845186381E+02  0.69230148136E+02  0.00000000000E+00 0.  1.
        -11    1    3    3    0    0  0.62438696132E+01  0.65431582664E+02 -0.13628865880E+03  0.15131052982E+03  0.00000000000E+00 0. -1.
         11    1    3    3    0    0 -0.54160324851E+02 -0.58814442603E+01 -0.12898790962E+03  0.14002075919E+03  0.00000000000E+00 0.  1.
         21    1    1    2  503  502  0.41805868457E+01 -0.25523899330E+02  0.62204082751E+02  0.67366866145E+02  0.00000000000E+00 0. -1.
          2    1    1    2  501    0 -0.33097535911E+02 -0.25524528998E+02 -0.10863305212E+02  0.43185181070E+02  0.00000000000E+00 0. -1.
<scales pt_clust_5="13000.00000" pt_clust_6="13000.00000" pt_clust_7="13000.00000" pt_clust_8="13000.00000" pt_clust_9="25.86400" pt_clust_10="45.53285"></scales>
<clustering>
<clus scale="   25.864">  1  9  2 -1</clus>
<clus scale="   45.533">  1 10  2 -1</clus>
<clus scale="   90.633">  5  6 -1 -1</clus>
<clus scale="   93.059">  7  8 -1 -1</clus>
<clus scale="  115.652">  1  5  2 -1</clus>
<clus scale="   25.864">  1  5  2 -1</clus>
</clustering>
</event>
<event>
10    2  0.6640105E-006  0.1003156E+03  0.7546771E-02  0.1279828E+00
          2   -1    0    0  503    0 -0.00000000000E+00  0.00000000000E+00  0.65456557834E+03  0.65456557834E+03  0.00000000000E+00 0. -1.
         21   -1    0    0  501  502  0.00000000000E+00 -0.00000000000E+00 -0.50191093612E+02  0.50191093612E+02  0.00000000000E+00 0.  1.
         23    2    1    2    0    0 -0.33518963650E+02  0.26597446893E+02  0.39553832926E+03  0.40803173665E+03  0.90600127447E+02 0.  0.
         23    2    1    2    0    0  0.52578335662E+02  0.84958671833E+01  0.11732256201E+03  0.15774568031E+03  0.91007993934E+02 0.  0.
        -11    1    3    3    0    0  0.23499130880E+02  0.29585710211E+02  0.97321007156E+02  0.10439780570E+03  0.00000000000E+00 0.  1.
         11    1    3    3    0    0 -0.57018094530E+02 -0.29882633177E+01  0.29821732210E+03  0.30363393095E+03  0.00000000000E+00 0. -1.
        -13    1    4    4    0    0  0.75099603955E+02  0.20372156119E+02  0.73358990677E+02  0.10694165125E+03  0.00000000000E+00 0.  1.
         13    1    4    4    0    0 -0.22521268292E+02 -0.11876288935E+02  0.43963571335E+02  0.50804029062E+02  0.00000000000E+00 0. -1.
         21    1    1    2  503  502  0.14636376021E+02 -0.47898617810E+02  0.11744334939E+02  0.51443468917E+02  0.00000000000E+00 0.  1.
          2    1    1    2  501    0 -0.33695748033E+02  0.12805303733E+02  0.79769258518E+02  0.87535786075E+02  0.00000000000E+00 0. -1.
<scales pt_clust_5="13000.00000" pt_clust_6="13000.00000" pt_clust_7="13000.00000" pt_clust_8="13000.00000" pt_clust_9="42.41014" pt_clust_10="36.04692"></scales>
<clustering>
<clus scale="   36.047">  2 10  1 -1</clus>
<clus scale="   42.410">  2  9  1 -1</clus>
<clus scale="   90.600">  5  6 -1 -1</clus>
<clus scale="   91.008">  7  8 -1 -1</clus>
<clus scale="   99.946">  1  5  2 -1</clus>
<clus scale="   36.047">  2  5  1 -1</clus>
</clustering>
</event>
<event>
10    2  0.6640105E-006  0.1753370E+03  0.7546771E-02  0.1172523E+00
          2   -1    0    0  503    0 -0.00000000000E+00  0.00000000000E+00  0.14081685580E+04  0.14081685580E+04  0.00000000000E+00 0. -1.
         21   -1    0    0  501  502  0.00000000000E+00 -0.00000000000E+00 -0.22166334364E+03  0.22166334364E+03  0.00000000000E+00 0. -1.
         23    2    1    2    0    0 -0.56722893305E+01  0.12746896723E+03  0.69769107249E+03  0.71510111915E+03  0.91193560710E+02 0.  0.
         23    2    1    2    0    0  0.10165434539E+03 -0.19795738456E+03  0.58485327286E+03  0.63222571672E+03  0.90195754155E+02 0.  0.
        -11    1    3    3    0    0  0.31188880386E+02  0.12471391975E+02  0.10534111325E+03  0.11056686672E+03  0.00000000000E+00 0.  1.
         11    1    3    3    0    0 -0.36861169716E+02  0.11499757526E+03  0.59234995924E+03  0.60453425243E+03  0.00000000000E+00 0. -1.
        -13    1    4    4    0    0 -0.13263021882E+02 -0.25446809460E+02  0.39619799902E+02  0.48920102263E+02  0.00000000000E+00 0.  1.
         13    1    4    4    0    0  0.11491736728E+03 -0.17251057510E+03  0.54523347295E+03  0.58330561445E+03  0.00000000000E+00 0. -1.
         21    1    1    2  503  502 -0.45337270013E+02 -0.36138390928E+02 -0.14389044594E+03  0.15513191736E+03  0.00000000000E+00 0. -1.
          2    1    1    2  501    0 -0.50644786051E+02  0.10662680825E+03  0.47851314960E+02  0.12737314841E+03  0.00000000000E+00 0. -1.
<scales pt_clust_5="13000.00000" pt_clust_6="13000.00000" pt_clust_7="13000.00000" pt_clust_8="13000.00000" pt_clust_9="57.97802" pt_clust_10="115.05951"></scales>
<clustering>
<clus scale="   57.978">  2  9  1 -1</clus>
<clus scale="   90.196">  7  8 -1 -1</clus>
<clus scale="   91.194">  5  6 -1 -1</clus>
<clus scale="  115.060">  2 10  1 -1</clus>
<clus scale="  174.820">  2  7  1 -1</clus>
<clus scale="   57.978">  2  5  1 -1</clus>
</clustering>
</event>
<event>
10    2  0.1043958E-005  0.1530006E+03  0.7546771E-02  0.1205994E+00
         -1   -1    0    0    0  501 -0.00000000000E+00  0.00000000000E+00  0.52758963325E+03  0.52758963325E+03  0.00000000000E+00 0.  1.
         21   -1    0    0  501  502  0.00000000000E+00 -0.00000000000E+00 -0.31361336808E+03  0.31361336808E+03  0.00000000000E+00 0.  1.
         23    2    1    2    0    0 -0.87592290215E+02 -0.18929577877E+02  0.47387241378E+03  0.49001960945E+03  0.86795246912E+02 0.  0.
         23    2    1    2    0    0  0.12002509880E+03 -0.18423003579E+02 -0.15467182660E+03  0.23210406780E+03  0.12330244501E+03 0.  0.
        -11    1    3    3    0    0 -0.84171783814E+02 -0.44453177723E+02  0.41473367962E+03  0.42551733127E+03  0.00000000000E+00 0.  1.
         11    1    3    3    0    0 -0.34205064009E+01  0.25523599846E+02  0.59138734158E+02  0.64502278184E+02  0.00000000000E+00 0. -1.
        -13    1    4    4    0    0  0.14238126466E+03 -0.32732352332E+02 -0.13646608167E+03  0.19991703995E+03  0.00000000000E+00 0.  1.
         13    1    4    4    0    0 -0.22356165859E+02  0.14309348753E+02 -0.18205744930E+02  0.32187027855E+02  0.00000000000E+00 0. -1.
         21    1    1    2  503  502 -0.21782774076E+02  0.85217939917E+01 -0.60014300896E+02  0.64411385106E+02  0.00000000000E+00 0.  1.
         -1    1    1    2    0  503 -0.10650034514E+02  0.28830787464E+02 -0.45210021114E+02  0.54667938959E+02  0.00000000000E+00 0.  1.
<scales pt_clust_5="13000.00000" pt_clust_6="13000.00000" pt_clust_7="13000.00000" pt_clust_8="13000.00000" pt_clust_9="22.42229" pt_clust_10="55.74700"></scales>
<clustering>
<clus scale="   22.422">  9 10 -1 -1</clus>
<clus scale="   55.747">  2  9  1 -1</clus>
<clus scale="   86.795">  5  6 -1 -1</clus>
<clus scale="  123.302">  7  8 -1 -1</clus>
<clus scale="  125.456">  1  5  2 -1</clus>
<clus scale="   55.747">  2  5  1 -1</clus>
</clustering>
</event>
<event>
10    2  0.6640105E-006  0.2443521E+03  0.7546771E-02  0.1117003E+00
          1   -1    0    0  503    0 -0.00000000000E+00  0.00000000000E+00  0.11498570307E+04  0.11498570307E+04  0.00000000000E+00 0. -1.
         21   -1    0    0  501  502  0.00000000000E+00 -0.00000000000E+00 -0.53854585911E+03  0.53854585911E+03  0.00000000000E+00 0.  1.
         23    2    1    2    0    0  0.17890795356E+03  0.15232080657E+03  0.94458940689E+03  0.97770980700E+03  0.91965401807E+02 0.  0.
         23    2    1    2    0    0 -0.15527238951E+03 -0.11632832677E+03  0.11879981492E+03  0.24491918403E+03  0.90720538607E+02 0.  0.
        -11    1    3    3    0    0  0.14816597769E+03  0.68890489583E+02  0.61615635401E+03  0.63745408391E+03  0.00000000000E+00 0. -1.
         11    1    3    3    0    0  0.30741975865E+02  0.83430316989E+02  0.32843305288E+03  0.34025572309E+03  0.00000000000E+00 0.  1.
        -13    1    4    4    0    0 -0.24073853273E+02 -0.45177622086E+02 -0.44130681110E+01  0.51381349914E+02  0.00000000000E+00 0. -1.
         13    1    4    4    0    0 -0.13119853624E+03 -0.71150704683E+02  0.12321288303E+03  0.19353783411E+03  0.00000000000E+00 0.  1.
         21    1    1    2  503  502 -0.53211373220E+02 -0.18249020958E+02 -0.39573023623E+03  0.39970851488E+03  0.00000000000E+00 0.  1.
          1    1    1    2  501    0  0.29575809177E+02 -0.17743458845E+02 -0.56347813941E+02  0.66065383948E+02  0.00000000000E+00 0. -1.
<scales pt_clust_5="13000.00000" pt_clust_6="13000.00000" pt_clust_7="13000.00000" pt_clust_8="13000.00000" pt_clust_9="43.67318" pt_clust_10="34.48998"></scales>
<clustering>
<clus scale="   34.490">  2 10  1 -1</clus>
<clus scale="   43.673">  2  9  1 -1</clus>
<clus scale="   90.721">  7  8 -1 -1</clus>
<clus scale="   91.965">  5  6 -1 -1</clus>
<clus scale="  243.886">  2  7  1 -1</clus>
<clus scale="   34.490">  2  5  1 -1</clus>
</clustering>
</event>
<event>
10    2  0.6640105E-006  0.1005072E+03  0.7546771E-02  0.1280398E+00
         21   -1    0    0  503  502  0.00000000000E+00  0.00000000000E+00  0.50221267882E+03  0.50221267882E+03  0.00000000000E+00 0.  1.
         -1   -1    0    0    0  501 -0.00000000000E+00 -0.00000000000E+00 -0.21495550940E+03  0.21495550940E+03  0.00000000000E+00 0.  1.
         23    2    1    2    0    0  0.41660071667E+02 -0.36869730917E+02 -0.16055933333E+03  0.19138237682E+03  0.88050985278E+02 0.  0.
         23    2    1    2    0    0  0.10229255393E+02 -0.53005518024E+02  0.84515727803E+02  0.13508731932E+03  0.90506646096E+02 0.  0.
        -11    1    3    3    0    0  0.65311212646E+01 -0.28342037627E+02 -0.15129453964E+03  0.15406480574E+03  0.00000000000E+00 0.  1.
         11    1    3    3    0    0  0.35128950403E+02 -0.85276932904E+01 -0.92647936880E+01  0.37317571080E+02  0.00000000000E+00 0. -1.
        -11    1    4    4    0    0  0.71523108983E+01 -0.78495970449E+02  0.70940287380E+02  0.10604384613E+03  0.00000000000E+00 0.  1.
         11    1    4    4    0    0  0.30769444948E+01  0.25490452425E+02  0.13575440423E+02  0.29043473190E+02  0.00000000000E+00 0. -1.
         21    1    1    2  503  501 -0.24775443803E+02  0.48166660224E+01  0.11480072201E+02  0.27727512419E+02  0.00000000000E+00 0.  1.
         -1    1    1    2    0  502 -0.27113883258E+02  0.85058582919E+02  0.35182070275E+03  0.36297097967E+03  0.00000000000E+00 0.  1.
<scales pt_clust_5="13000.00000" pt_clust_6="13000.00000" pt_clust_7="13000.00000" pt_clust_8="13000.00000" pt_clust_9="25.23931" pt_clust_10="99.60534"></scales>
<clustering>
<clus scale="   25.239">  1  9  2 -1</clus>
<clus scale="   88.051">  5  6 -1 -1</clus>
<clus scale="   90.507">  7  8 -1 -1</clus>
<clus scale="   99.605">  1 10  2 -1</clus>
<clus scale="   98.302">  2  5  1 -1</clus>
<clus scale="   25.239">  1  5  2 -1</clus>
</clustering>
</event>
<event>
10    2  0.6640105E-006  0.9415460E+02  0.7546771E-02  0.1293969E+00
         21   -1    0    0  501  502  0.00000000000E+00  0.00000000000E+00  0.37343691196E+03  0.37343691196E+03  0.00000000000E+00 0. -1.
          2   -1    0    0  503    0 -0.00000000000E+00 -0.00000000000E+00 -0.75269873457E+03  0.75269873457E+03  0.00000000000E+00 0. -1.
         23    2    1    2    0    0 -0.72080892918E+01  0.33911086051E+02 -0.37033373533E+03  0.38244831135E+03  0.88981554378E+02 0.  0.
         23    2    1    2    0    0  0.51578372200E+02  0.27410475711E+02 -0.18548974752E+03  0.21452464024E+03  0.90568825630E+02 0.  0.
        -11    1    3    3    0    0 -0.33899320044E+02  0.52812985932E+02 -0.24825468415E+03  0.25606398338E+03  0.00000000000E+00 0. -1.
         11    1    3    3    0    0  0.26691230752E+02 -0.18901899881E+02 -0.12207905118E+03  0.12638432797E+03  0.00000000000E+00 0.  1.
        -11    1    4    4    0    0  0.77417090781E+02  0.19156947515E+02 -0.12563444307E+03  0.14880997234E+03  0.00000000000E+00 0.  1.
         11    1    4    4    0    0 -0.25838718581E+02  0.82535281954E+01 -0.59855304453E+02  0.65714667896E+02  0.00000000000E+00 0. -1.
         21    1    1    2  503  502 -0.73132134374E+02 -0.42912889019E+02  0.34604049286E+03  0.35627776779E+03  0.00000000000E+00 0. -1.
          2    1    1    2  501    0  0.28761851465E+02 -0.18408672743E+02 -0.16947883261E+03  0.17288492715E+03  0.00000000000E+00 0. -1.
<scales pt_clust_5="13000.00000" pt_clust_6="13000.00000" pt_clust_7="13000.00000" pt_clust_8="13000.00000" pt_clust_9="75.82174" pt_clust_10="34.14857"></scales>
<clustering>
<clus scale="   34.149">  1 10  2 -1</clus>
<clus scale="   75.822">  1  9  2 -1</clus>
<clus scale="   88.982">  5  6 -1 -1</clus>
<clus scale="   90.569">  7  8 -1 -1</clus>
<clus scale="   92.629">  2  5  1 -1</clus>
<clus scale="   34.149">  1  5  2 -1</clus>
</clustering>
</event>
<event>
10    2  0.6640105E-006  0.3300972E+03  0.7546771E-02  0.1071099E+00
         21   -1    0    0  503  502  0.00000000000E+00  0.00000000000E+00  0.25536179517E+03  0.25536179517E+03  0.00000000000E+00 0. -1.
          2   -1    0    0  502    0 -0.00000000000E+00 -0.00000000000E+00 -0.84407807112E+03  0.84407807112E+03  0.00000000000E+00 0. -1.
         23    2    1    2    0    0 -0.14082751642E+02  0.37688527742E+03 -0.45408912650E+03  0.59723042792E+03  0.90809762674E+02 0.  0.
         23    2    1    2    0    0  0.12181446821E+03 -0.23043679870E+03 -0.12869392131E+03  0.30449334064E+03  0.90632148019E+02 0.  0.
        -11    1    4    4    0    0  0.31180177937E+02 -0.83919705454E+02 -0.12670875284E+00  0.89525060820E+02  0.00000000000E+00 0.  1.
         11    1    4    4    0    0  0.90634290270E+02 -0.14651709324E+03 -0.12856721255E+03  0.21496827982E+03  0.00000000000E+00 0. -1.
        -13    1    3    3    0    0  0.28339745171E+02  0.13462544027E+03 -0.20742385391E+03  0.24890119625E+03  0.00000000000E+00 0.  1.
         13    1    3    3    0    0 -0.42422496813E+02  0.24225983716E+03 -0.24666527259E+03  0.34832923167E+03  0.00000000000E+00 0. -1.
         21    1    1    2  503  501 -0.84008970050E+01 -0.67740679245E+02 -0.17464811321E+02  0.70458458183E+02  0.00000000000E+00 0.  1.
          2    1    1    2  501    0 -0.99330819561E+02 -0.78707799480E+02  0.11531583166E+02  0.12725763955E+03  0.00000000000E+00 0. -1.
<scales pt_clust_5="13000.00000" pt_clust_6="13000.00000" pt_clust_7="13000.00000" pt_clust_8="13000.00000" pt_clust_9="56.86245" pt_clust_10="197.62705"></scales>
<clustering>
<clus scale="   56.862">  9 10 -1 -1</clus>
<clus scale="   90.632">  5  6 -1 -1</clus>
<clus scale="   90.810">  7  8 -1 -1</clus>
<clus scale="  197.627">  1  9  2 -1</clus>
<clus scale="  330.048">  1  5  2 -1</clus>
<clus scale="  197.627">  1  5  2 -1</clus>
</clustering>
</event>
<event>
10    2  0.6640105E-006  0.2283378E+03  0.7546771E-02  0.1128081E+00
          1   -1    0    0  503    0 -0.00000000000E+00  0.00000000000E+00  0.95332106577E+03  0.95332106577E+03  0.00000000000E+00 0. -1.
         21   -1    0    0  501  502  0.00000000000E+00 -0.00000000000E+00 -0.30713702598E+03  0.30713702598E+03  0.00000000000E+00 0. -1.
         23    2    1    2    0    0 -0.21895689833E+03 -0.39643480602E+02  0.62733106280E+03  0.67179395008E+03  0.90824666959E+02 0.  0.
         23    2    1    2    0    0  0.17859318311E+03  0.46848445381E+02  0.26447019358E+03  0.33610049662E+03  0.94492108908E+02 0.  0.
        -13    1    4    4    0    0  0.43648668741E+02 -0.14108513015E+02  0.19476918415E+02  0.49835798110E+02  0.00000000000E+00 0. -1.
         13    1    4    4    0    0  0.13494451437E+03  0.60956958395E+02  0.24499327516E+03  0.28626469851E+03  0.00000000000E+00 0.  1.
        -13    1    3    3    0    0 -0.47327680273E+02 -0.25672158022E+02  0.69055175779E+02  0.87564755007E+02  0.00000000000E+00 0.  1.
         13    1    3    3    0    0 -0.17162921806E+03 -0.13971322580E+02  0.55827588702E+03  0.58422919508E+03  0.00000000000E+00 0. -1.
         21    1    1    2  503  502  0.19392464658E+02 -0.23665158977E+02 -0.10188006716E+03  0.10637507001E+03  0.00000000000E+00 0. -1.
          1    1    1    2  501    0  0.20971250563E+02  0.16460194199E+02 -0.14373714943E+03  0.14618857503E+03  0.00000000000E+00 0. -1.
<scales pt_clust_5="13000.00000" pt_clust_6="13000.00000" pt_clust_7="13000.00000" pt_clust_8="13000.00000" pt_clust_9="35.37140" pt_clust_10="26.65955"></scales>
<clustering>
<clus scale="   26.660">  2 10  1 -1</clus>
<clus scale="   35.371">  2  9  1 -1</clus>
<clus scale="   90.825">  7  8 -1 -1</clus>
<clus scale="   94.492">  5  6 -1 -1</clus>
<clus scale="  226.845">  1  7  2 -1</clus>
<clus scale="   26.660">  2  5  1 -1</clus>
</clustering>
</event>
<event>
10    2  0.6640105E-006  0.1060214E+03  0.7546771E-02  0.1268876E+00
         21   -1    0    0  503  502  0.00000000000E+00  0.00000000000E+00  0.27492490775E+02  0.27492490775E+02  0.00000000000E+00 0. -1.
          1   -1    0    0  502    0 -0.00000000000E+00 -0.00000000000E+00 -0.70345062486E+03  0.70345062486E+03  0.00000000000E+00 0. -1.
         23    2    1    2    0    0 -0.29131882946E+02 -0.33827828924E+02 -0.31455997560E+03  0.33064228947E+03  0.91560672355E+02 0.  0.
         23    2    1    2    0    0  0.46453233273E+02  0.47554910364E+02 -0.25186670973E+03  0.27552688550E+03  0.89771113293E+02 0.  0.
        -11    1    3    3    0    0  0.26262732593E+02 -0.29063689124E+02 -0.73862617141E+02  0.83606909760E+02  0.00000000000E+00 0. -1.
         11    1    3    3    0    0 -0.55394615538E+02 -0.47641397998E+01 -0.24069735846E+03  0.24703537971E+03  0.00000000000E+00 0.  1.
        -13    1    4    4    0    0  0.52966589351E+02 -0.66283310074E+01 -0.16004024301E+03  0.16870765763E+03  0.00000000000E+00 0.  1.
         13    1    4    4    0    0 -0.65133560780E+01  0.54183241372E+02 -0.91826466713E+02  0.10681922787E+03  0.00000000000E+00 0. -1.
         21    1    1    2  503  501 -0.16502352366E+02  0.17988353092E+02 -0.27235192469E+02  0.36574091778E+02  0.00000000000E+00 0. -1.
          1    1    1    2  501    0 -0.81899796160E+00 -0.31715434532E+02 -0.82296256292E+02  0.88199848893E+02  0.00000000000E+00 0. -1.
<scales pt_clust_5="13000.00000" pt_clust_6="13000.00000" pt_clust_7="13000.00000" pt_clust_8="13000.00000" pt_clust_9="24.41124" pt_clust_10="29.53695"></scales>
<clustering>
<clus scale="   24.411">  1  9  2 -1</clus>
<clus scale="   29.537">  1 10  2 -1</clus>
<clus scale="   89.771">  7  8 -1 -1</clus>
<clus scale="   91.561">  5  6 -1 -1</clus>
<clus scale="  104.480">  1  7  2 -1</clus>
<clus scale="   24.411">  1  5  2 -1</clus>
</clustering>
</event>
<event>
10    2  0.6640105E-006  0.3599794E+03  0.7546771E-02  0.1102476E+00
         21   -1    0    0  501  502  0.00000000000E+00  0.00000000000E+00  0.31167034775E+03  0.31167034775E+03  0.00000000000E+00 0. -1.
          2   -1    0    0  503    0 -0.00000000000E+00 -0.00000000000E+00 -0.14664724437E+04  0.14664724437E+04  0.00000000000E+00 0. -1.
         23    2    1    2    0    0  0.55459278775E+02 -0.36482882528E+02 -0.39942018819E+03  0.41492237363E+03  0.90649639195E+02 0.  0.
         23    2    1    2    0    0 -0.16813772929E+03  0.29420246384E+03 -0.23819230959E+03  0.42386218556E+03  0.89989945314E+02 0.  0.
        -11    1    4    4    0    0 -0.10032685778E+03  0.20217939804E+03 -0.10677129120E+03  0.24968399229E+03  0.00000000000E+00 0. -1.
         11    1    4    4    0    0 -0.67810871507E+02  0.92023065802E+02 -0.13142101839E+03  0.17417819326E+03  0.00000000000E+00 0.  1.
        -13    1    3    3    0    0  0.71829459729E+02 -0.38738076600E+00 -0.28148306702E+03  0.29050359441E+03  0.00000000000E+00 0.  1.
         13    1    3    3    0    0 -0.16370180954E+02 -0.36095501762E+02 -0.11793712117E+03  0.12441877922E+03  0.00000000000E+00 0. -1.
         21    1    1    2  503  502 -0.56887294752E+02  0.19017264703E+02  0.16951787591E+03  0.17981693722E+03  0.00000000000E+00 0. -1.
          2    1    1    2  501    0  0.16956574527E+03 -0.27673684601E+03 -0.68670747403E+03  0.75954129499E+03  0.00000000000E+00 0. -1.
<scales pt_clust_5="13000.00000" pt_clust_6="13000.00000" pt_clust_7="13000.00000" pt_clust_8="13000.00000" pt_clust_9="59.98184" pt_clust_10="348.55001"></scales>
<clustering>
<clus scale="   59.982">  1  9  2 -1</clus>
<clus scale="   89.990">  5  6 -1 -1</clus>
<clus scale="   90.650">  7  8 -1 -1</clus>
<clus scale="  110.454">  2  7  1 -1</clus>
<clus scale="  348.550">  1 10  2 -1</clus>
<clus scale="   59.982">  1  5  2 -1</clus>
</clustering>
</event>
<event>
10    2  0.6640105E-006  0.2807067E+03  0.7546771E-02  0.1130620E+00
         21   -1    0    0  501  502  0.00000000000E+00  0.00000000000E+00  0.32076253426E+03  0.32076253426E+03  0.00000000000E+00 0. -1.
          2   -1    0    0  503    0 -0.00000000000E+00 -0.00000000000E+00 -0.57491485737E+03  0.57491485737E+03  0.00000000000E+00 0.  1.
         23    2    1    2    0    0 -0.59631083504E+02 -0.40362876912E+02 -0.21762284922E+03  0.24656452892E+03  0.90825846898E+02 0.  0.
         23    2    1    2    0    0  0.28090922773E+03 -0.97388911997E+01 -0.10739606144E+02  0.29532446283E+03  0.89979769830E+02 0.  0.
        -11    1    4    4    0    0  0.24006251623E+03 -0.15266160576E+02 -0.41228216187E+02  0.24405497980E+03  0.00000000000E+00 0. -1.
         11    1    4    4    0    0  0.40846711502E+02  0.55272693767E+01  0.30488610043E+02  0.51269483025E+02  0.00000000000E+00 0.  1.
        -13    1    3    3    0    0 -0.29992008838E+02 -0.60292222884E+02 -0.18948762194E+03  0.20109756737E+03  0.00000000000E+00 0.  1.
         13    1    3    3    0    0 -0.29639074666E+02  0.19929345972E+02 -0.28135227278E+02  0.45466961543E+02  0.00000000000E+00 0. -1.
         21    1    1    2  503  502  0.21418157201E+02  0.25149774012E+02  0.80990829852E+02  0.87468640728E+02  0.00000000000E+00 0. -1.
          2    1    1    2  501    0 -0.24269630143E+03  0.24951994100E+02 -0.10678069760E+03  0.26631975915E+03  0.00000000000E+00 0.  1.
<scales pt_clust_5="13000.00000" pt_clust_6="13000.00000" pt_clust_7="13000.00000" pt_clust_8="13000.00000" pt_clust_9="33.03405" pt_clust_10="265.89460"></scales>
<clustering>
<clus scale="   33.034">  1  9  2 -1</clus>
<clus scale="   89.980">  5  6 -1 -1</clus>
<clus scale="   90.826">  7  8 -1 -1</clus>
<clus scale="  114.708">  2  7  1 -1</clus>
<clus scale="  265.895">  1 10  2 -1</clus>
<clus scale="   33.034">  1  5  2 -1</clus>
</clustering>
</event>
<event>
10    2  0.6640105E-006  0.1675423E+03  0.7546771E-02  0.1204407E+00
          2   -1    0    0  503    0 -0.00000000000E+00  0.00000000000E+00  0.37172432003E+03  0.37172432003E+03  0.00000000000E+00 0. -1.
         21   -1    0    0  501  502  0.00000000000E+00 -0.00000000000E+00 -0.17663702314E+03  0.17663702314E+03  0.00000000000E+00 0.  1.
         23    2    1    2    0    0  0.24827624040E+01  0.38492758774E+02  0.13754475811E+03  0.17012455933E+03  0.92390197613E+02 0.  0.
         23    2    1    2    0    0  0.11631518276E+03  0.30620940263E+02  0.70772192171E+02  0.16860364224E+03  0.94613007925E+02 0.  0.
        -11    1    4    4    0    0  0.44246786449E+01 -0.25379524683E+02  0.20316920828E+01  0.25842326269E+02  0.00000000000E+00 0.  1.
         11    1    4    4    0    0  0.11189050412E+03  0.56000464947E+02  0.68740500089E+02  0.14276131597E+03  0.00000000000E+00 0. -1.
        -13    1    3    3    0    0  0.29610391329E+02 -0.19314135627E+02  0.38398681084E+02  0.52194538207E+02  0.00000000000E+00 0.  1.
         13    1    3    3    0    0 -0.27127628925E+02  0.57806894401E+02  0.99146077027E+02  0.11793002112E+03  0.00000000000E+00 0. -1.
         21    1    1    2  503  502 -0.15453033168E+03 -0.32891757399E+02 -0.15146790658E+02  0.15871646538E+03  0.00000000000E+00 0.  1.
          2    1    1    2  501    0  0.35732386519E+02 -0.36221941639E+02  0.19171372681E+01  0.50916676224E+02  0.00000000000E+00 0. -1.
<scales pt_clust_5="13000.00000" pt_clust_6="13000.00000" pt_clust_7="13000.00000" pt_clust_8="13000.00000" pt_clust_9="138.27071" pt_clust_10="50.88057"></scales>
<clustering>
<clus scale="   50.881">  2 10  1 -1</clus>
<clus scale="   92.390">  7  8 -1 -1</clus>
<clus scale="   94.613">  5  6 -1 -1</clus>
<clus scale="   98.863">  1  7  2 -1</clus>
<clus scale="  138.271">  2  9  1 -1</clus>
<clus scale="   50.881">  2  5  1 -1</clus>
</clustering>
</event>
<event>
10    2  0.6640105E-006  0.1131296E+03  0.7546771E-02  0.1257687E+00
         21   -1    0    0  503  502  0.00000000000E+00  0.00000000000E+00  0.74275431498E+02  0.74275431498E+02  0.00000000000E+00 0. -1.
          1   -1    0    0  502    0 -0.00000000000E+00 -0.00000000000E+00 -0.80993690474E+03  0.80993690474E+03  0.00000000000E+00 0. -1.
         23    2    1    2    0    0 -0.23134466842E+02 -0.47611967531E+02 -0.34667403252E+03  0.36396538065E+03  0.97395125528E+02 0.  0.
         23    2    1    2    0    0  0.80055344278E+02  0.17087461380E+02 -0.25371044651E+03  0.28144554860E+03  0.90231738730E+02 0.  0.
        -11    1    4    4    0    0  0.37737124499E+02  0.39952057896E+02 -0.20782751202E+03  0.21497100327E+03  0.00000000000E+00 0.  1.
         11    1    4    4    0    0  0.42318219779E+02 -0.22864596516E+02 -0.45882934493E+02  0.66474545330E+02  0.00000000000E+00 0. -1.
        -11    1    3    3    0    0 -0.57000706770E+02 -0.68770734854E+01 -0.19684776496E+03  0.20504979220E+03  0.00000000000E+00 0.  1.
         11    1    3    3    0    0  0.33866239927E+02 -0.40734894046E+02 -0.14982626756E+03  0.15891558845E+03  0.00000000000E+00 0. -1.
         21    1    1    2  503  501  0.32394658470E+02  0.62067614717E-02  0.32759264952E+02  0.46071502864E+02  0.00000000000E+00 0. -1.
          1    1    1    2  501    0 -0.89315535905E+02  0.30518299390E+02 -0.16803625916E+03  0.19272990412E+03  0.00000000000E+00 0. -1.
<scales pt_clust_5="13000.00000" pt_clust_6="13000.00000" pt_clust_7="13000.00000" pt_clust_8="13000.00000" pt_clust_9="32.39466" pt_clust_10="83.61139"></scales>
<clustering>
<clus scale="   32.395">  1  9  2 -1</clus>
<clus scale="   83.611">  1 10  2 -1</clus>
<clus scale="   90.232">  5  6 -1 -1</clus>
<clus scale="   97.395">  7  8 -1 -1</clus>
<clus scale="  107.025">  1  5  2 -1</clus>
<clus scale="   32.395">  1  5  2 -1</clus>
</clustering>
</event>
<event>
10    2  0.6640105E-006  0.1402006E+03  0.7546771E-02  0.1214133E+00
         21   -1    0    0  501  502  0.00000000000E+00  0.00000000000E+00  0.86492054484E+02  0.86492054484E+02  0.00000000000E+00 0. -1.
          1   -1    0    0  503    0 -0.00000000000E+00 -0.00000000000E+00 -0.58797250660E+03  0.58797250660E+03  0.00000000000E+00 0. -1.
         23    2    1    2    0    0 -0.46846251241E+02 -0.91235198184E+02 -0.30594612731E+03  0.33592276190E+03  0.93395056113E+02 0.  0.
         23    2    1    2    0    0  0.10187002256E+03  0.61348837920E+02 -0.18536163664E+03  0.23737516224E+03  0.88582446908E+02 0.  0.
        -13    1    4    4    0    0  0.80123520819E+02  0.19288382485E+02 -0.56048379992E+02  0.99665646975E+02  0.00000000000E+00 0.  1.
         13    1    4    4    0    0  0.21746501737E+02  0.42060455435E+02 -0.12931325665E+03  0.13770951526E+03  0.00000000000E+00 0. -1.
        -13    1    3    3    0    0 -0.19593856871E+02  0.16918371792E+02 -0.77381078014E+02  0.81596456821E+02  0.00000000000E+00 0.  1.
         13    1    3    3    0    0 -0.27252394369E+02 -0.10815356998E+03 -0.22856504930E+03  0.25432630508E+03  0.00000000000E+00 0. -1.
         21    1    1    2  503  502 -0.34206121611E+02  0.40984208046E+02  0.24894650335E+02  0.58902526942E+02  0.00000000000E+00 0. -1.
          1    1    1    2  501    0 -0.20817649703E+02 -0.11097847781E+02 -0.35067338506E+02  0.42264110004E+02  0.00000000000E+00 0. -1.
<scales pt_clust_5="13000.00000" pt_clust_6="13000.00000" pt_clust_7="13000.00000" pt_clust_8="13000.00000" pt_clust_9="57.02637" pt_clust_10="23.59104"></scales>
<clustering>
<clus scale="   23.591">  1 10  2 -1</clus>
<clus scale="   57.026">  1  9  2 -1</clus>
<clus scale="   88.582">  5  6 -1 -1</clus>
<clus scale="   93.395">  7  8 -1 -1</clus>
<clus scale="  137.042">  1  5  2 -1</clus>
<clus scale="   23.591">  1  5  2 -1</clus>
</clustering>
</event>
<event>
10    2  0.6640105E-006  0.1092695E+03  0.7546771E-02  0.1262092E+00
         21   -1    0    0  501  502  0.00000000000E+00  0.00000000000E+00  0.15835710245E+03  0.15835710245E+03  0.00000000000E+00 0.  1.
         -3   -1    0    0    0  501 -0.00000000000E+00 -0.00000000000E+00 -0.22036182572E+03  0.22036182572E+03  0.00000000000E+00 0.  1.
         23    2    1    2    0    0 -0.30559261730E+02 -0.32860758550E+02 -0.65319520393E+02  0.12120082692E+03  0.91702250634E+02 0.  0.
         23    2    1    2    0    0  0.62887595646E+02  0.43778482281E+02 -0.80241899197E+02  0.14367721608E+03  0.91285129329E+02 0.  0.
        -11    1    3    3    0    0 -0.13646121616E+02 -0.61048176345E+02 -0.20926904477E+02  0.65962351392E+02  0.00000000000E+00 0.  1.
         11    1    3    3    0    0 -0.16913140114E+02  0.28187417796E+02 -0.44392615916E+02  0.55238475526E+02  0.00000000000E+00 0. -1.
        -13    1    4    4    0    0  0.55908643940E+02 -0.15792094310E+02 -0.49264881552E+02  0.76172142311E+02  0.00000000000E+00 0.  1.
         13    1    4    4    0    0  0.69789517062E+01  0.59570576591E+02 -0.30977017645E+02  0.67505073768E+02  0.00000000000E+00 0. -1.
         21    1    1    2  503  502  0.46947819267E+01 -0.29075336443E+02  0.58748344989E+02  0.65717457388E+02  0.00000000000E+00 0.  1.
         -3    1    1    2    0  503 -0.37023115843E+02  0.18157612711E+02  0.24808351328E+02  0.48123427785E+02  0.00000000000E+00 0.  1.
<scales pt_clust_5="13000.00000" pt_clust_6="13000.00000" pt_clust_7="13000.00000" pt_clust_8="13000.00000" pt_clust_9="29.45193" pt_clust_10="35.95562"></scales>
<clustering>
<clus scale="   29.452">  1  9  2 -1</clus>
<clus scale="   35.956">  1 10  2 -1</clus>
<clus scale="   91.285">  7  8 -1 -1</clus>
<clus scale="   91.702">  5  6 -1 -1</clus>
<clus scale="  108.920">  1  7  2 -1</clus>
<clus scale="   29.452">  1  5  2 -1</clus>
</clustering>
</event>
<event>
10    2  0.6640105E-006  0.1248957E+03  0.7546771E-02  0.1235334E+00
          4   -1    0    0  502    0 -0.00000000000E+00  0.00000000000E+00  0.11512529023E+03  0.11512529023E+03  0.00000000000E+00 0. -1.
         21   -1    0    0  503  502  0.00000000000E+00 -0.00000000000E+00 -0.30147239875E+03  0.30147239875E+03  0.00000000000E+00 0.  1.
         23    2    1    2    0    0  0.18060492700E+02 -0.73936022436E+02 -0.22514940894E+01  0.11745476992E+03  0.89430626411E+02 0.  0.
         23    2    1    2    0    0 -0.61685654102E+02  0.97885006821E+02 -0.10308759288E+03  0.17909761052E+03  0.89790354740E+02 0.  0.
        -11    1    4    4    0    0 -0.60238420617E+02  0.13129000658E+02 -0.41518458636E+02  0.74329135500E+02  0.00000000000E+00 0. -1.
         11    1    4    4    0    0 -0.14472334852E+01  0.84756006163E+02 -0.61569134245E+02  0.10476847502E+03  0.00000000000E+00 0.  1.
        -11    1    3    3    0    0  0.42080974342E+02 -0.38995304954E+02 -0.31968792823E+02  0.65676829434E+02  0.00000000000E+00 0. -1.
         11    1    3    3    0    0 -0.24020481642E+02 -0.34940717482E+02  0.29717298734E+02  0.51777940482E+02  0.00000000000E+00 0.  1.
         21    1    1    2  503  501 -0.12153111465E+02 -0.21466685510E+02 -0.51014356318E+02  0.56665520872E+02  0.00000000000E+00 0. -1.
          4    1    1    2  501    0  0.55778272868E+02 -0.24822988749E+01 -0.29993665230E+02  0.63379787675E+02  0.00000000000E+00 0. -1.
<scales pt_clust_5="13000.00000" pt_clust_6="13000.00000" pt_clust_7="13000.00000" pt_clust_8="13000.00000" pt_clust_9="24.66813" pt_clust_10="53.88409"></scales>
<clustering>
<clus scale="   24.668">  2  9  1 -1</clus>
<clus scale="   53.884">  2 10  1 -1</clus>
<clus scale="   89.431">  7  8 -1 -1</clus>
<clus scale="   89.790">  5  6 -1 -1</clus>
<clus scale="  124.637">  1  7  2 -1</clus>
<clus scale="   24.668">  2  5  1 -1</clus>
</clustering>
</event>
<event>
10    2  0.6640105E-006  0.1633228E+03  0.7546771E-02  0.1185354E+00
          2   -1    0    0  503    0 -0.00000000000E+00  0.00000000000E+00  0.50742121778E+03  0.50742121778E+03  0.00000000000E+00 0. -1.
         21   -1    0    0  501  502  0.00000000000E+00 -0.00000000000E+00 -0.46528624442E+03  0.46528624442E+03  0.00000000000E+00 0. -1.
         23    2    1    2    0    0 -0.12192049659E+03 -0.79218166102E+02  0.38776569972E+03  0.42463147856E+03  0.93859093192E+02 0.  0.
         23    2    1    2    0    0  0.11877715586E+03 -0.30983195880E+02  0.14070343731E+02  0.15379502283E+03  0.91580365215E+02 0.  0.
        -13    1    4    4    0    0  0.20934771724E+02  0.37422975839E+01 -0.33431397165E+02  0.39622314101E+02  0.00000000000E+00 0.  1.
         13    1    4    4    0    0  0.97842384140E+02 -0.34725493464E+02  0.47501740896E+02  0.11417270873E+03  0.00000000000E+00 0. -1.
        -13    1    3    3    0    0 -0.11128806593E+03 -0.25305126105E+02  0.21611630590E+03  0.24440057427E+03  0.00000000000E+00 0.  1.
         13    1    3    3    0    0 -0.10632430661E+02 -0.53913039997E+02  0.17164939382E+03  0.18023090430E+03  0.00000000000E+00 0. -1.
         21    1    1    2  503  502  0.39079615810E+02  0.11800042223E+03 -0.26554082942E+03  0.29319489781E+03  0.00000000000E+00 0. -1.
          2    1    1    2  501    0 -0.35936275080E+02 -0.77990602448E+01 -0.94160240679E+02  0.10108606300E+03  0.00000000000E+00 0. -1.
<scales pt_clust_5="13000.00000" pt_clust_6="13000.00000" pt_clust_7="13000.00000" pt_clust_8="13000.00000" pt_clust_9="112.69104" pt_clust_10="36.77283"></scales>
<clustering>
<clus scale="   36.773">  2 10  1 -1</clus>
<clus scale="   91.580">  5  6 -1 -1</clus>
<clus scale="   93.859">  7  8 -1 -1</clus>
<clus scale="  112.691">  2  9  1 -1</clus>
<clus scale="  162.024">  2  5  1 -1</clus>
<clus scale="   36.773">  2  5  1 -1</clus>
</clustering>
</event>
<event>
10    2  0.6640105E-006  0.1532096E+03  0.7546771E-02  0.1217881E+00
         21   -1    0    0  501  502  0.00000000000E+00  0.00000000000E+00  0.13479807320E+03  0.13479807320E+03  0.00000000000E+00 0. -1.
          2   -1    0    0  503    0 -0.00000000000E+00 -0.00000000000E+00 -0.61634530436E+03  0.61634530436E+03  0.00000000000E+00 0. -1.
         23    2    1    2    0    0  0.31213567457E+02 -0.61935207400E+02 -0.53328712591E+02  0.12431601908E+03  0.88319104984E+02 0.  0.
         23    2    1    2    0    0 -0.86565417138E+02 -0.74426751428E+02 -0.40157357666E+03  0.42741532071E+03  0.91594793187E+02 0.  0.
        -13    1    3    3    0    0  0.22186472380E+02 -0.35989063806E+02 -0.77136853723E+02  0.87963324588E+02  0.00000000000E+00 0.  1.
         13    1    3    3    0    0  0.90270950775E+01 -0.25946143595E+02  0.23808141132E+02  0.36352694496E+02  0.00000000000E+00 0. -1.
        -13    1    4    4    0    0 -0.12463126096E+02 -0.59048794207E+02 -0.25968031275E+03  0.26660073976E+03  0.00000000000E+00 0. -1.
         13    1    4    4    0    0 -0.74102291041E+02 -0.15377957221E+02 -0.14189326391E+03  0.16081458096E+03  0.00000000000E+00 0.  1.
         21    1    1    2  503  502 -0.40555062313E+02  0.69818205084E+02 -0.70739007445E+01  0.81051433745E+02  0.00000000000E+00 0. -1.
          2    1    1    2  501    0  0.95906911993E+02  0.66543753745E+02 -0.19571041175E+02  0.11836060402E+03  0.00000000000E+00 0. -1.
<scales pt_clust_5="13000.00000" pt_clust_6="13000.00000" pt_clust_7="13000.00000" pt_clust_8="13000.00000" pt_clust_9="80.74215" pt_clust_10="122.81515"></scales>
<clustering>
<clus scale="   80.742">  1  9  2 -1</clus>
<clus scale="   88.319">  5  6 -1 -1</clus>
<clus scale="   91.595">  7  8 -1 -1</clus>
<clus scale="   97.015">  2  5  1 -1</clus>
<clus scale="  122.815">  1 10  2 -1</clus>
<clus scale="   80.742">  1  5  2 -1</clus>
</clustering>
</event>
<event>
10    2  0.6640105E-006  0.1043531E+03  0.7546771E-02  0.1271837E+00
          1   -1    0    0  503    0 -0.00000000000E+00  0.00000000000E+00  0.11744761072E+04  0.11744761072E+04  0.00000000000E+00 0. -1.
         21   -1    0    0  501  502  0.00000000000E+00 -0.00000000000E+00 -0.23142695929E+02  0.23142695929E+02  0.00000000000E+00 0. -1.
         23    2    1    2    0    0 -0.64464774720E+02 -0.34309000337E+02  0.47661799328E+03  0.49036613411E+03  0.89226785656E+02 0.  0.
         23    2    1    2    0    0 -0.53399604012E+01  0.45574136639E+02  0.26436303804E+03  0.28308503421E+03  0.90243025258E+02 0.  0.
        -11    1    4    4    0    0 -0.39915049624E+02  0.12012309140E+02  0.59608253398E+02  0.72736858817E+02  0.00000000000E+00 0. -1.
         11    1    4    4    0    0  0.34575089223E+02  0.33561827498E+02  0.20475478464E+03  0.21034817540E+03  0.00000000000E+00 0.  1.
        -11    1    3    3    0    0  0.22211162134E+02 -0.43892537535E+00  0.87770273328E+02  0.90538109429E+02  0.00000000000E+00 0.  1.
         11    1    3    3    0    0 -0.86675936855E+02 -0.33870074962E+02  0.38884771995E+03  0.39982802468E+03  0.00000000000E+00 0. -1.
         21    1    1    2  503  502  0.57308689690E+01 -0.26005559203E+02  0.40190558589E+02  0.48212166185E+02  0.00000000000E+00 0. -1.
          1    1    1    2  501    0  0.64073866153E+02  0.14740422902E+02  0.37016182141E+03  0.37595546867E+03  0.00000000000E+00 0. -1.
<scales pt_clust_5="13000.00000" pt_clust_6="13000.00000" pt_clust_7="13000.00000" pt_clust_8="13000.00000" pt_clust_9="26.62953" pt_clust_10="65.83401"></scales>
<clustering>
<clus scale="   26.630">  2  9  1 -1</clus>
<clus scale="   65.834">  2 10  1 -1</clus>
<clus scale="   89.227">  7  8 -1 -1</clus>
<clus scale="   90.243">  5  6 -1 -1</clus>
<clus scale="  103.476">  1  7  2 -1</clus>
<clus scale="   26.630">  2  5  1 -1</clus>
</clustering>
</event>
<event>
10    2  0.6640105E-006  0.1162055E+03  0.7546771E-02  0.1250887E+00
         21   -1    0    0  503  502  0.00000000000E+00  0.00000000000E+00  0.61564201798E+02  0.61564201798E+02  0.00000000000E+00 0. -1.
          1   -1    0    0  502    0 -0.00000000000E+00 -0.00000000000E+00 -0.10806352615E+04  0.10806352615E+04  0.00000000000E+00 0. -1.
         23    2    1    2    0    0  0.60269235261E+02 -0.23951798373E+02 -0.56648609098E+03  0.57811379954E+03  0.95409667151E+02 0.  0.
         23    2    1    2    0    0 -0.82588837988E+02 -0.86884076929E+02 -0.33233868864E+03  0.36495178545E+03  0.91493402782E+02 0.  0.
        -11    1    3    3    0    0  0.73039968875E+02 -0.46770167820E+02 -0.47956090505E+03  0.48734068916E+03  0.00000000000E+00 0. -1.
         11    1    3    3    0    0 -0.12770733614E+02  0.22818369447E+02 -0.86925185924E+02  0.90773110386E+02  0.00000000000E+00 0.  1.
        -11    1    4    4    0    0 -0.18538535650E+02 -0.69063289302E+02 -0.97680742970E+02  0.12105760108E+03  0.00000000000E+00 0.  1.
         11    1    4    4    0    0 -0.64050302339E+02 -0.17820787627E+02 -0.23465794567E+03  0.24389418437E+03  0.00000000000E+00 0. -1.
         21    1    1    2  503  501  0.29805641873E+02  0.22239775379E+02  0.12612486604E+02  0.39269055434E+02  0.00000000000E+00 0. -1.
          1    1    1    2  501    0 -0.74860391456E+01  0.88596099923E+02 -0.13285876666E+03  0.15986482284E+03  0.00000000000E+00 0. -1.
<scales pt_clust_5="13000.00000" pt_clust_6="13000.00000" pt_clust_7="13000.00000" pt_clust_8="13000.00000" pt_clust_9="37.18849" pt_clust_10="97.10091"></scales>
<clustering>
<clus scale="   37.188">  1  9  2 -1</clus>
<clus scale="   91.493">  7  8 -1 -1</clus>
<clus scale="   95.410">  5  6 -1 -1</clus>
<clus scale="   97.101">  1 10  2 -1</clus>
<clus scale="  113.012">  1  7  2 -1</clus>
<clus scale="   37.188">  1  5  2 -1</clus>
</clustering>
</event>
<event>
10    2  0.6640105E-006  0.1468467E+03  0.7546771E-02  0.1215938E+00
         21   -1    0    0  503  502  0.00000000000E+00  0.00000000000E+00  0.12524972596E+03  0.12524972596E+03  0.00000000000E+00 0. -1.
          1   -1    0    0  502    0 -0.00000000000E+00 -0.00000000000E+00 -0.55393520022E+03  0.55393520022E+03  0.00000000000E+00 0. -1.
         23    2    1    2    0    0  0.66057430840E+02  0.20856902839E+02 -0.24605008529E+03  0.27151092896E+03  0.91536580170E+02 0.  0.
         23    2    1    2    0    0 -0.11658169051E+03 -0.11680521806E+03 -0.21632906834E+03  0.28662346692E+03  0.90111022926E+02 0.  0.
        -11    1    4    4    0    0 -0.28698477502E+02  0.22691114129E+01 -0.81448140953E+02  0.86386058726E+02  0.00000000000E+00 0.  1.
         11    1    4    4    0    0 -0.87883213013E+02 -0.11907432947E+03 -0.13488092739E+03  0.20023740820E+03  0.00000000000E+00 0. -1.
        -13    1    3    3    0    0  0.62788706775E+02 -0.13197960423E+02 -0.21807577456E+03  0.22731839193E+03  0.00000000000E+00 0. -1.
         13    1    3    3    0    0  0.32687240653E+01  0.34054863262E+02 -0.27974310728E+02  0.44192537034E+02  0.00000000000E+00 0.  1.
         21    1    1    2  503  501  0.87434763412E+01  0.20264529120E+02  0.26227999486E+02  0.34278382051E+02  0.00000000000E+00 0. -1.
          1    1    1    2  501    0  0.41780783333E+02  0.75683786100E+02  0.74656798792E+01  0.86772148241E+02  0.00000000000E+00 0. -1.
<scales pt_clust_5="13000.00000" pt_clust_6="13000.00000" pt_clust_7="13000.00000" pt_clust_8="13000.00000" pt_clust_9="21.19224" pt_clust_10="123.30103"></scales>
<clustering>
<clus scale="   21.192">  9 10 -1 -1</clus>
<clus scale="   90.111">  5  6 -1 -1</clus>
<clus scale="   91.537">  7  8 -1 -1</clus>
<clus scale="  114.793">  2  7  1 -1</clus>
<clus scale="  123.301">  1  9  2 -1</clus>
<clus scale="  123.301">  1  5  2 -1</clus>
</clustering>
</event>
<event>
10    2  0.6640105E-006  0.9796999E+02  0.7546771E-02  0.1284824E+00
         -1   -1    0    0    0  501 -0.00000000000E+00  0.00000000000E+00  0.78149451913E+02  0.78149451913E+02  0.00000000000E+00 0.  1.
         21   -1    0    0  503  502  0.00000000000E+00 -0.00000000000E+00 -0.42144328848E+03  0.42144328848E+03  0.00000000000E+00 0. -1.
         23    2    1    2    0    0  0.13654977683E+02  0.30602027827E+02 -0.44157791156E+02  0.10744122906E+03  0.92036757106E+02 0.  0.
         23    2    1    2    0    0  0.68285660354E+02 -0.19420516971E+02 -0.82277386140E+02  0.14266289373E+03  0.92428594536E+02 0.  0.
        -13    1    4    4    0    0  0.82439041188E+02 -0.49639050757E+01 -0.32183014803E+02  0.88637364060E+02  0.00000000000E+00 0. -1.
         13    1    4    4    0    0 -0.14153380834E+02 -0.14456611896E+02 -0.50094371337E+02  0.54025529670E+02  0.00000000000E+00 0.  1.
        -13    1    3    3    0    0  0.40913300052E+02  0.42230817149E+02 -0.59672627996E+01  0.59101169731E+02  0.00000000000E+00 0. -1.
         13    1    3    3    0    0 -0.27258322369E+02 -0.11628789322E+02 -0.38190528356E+02  0.48340059325E+02  0.00000000000E+00 0.  1.
         21    1    1    2  503  501 -0.17155876902E+00  0.30667344997E+02 -0.67575596239E+02  0.74209006789E+02  0.00000000000E+00 0. -1.
         -1    1    1    2    0  502 -0.81769079268E+02 -0.41848855853E+02 -0.14928306304E+03  0.17527961082E+03  0.00000000000E+00 0.  1.
<scales pt_clust_5="13000.00000" pt_clust_6="13000.00000" pt_clust_7="13000.00000" pt_clust_8="13000.00000" pt_clust_9="30.66782" pt_clust_10="86.39333"></scales>
<clustering>
<clus scale="   30.668">  2  9  1 -1</clus>
<clus scale="   86.393">  2 10  1 -1</clus>
<clus scale="   92.037">  7  8 -1 -1</clus>
<clus scale="   92.429">  5  6 -1 -1</clus>
<clus scale="   97.600">  1  7  2 -1</clus>
<clus scale="   30.668">  2  5  1 -1</clus>
</clustering>
</event>
<event>
10    2  0.6640105E-006  0.1298904E+03  0.7546771E-02  0.1227956E+00
         21   -1    0    0  503  502  0.00000000000E+00  0.00000000000E+00  0.36740294269E+03  0.36740294269E+03  0.00000000000E+00 0.  1.
         -3   -1    0    0    0  501 -0.00000000000E+00 -0.00000000000E+00 -0.14742178100E+03  0.14742178100E+03  0.00000000000E+00 0.  1.
         23    2    1    2    0    0  0.43260800143E+02  0.95376157612E+02 -0.63406592297E+02  0.15283480947E+03  0.91487566192E+02 0.  0.
         23    2    1    2    0    0 -0.26390249717E+02 -0.55110926524E+02  0.84347534525E+02  0.13778272367E+03  0.90199295224E+02 0.  0.
        -11    1    3    3    0    0 -0.20303549198E+02  0.63233236948E+02 -0.41500200949E+02  0.78313109016E+02  0.00000000000E+00 0.  1.
         11    1    3    3    0    0  0.63564349341E+02  0.32142920663E+02 -0.21906391348E+02  0.74521700449E+02  0.00000000000E+00 0. -1.
        -13    1    4    4    0    0 -0.34278966175E+02  0.13287622633E+02  0.13976395800E+02  0.39331260809E+02  0.00000000000E+00 0.  1.
         13    1    4    4    0    0  0.78887164576E+01 -0.68398549156E+02  0.70371138725E+02  0.98451462861E+02  0.00000000000E+00 0. -1.
         21    1    1    2  503  501 -0.25999946565E+02 -0.14351707072E+02  0.73979932869E+01  0.30605539072E+02  0.00000000000E+00 0.  1.
         -3    1    1    2    0  502  0.91293961387E+01 -0.25913524017E+02  0.19164222618E+03  0.19360165148E+03  0.00000000000E+00 0.  1.
<scales pt_clust_5="13000.00000" pt_clust_6="13000.00000" pt_clust_7="13000.00000" pt_clust_8="13000.00000" pt_clust_9="30.33388" pt_clust_10="27.47465"></scales>
<clustering>
<clus scale="   27.475">  1 10  2 -1</clus>
<clus scale="   30.334">  1  9  2 -1</clus>
<clus scale="   90.199">  7  8 -1 -1</clus>
<clus scale="   91.488">  5  6 -1 -1</clus>
<clus scale="  128.986">  1  7  2 -1</clus>
<clus scale="   27.475">  1  5  2 -1</clus>
</clustering>
</event>
<event>
10    2  0.6640105E-006  0.1393757E+03  0.7546771E-02  0.1214419E+00
         -1   -1    0    0    0  501 -0.00000000000E+00  0.00000000000E+00  0.16154044938E+03  0.16154044938E+03  0.00000000000E+00 0.  1.
         21   -1    0    0  503  502  0.00000000000E+00 -0.00000000000E+00 -0.41711504659E+03  0.41711504659E+03  0.00000000000E+00 0.  1.
         23    2    1    2    0    0 -0.10664649756E+03 -0.77018546269E+02  0.49924085832E+02  0.16799807675E+03  0.91791108151E+02 0.  0.
         23    2    1    2    0    0  0.56896732530E+02  0.37124502109E+02 -0.33930413767E+02  0.11997892893E+03  0.92888123997E+02 0.  0.
        -11    1    3    3    0    0 -0.70049410071E+02 -0.85559292162E+02  0.64123375579E+02  0.12782456580E+03  0.00000000000E+00 0.  1.
         11    1    3    3    0    0 -0.36597087485E+02  0.85407458931E+01 -0.14199289746E+02  0.40173510950E+02  0.00000000000E+00 0. -1.
        -13    1    4    4    0    0  0.19378399041E+02  0.44874266466E+02 -0.57133733225E+02  0.75189664266E+02  0.00000000000E+00 0.  1.
         13    1    4    4    0    0  0.37518333489E+02 -0.77497643572E+01  0.23203319458E+02  0.44789264665E+02  0.00000000000E+00 0. -1.
         21    1    1    2  503  501 -0.22428246534E+02  0.10420422369E+02 -0.83648373269E+02  0.87227643528E+02  0.00000000000E+00 0.  1.
         -1    1    1    2    0  502  0.72178011560E+02  0.29473621791E+02 -0.18791989601E+03  0.20345084676E+03  0.00000000000E+00 0.  1.
<scales pt_clust_5="13000.00000" pt_clust_6="13000.00000" pt_clust_7="13000.00000" pt_clust_8="13000.00000" pt_clust_9="24.73078" pt_clust_10="68.87293"></scales>
<clustering>
<clus scale="   24.731">  2  9  1 -1</clus>
<clus scale="   68.873">  2 10  1 -1</clus>
<clus scale="   91.791">  5  6 -1 -1</clus>
<clus scale="   92.888">  7  8 -1 -1</clus>
<clus scale="  138.647">  1  5  2 -1</clus>
<clus scale="   24.731">  2  5  1 -1</clus>
</clustering>
</event>
<event>
10    2  0.6640105E-006  0.1144130E+03  0.7546771E-02  0.1252639E+00
         21   -1    0    0  503  502  0.00000000000E+00  0.00000000000E+00  0.49007250242E+02  0.49007250242E+02  0.00000000000E+00 0. -1.
         -3   -1    0    0    0  501 -0.00000000000E+00 -0.00000000000E+00 -0.63450516274E+03  0.63450516274E+03  0.00000000000E+00 0.  1.
         23    2    1    2    0    0  0.32371595790E+01 -0.94651115001E+02 -0.31468600209E+03  0.34107469943E+03  0.91298181302E+02 0.  0.
         23    2    1    2    0    0  0.44137822170E+02  0.32142185456E+02 -0.15873764641E+03  0.19104650560E+03  0.91213263740E+02 0.  0.
        -11    1    4    4    0    0  0.28790364034E+02  0.54246114281E+02 -0.15105485047E+03  0.16306162586E+03  0.00000000000E+00 0.  1.
         11    1    4    4    0    0  0.15347458136E+02 -0.22103928826E+02 -0.76827959376E+01  0.27984879742E+02  0.00000000000E+00 0. -1.
        -13    1    3    3    0    0  0.17818724036E+02 -0.40623934504E+02 -0.36879525617E+02  0.57688043740E+02  0.00000000000E+00 0.  1.
         13    1    3    3    0    0 -0.14581564457E+02 -0.54027180497E+02 -0.27780647647E+03  0.28338665569E+03  0.00000000000E+00 0. -1.
         21    1    1    2  503  501 -0.20239518048E+02  0.53727821536E+01  0.19156751955E+01  0.21027950217E+02  0.00000000000E+00 0.  1.
         -3    1    1    2    0  502 -0.27135463701E+02  0.57136147392E+02 -0.11398993919E+03  0.13036325773E+03  0.00000000000E+00 0.  1.
<scales pt_clust_5="13000.00000" pt_clust_6="13000.00000" pt_clust_7="13000.00000" pt_clust_8="13000.00000" pt_clust_9="20.94051" pt_clust_10="66.29638"></scales>
<clustering>
<clus scale="   20.941">  1  9  2 -1</clus>
<clus scale="   66.296">  1 10  2 -1</clus>
<clus scale="   91.213">  5  6 -1 -1</clus>
<clus scale="   91.298">  7  8 -1 -1</clus>
<clus scale="  114.345">  1  5  2 -1</clus>
<clus scale="   20.941">  1  5  2 -1</clus>
</clustering>
</event>
<event>
10    2  0.6640105E-006  0.2183735E+03  0.7546771E-02  0.1168505E+00
         21   -1    0    0  503  502  0.00000000000E+00  0.00000000000E+00  0.46729428399E+03  0.46729428399E+03  0.00000000000E+00 0. -1.
          1   -1    0    0  502    0 -0.00000000000E+00 -0.00000000000E+00 -0.36968626927E+03  0.36968626927E+03  0.00000000000E+00 0. -1.
         23    2    1    2    0    0  0.36740454090E+02  0.25631913454E+02 -0.15129312100E+03  0.18082187766E+03  0.88318101346E+02 0.  0.
         23    2    1    2    0    0  0.12326450410E+03 -0.15247473378E+03 -0.10469347021E+03  0.24078576837E+03  0.92597954259E+02 0.  0.
        -11    1    3    3    0    0  0.62755123953E+02  0.21687395015E+01 -0.83097359595E+02  0.10415411747E+03  0.00000000000E+00 0.  1.
         11    1    3    3    0    0 -0.26014669863E+02  0.23463173952E+02 -0.68195761406E+02  0.76667760198E+02  0.00000000000E+00 0. -1.
        -13    1    4    4    0    0  0.10758926650E+03 -0.90671286844E+02 -0.10733984414E+03  0.17697054745E+03  0.00000000000E+00 0. -1.
         13    1    4    4    0    0  0.15675237600E+02 -0.61803446936E+02  0.26463739216E+01  0.63815220927E+02  0.00000000000E+00 0.  1.
         21    1    1    2  503  501 -0.59083928359E+01  0.24278808436E+02  0.89102242856E+02  0.92539609503E+02  0.00000000000E+00 0. -1.
          1    1    1    2  501    0 -0.15409656536E+03  0.10256401189E+03  0.26449236307E+03  0.32283329772E+03  0.00000000000E+00 0. -1.
<scales pt_clust_5="13000.00000" pt_clust_6="13000.00000" pt_clust_7="13000.00000" pt_clust_8="13000.00000" pt_clust_9="24.98739" pt_clust_10="197.76910"></scales>
<clustering>
<clus scale="   24.987">  1  9  2 -1</clus>
<clus scale="   88.318">  5  6 -1 -1</clus>
<clus scale="   92.598">  7  8 -1 -1</clus>
<clus scale="   99.195">  2  5  1 -1</clus>
<clus scale="  197.769">  1 10  2 -1</clus>
<clus scale="   24.987">  1  5  2 -1</clus>
</clustering>
</event>
<event>
10    2  0.6640105E-006  0.1106732E+03  0.7546771E-02  0.1259799E+00
         21   -1    0    0  501  502  0.00000000000E+00  0.00000000000E+00  0.53319455529E+03  0.53319455529E+03  0.00000000000E+00 0. -1.
          1   -1    0    0  503    0 -0.00000000000E+00 -0.00000000000E+00 -0.50180905210E+03  0.50180905210E+03  0.00000000000E+00 0. -1.
         23    2    1    2    0    0  0.56280494418E+02  0.21076269149E+01 -0.39955772142E+03  0.41401962915E+03  0.92703529762E+02 0.  0.
         23    2    1    2    0    0 -0.96919559108E+02 -0.96102053326E+02 -0.39099797992E+01  0.16435745154E+03  0.91482666903E+02 0.  0.
        -13    1    3    3    0    0  0.19952680704E+02 -0.40080136363E+02 -0.25893516458E+03  0.26277737013E+03  0.00000000000E+00 0.  1.
         13    1    3    3    0    0  0.36327813714E+02  0.42187763278E+02 -0.14062255684E+03  0.15124225901E+03  0.00000000000E+00 0. -1.
        -13    1    4    4    0    0 -0.36770443069E+02 -0.87398407477E+02 -0.28176409918E+02  0.98916415164E+02  0.00000000000E+00 0. -1.
         13    1    4    4    0    0 -0.60149116039E+02 -0.87036458492E+01  0.24266430119E+02  0.65441036377E+02  0.00000000000E+00 0.  1.
         21    1    1    2  503  502 -0.23754808359E+02  0.25660215094E+02  0.53721413530E+02  0.64099359049E+02  0.00000000000E+00 0. -1.
          1    1    1    2  501    0  0.64393873048E+02  0.68334211317E+02  0.38113179088E+03  0.39252716765E+03  0.00000000000E+00 0. -1.
<scales pt_clust_5="13000.00000" pt_clust_6="13000.00000" pt_clust_7="13000.00000" pt_clust_8="13000.00000" pt_clust_9="34.96766" pt_clust_10="99.97297"></scales>
<clustering>
<clus scale="   34.968">  1  9  2 -1</clus>
<clus scale="   91.483">  7  8 -1 -1</clus>
<clus scale="   92.704">  5  6 -1 -1</clus>
<clus scale="   99.973">  1 10  2 -1</clus>
<clus scale="  109.653">  1  7  2 -1</clus>
<clus scale="   34.968">  1  5  2 -1</clus>
</clustering>
</event>
<event>
10    2  0.6640105E-006  0.1457230E+03  0.7546771E-02  0.1226772E+00
          1   -1    0    0  502    0 -0.00000000000E+00  0.00000000000E+00  0.40668788319E+03  0.40668788319E+03  0.00000000000E+00 0. -1.
         21   -1    0    0  503  502  0.00000000000E+00 -0.00000000000E+00 -0.92485513992E+03  0.92485513992E+03  0.00000000000E+00 0. -1.
         23    2    1    2    0    0 -0.92133266996E+01  0.16223268823E+02  0.86952336188E+02  0.12776812254E+03  0.91738239183E+02 0.  0.
         23    2    1    2    0    0 -0.17011701079E+02  0.12834356145E+02  0.23651394992E+03  0.25492654468E+03  0.92706936114E+02 0.  0.
        -13    1    4    4    0    0 -0.45101482893E+02 -0.64526294285E+01  0.19941878193E+03  0.20455715771E+03  0.00000000000E+00 0. -1.
         13    1    4    4    0    0  0.28089781814E+02  0.19286985574E+02  0.37095167986E+02  0.50369386961E+02  0.00000000000E+00 0.  1.
        -13    1    3    3    0    0  0.20662516636E+02  0.46335175434E+02  0.40987311792E+02  0.65221528687E+02  0.00000000000E+00 0. -1.
         13    1    3    3    0    0 -0.29875843335E+02 -0.30111906612E+02  0.45965024396E+02  0.62546593852E+02  0.00000000000E+00 0.  1.
         21    1    1    2  503  501  0.11865141384E+03  0.85399832992E+02 -0.77265637329E+03  0.78636452149E+03  0.00000000000E+00 0. -1.
          1    1    1    2  501    0 -0.92426386059E+02 -0.11445745796E+03 -0.68977169558E+02  0.16248383440E+03  0.00000000000E+00 0. -1.
<scales pt_clust_5="13000.00000" pt_clust_6="13000.00000" pt_clust_7="13000.00000" pt_clust_8="13000.00000" pt_clust_9="13000.00000" pt_clust_10="145.72304"></scales>
<clustering>
<clus scale="   91.738">  7  8 -1 -1</clus>
<clus scale="   92.707">  5  6 -1 -1</clus>
<clus scale="   93.616">  1  7  2 -1</clus>
<clus scale="   99.410">  1  5  2 -1</clus>
<clus scale="  145.723">  1 10  2 -1</clus>
<clus scale="  145.723">  2  5  1 -1</clus>
</clustering>
</event>
<event>
10    2  0.6640105E-006  0.1010631E+03  0.7546771E-02  0.1278768E+00
         -2   -1    0    0    0  501 -0.00000000000E+00  0.00000000000E+00  0.21816799173E+03  0.21816799173E+03  0.00000000000E+00 0.  1.
         21   -1    0    0  503  502  0.00000000000E+00 -0.00000000000E+00 -0.45162152171E+03  0.45162152171E+03  0.00000000000E+00 0. -1.
         23    2    1    2    0    0 -0.32178312392E+02  0.13955171729E+02  0.10295368820E+03  0.14217415955E+03  0.91563306647E+02 0.  0.
         23    2    1    2    0    0  0.50229850404E+02 -0.21843565290E+02  0.60474203050E+02  0.12155211244E+03  0.90097766836E+02 0.  0.
        -13    1    3    3    0    0  0.29041316664E+02 -0.10424870571E+02  0.22549965967E+02  0.38217495537E+02  0.00000000000E+00 0.  1.
         13    1    3    3    0    0 -0.61219629057E+02  0.24380042300E+02  0.80403722231E+02  0.10395666401E+03  0.00000000000E+00 0. -1.
        -13    1    4    4    0    0  0.68919525021E+02  0.80609895198E+01  0.32936900619E+02  0.76809634184E+02  0.00000000000E+00 0.  1.
         13    1    4    4    0    0 -0.18689674617E+02 -0.29904554810E+02  0.27537302431E+02  0.44742478260E+02  0.00000000000E+00 0. -1.
         21    1    1    2  503  501 -0.47269500664E+02  0.18296110945E+02 -0.30247018961E+03  0.30668773854E+03  0.00000000000E+00 0. -1.
         -2    1    1    2    0  502  0.29217962652E+02 -0.10407717384E+02 -0.94411231616E+02  0.99375502907E+02  0.00000000000E+00 0.  1.
<scales pt_clust_5="13000.00000" pt_clust_6="13000.00000" pt_clust_7="13000.00000" pt_clust_8="13000.00000" pt_clust_9="24.07602" pt_clust_10="31.01628"></scales>
<clustering>
<clus scale="   31.016">  2 10  1 -1</clus>
<clus scale="   24.076">  2  9  1 -1</clus>
<clus scale="   90.098">  7  8 -1 -1</clus>
<clus scale="   91.563">  5  6 -1 -1</clus>
<clus scale="   99.737">  2  7  1 -1</clus>
<clus scale="   31.016">  2  5  1 -1</clus>
</clustering>
</event>
<event>
10    2  0.6640105E-006  0.1574542E+03  0.7546771E-02  0.1192458E+00
          1   -1    0    0  503    0 -0.00000000000E+00  0.00000000000E+00  0.62768158913E+03  0.62768158913E+03  0.00000000000E+00 0. -1.
         21   -1    0    0  501  502  0.00000000000E+00 -0.00000000000E+00 -0.10870748683E+04  0.10870748683E+04  0.00000000000E+00 0. -1.
         23    2    1    2    0    0 -0.20317587534E+02  0.12917864962E+03  0.30465853953E+03  0.34431521282E+03  0.92931222910E+02 0.  0.
         23    2    1    2    0    0  0.14827054034E+03 -0.68847332457E+02  0.26184658260E+03  0.32094500147E+03  0.87851880083E+02 0.  0.
        -11    1    3    3    0    0  0.42682987289E+01  0.45802194589E+02  0.21332470484E+03  0.21822806670E+03  0.00000000000E+00 0. -1.
         11    1    3    3    0    0 -0.24585886263E+02  0.83376455030E+02  0.91333834694E+02  0.12608714612E+03  0.00000000000E+00 0.  1.
        -11    1    4    4    0    0  0.11466721393E+03 -0.82232777081E+02  0.16247552637E+03  0.21519548380E+03  0.00000000000E+00 0.  1.
         11    1    4    4    0    0  0.33603326410E+02  0.13385444624E+02  0.99371056222E+02  0.10574951767E+03  0.00000000000E+00 0. -1.
         21    1    1    2  503  502  0.33401841094E+02  0.21398936541E+02 -0.22024945787E+03  0.22379325540E+03  0.00000000000E+00 0. -1.
          1    1    1    2  501    0 -0.16135479390E+03 -0.81730253704E+02 -0.80564894346E+03  0.82570298776E+03  0.00000000000E+00 0. -1.
<scales pt_clust_5="13000.00000" pt_clust_6="13000.00000" pt_clust_7="13000.00000" pt_clust_8="13000.00000" pt_clust_9="39.66860" pt_clust_10="143.70889"></scales>
<clustering>
<clus scale="   39.669">  2  9  1 -1</clus>
<clus scale="   87.852">  7  8 -1 -1</clus>
<clus scale="   92.931">  5  6 -1 -1</clus>
<clus scale="  143.709">  2 10  1 -1</clus>
<clus scale="  154.511">  2  7  1 -1</clus>
<clus scale="   39.669">  2  5  1 -1</clus>
</clustering>
</event>
<event>
10    2  0.6640105E-006  0.1540639E+03  0.7546771E-02  0.1212222E+00
         -2   -1    0    0    0  501 -0.00000000000E+00  0.00000000000E+00  0.52804771849E+03  0.52804771849E+03  0.00000000000E+00 0.  1.
         21   -1    0    0  501  502  0.00000000000E+00 -0.00000000000E+00 -0.28067808863E+03  0.28067808863E+03  0.00000000000E+00 0.  1.
         23    2    1    2    0    0  0.27181210056E+02 -0.49572396870E+02  0.28795789617E+03  0.30711976740E+03  0.90590070348E+02 0.  0.
         23    2    1    2    0    0 -0.59419176132E+02 -0.66252877238E+02  0.13054571603E+03  0.18449985956E+03  0.95278182023E+02 0.  0.
        -11    1    3    3    0    0 -0.22274697953E+02  0.10183013269E+02  0.36384400454E+02  0.43859782541E+02  0.00000000000E+00 0. -1.
         11    1    3    3    0    0  0.49455908009E+02 -0.59755410139E+02  0.25157349572E+03  0.26325998486E+03  0.00000000000E+00 0.  1.
        -13    1    4    4    0    0 -0.46013519266E+02 -0.44384588239E+02  0.14251245506E+03  0.15619550402E+03  0.00000000000E+00 0.  1.
         13    1    4    4    0    0 -0.13405656866E+02 -0.21868288999E+02 -0.11966739029E+02  0.28304355544E+02  0.00000000000E+00 0. -1.
         21    1    1    2  503  502 -0.19090302742E+02 -0.30549036991E+02 -0.15730607564E+03  0.16137808015E+03  0.00000000000E+00 0.  1.
         -2    1    1    2    0  503  0.51328268819E+02  0.14637431110E+03 -0.13827906700E+02  0.15572810001E+03  0.00000000000E+00 0.  1.
<scales pt_clust_5="13000.00000" pt_clust_6="13000.00000" pt_clust_7="13000.00000" pt_clust_8="13000.00000" pt_clust_9="36.02337" pt_clust_10="121.06924"></scales>
<clustering>
<clus scale="   36.023">  2  9  1 -1</clus>
<clus scale="   90.590">  5  6 -1 -1</clus>
<clus scale="   95.278">  7  8 -1 -1</clus>
<clus scale="  107.555">  1  5  2 -1</clus>
<clus scale="  121.069">  2 10  1 -1</clus>
<clus scale="   36.023">  2  5  1 -1</clus>
</clustering>
</event>
<event>
10    2  0.6640105E-006  0.1597556E+03  0.7546771E-02  0.1189572E+00
         -2   -1    0    0    0  501 -0.00000000000E+00  0.00000000000E+00  0.80042992903E+03  0.80042992903E+03  0.00000000000E+00 0.  1.
         21   -1    0    0  501  502  0.00000000000E+00 -0.00000000000E+00 -0.15848969236E+03  0.15848969236E+03  0.00000000000E+00 0.  1.
         23    2    1    2    0    0 -0.13962936011E+02 -0.15216068125E+03  0.26511049346E+03  0.31983570143E+03  0.93077739928E+02 0.  0.
         23    2    1    2    0    0  0.10418132638E+03  0.78792429454E+02  0.19613429714E+03  0.25204395868E+03  0.89417553551E+02 0.  0.
        -11    1    4    4    0    0  0.40412622472E+02  0.44588888193E+02  0.16044484806E+03  0.17135897489E+03  0.00000000000E+00 0. -1.
         11    1    4    4    0    0  0.63768703908E+02  0.34203541261E+02  0.35689449082E+02  0.80684983786E+02  0.00000000000E+00 0.  1.
        -11    1    3    3    0    0  0.31147407145E+02 -0.29872919889E+02  0.35815036939E+02  0.56082699521E+02  0.00000000000E+00 0. -1.
         11    1    3    3    0    0 -0.45110343157E+02 -0.12228776136E+03  0.22929545652E+03  0.26375300191E+03  0.00000000000E+00 0.  1.
         21    1    1    2  503  502  0.71574791125E+02  0.20153239060E-01 -0.56154673658E+02  0.90974163939E+02  0.00000000000E+00 0.  1.
         -2    1    1    2    0  503 -0.16179318149E+03  0.73348098557E+02  0.23685011972E+03  0.29606579734E+03  0.00000000000E+00 0.  1.
<scales pt_clust_5="13000.00000" pt_clust_6="13000.00000" pt_clust_7="13000.00000" pt_clust_8="13000.00000" pt_clust_9="71.57479" pt_clust_10="155.26139"></scales>
<clustering>
<clus scale="   71.575">  2  9  1 -1</clus>
<clus scale="   89.418">  5  6 -1 -1</clus>
<clus scale="   93.078">  7  8 -1 -1</clus>
<clus scale="  155.261">  2 10  1 -1</clus>
<clus scale="  157.651">  2  5  1 -1</clus>
<clus scale="   71.575">  2  5  1 -1</clus>
</clustering>
</event>
<event>
10    2  0.6640105E-006  0.1978715E+03  0.7546771E-02  0.1151834E+00
         -3   -1    0    0    0  501 -0.00000000000E+00  0.00000000000E+00  0.16741203547E+03  0.16741203547E+03  0.00000000000E+00 0.  1.
         21   -1    0    0  503  502  0.00000000000E+00 -0.00000000000E+00 -0.38664736456E+03  0.38664736456E+03  0.00000000000E+00 0.  1.
         23    2    1    2    0    0  0.14888692178E+03 -0.92076396349E+02  0.98059618856E+00  0.19693063271E+03  0.90196087997E+02 0.  0.
         23    2    1    2    0    0 -0.16085550351E+03  0.69097568117E+02 -0.11317749358E+03  0.22829817409E+03  0.93069567052E+02 0.  0.
        -11    1    3    3    0    0  0.42917698280E+02 -0.79328793308E+02  0.73303569393E+00  0.90197137508E+02  0.00000000000E+00 0.  1.
         11    1    3    3    0    0  0.10596922350E+03 -0.12747603041E+02  0.24756049463E+00  0.10673349520E+03  0.00000000000E+00 0. -1.
        -13    1    4    4    0    0 -0.16828637548E+03  0.47019420715E+02 -0.96110333965E+02  0.19941997490E+03  0.00000000000E+00 0.  1.
         13    1    4    4    0    0  0.74308719689E+01  0.22078147402E+02 -0.17067159615E+02  0.28878199187E+02  0.00000000000E+00 0. -1.
         21    1    1    2  503  501 -0.26618355564E+02  0.15433859537E+02 -0.33813059168E+02  0.45717216051E+02  0.00000000000E+00 0.  1.
         -3    1    1    2    0  502  0.38586937295E+02  0.75449686938E+01 -0.73225372530E+02  0.83113377170E+02  0.00000000000E+00 0.  1.
<scales pt_clust_5="13000.00000" pt_clust_6="13000.00000" pt_clust_7="13000.00000" pt_clust_8="13000.00000" pt_clust_9="30.76915" pt_clust_10="34.40230"></scales>
<clustering>
<clus scale="   30.769">  2  9  1 -1</clus>
<clus scale="   34.402">  2 10  1 -1</clus>
<clus scale="   90.196">  5  6 -1 -1</clus>
<clus scale="   93.070">  7  8 -1 -1</clus>
<clus scale="  196.536">  1  5  2 -1</clus>
<clus scale="   30.769">  2  5  1 -1</clus>
</clustering>
</event>
<event>
10    2  0.6640105E-006  0.9645458E+02  0.7546771E-02  0.1288295E+00
         21   -1    0    0  501  502  0.00000000000E+00  0.00000000000E+00  0.20568050926E+03  0.20568050926E+03  0.00000000000E+00 0. -1.
          1   -1    0    0  503    0 -0.00000000000E+00 -0.00000000000E+00 -0.43850173280E+03  0.43850173280E+03  0.00000000000E+00 0. -1.
         23    2    1    2    0    0  0.15862003637E+02  0.44156065956E+02 -0.23144421348E+03  0.25320720544E+03  0.91357011849E+02 0.  0.
         23    2    1    2    0    0  0.18345838171E+02 -0.11788969075E+02 -0.17254384321E+03  0.19677041004E+03  0.92041658315E+02 0.  0.
        -11    1    3    3    0    0  0.76276227219E+01 -0.24897091846E+02 -0.11205657581E+03  0.11504226177E+03  0.00000000000E+00 0.  1.
         11    1    3    3    0    0  0.82343809151E+01  0.69053157802E+02 -0.11938763767E+03  0.13816494367E+03  0.00000000000E+00 0. -1.
        -11    1    4    4    0    0  0.49624430368E+02 -0.12823822591E+02 -0.55206422402E+02  0.75331159487E+02  0.00000000000E+00 0. -1.
         11    1    4    4    0    0 -0.31278592197E+02  0.10348535164E+01 -0.11733742081E+03  0.12143925055E+03  0.00000000000E+00 0.  1.
         21    1    1    2  503  502  0.20118508403E+02  0.44684064049E+00  0.84019030143E+02  0.86395320898E+02  0.00000000000E+00 0. -1.
          1    1    1    2  501    0 -0.54326350211E+02 -0.32813937522E+02  0.87147803012E+02  0.10780930569E+03  0.00000000000E+00 0. -1.
<scales pt_clust_5="13000.00000" pt_clust_6="13000.00000" pt_clust_7="13000.00000" pt_clust_8="13000.00000" pt_clust_9="20.12347" pt_clust_10="50.00797"></scales>
<clustering>
<clus scale="   20.123">  1  9  2 -1</clus>
<clus scale="   50.008">  1 10  2 -1</clus>
<clus scale="   91.357">  5  6 -1 -1</clus>
<clus scale="   92.042">  7  8 -1 -1</clus>
<clus scale="   95.801">  2  5  1 -1</clus>
<clus scale="   20.123">  1  5  2 -1</clus>
</clustering>
</event>
<event>
10    2  0.6640105E-006  0.2341648E+03  0.7546771E-02  0.1159942E+00
          2   -1    0    0  502    0 -0.00000000000E+00  0.00000000000E+00  0.11498506796E+04  0.11498506796E+04  0.00000000000E+00 0.  1.
         21   -1    0    0  503  502  0.00000000000E+00 -0.00000000000E+00 -0.18815098955E+03  0.18815098955E+03  0.00000000000E+00 0.  1.
         23    2    1    2    0    0 -0.14227883615E+02  0.16918029760E+02  0.44447409351E+02  0.10512404858E+03  0.92665209156E+02 0.  0.
         23    2    1    2    0    0  0.21261534436E+03  0.77273875628E+02  0.87994925955E+03  0.91307190935E+03  0.90626021402E+02 0.  0.
        -13    1    3    3    0    0  0.21416807566E+02  0.45027878879E+02  0.23973636448E+02  0.55325624869E+02  0.00000000000E+00 0. -1.
         13    1    3    3    0    0 -0.35644691181E+02 -0.28109849118E+02  0.20473772903E+02  0.49798423707E+02  0.00000000000E+00 0.  1.
        -13    1    4    4    0    0  0.18259871165E+03  0.97418608032E+02  0.72497500229E+03  0.75393728428E+03  0.00000000000E+00 0.  1.
         13    1    4    4    0    0  0.30016632711E+02 -0.20144732404E+02  0.15497425726E+03  0.15913462507E+03  0.00000000000E+00 0. -1.
         21    1    1    2  503  501 -0.26099270257E+02  0.25012130999E+02 -0.74154610013E+02  0.82496574421E+02  0.00000000000E+00 0. -1.
          2    1    1    2  501    0 -0.17228819048E+03 -0.11920403639E+03  0.11145763117E+03  0.23730913682E+03  0.00000000000E+00 0.  1.
<scales pt_clust_5="13000.00000" pt_clust_6="13000.00000" pt_clust_7="13000.00000" pt_clust_8="13000.00000" pt_clust_9="36.14939" pt_clust_10="215.91686"></scales>
<clustering>
<clus scale="   36.149">  2  9  1 -1</clus>
<clus scale="   90.626">  7  8 -1 -1</clus>
<clus scale="   92.665">  5  6 -1 -1</clus>
<clus scale="   98.052">  1  5  2 -1</clus>
<clus scale="  215.917">  2 10  1 -1</clus>
<clus scale="   36.149">  2  5  1 -1</clus>
</clustering>
</event>
<event>
10    2  0.6640105E-006  0.1183353E+03  0.7546771E-02  0.1249062E+00
          1   -1    0    0  503    0 -0.00000000000E+00  0.00000000000E+00  0.16319763484E+03  0.16319763484E+03  0.00000000000E+00 0. -1.
         21   -1    0    0  501  502  0.00000000000E+00 -0.00000000000E+00 -0.31402347167E+03  0.31402347167E+03  0.00000000000E+00 0.  1.
         23    2    1    2    0    0 -0.25215925442E+02 -0.61050753159E+02  0.72150864039E+02  0.13935301732E+03  0.99249578833E+02 0.  0.
         23    2    1    2    0    0 -0.65307731059E+02  0.76591304391E+02 -0.14067405236E+03  0.19515940655E+03  0.90369670310E+02 0.  0.
        -11    1    4    4    0    0 -0.61873702991E+01  0.21914482102E+02  0.95658466667E+01  0.24698856238E+02  0.00000000000E+00 0. -1.
         11    1    4    4    0    0 -0.59120360760E+02  0.54676822289E+02 -0.15023989903E+03  0.17046055031E+03  0.00000000000E+00 0.  1.
        -13    1    3    3    0    0 -0.53560943009E+02 -0.56105716353E+02  0.20502613824E+02  0.80230812018E+02  0.00000000000E+00 0. -1.
         13    1    3    3    0    0  0.28345017567E+02 -0.49450368059E+01  0.51648250215E+02  0.59122205305E+02  0.00000000000E+00 0.  1.
         21    1    1    2  503  502  0.12372167649E+02 -0.34083397751E+02 -0.25033894739E+02  0.44061824978E+02  0.00000000000E+00 0.  1.
          1    1    1    2  501    0  0.78151488852E+02  0.18542846519E+02 -0.57268753776E+02  0.98646857658E+02  0.00000000000E+00 0. -1.
<scales pt_clust_5="13000.00000" pt_clust_6="13000.00000" pt_clust_7="13000.00000" pt_clust_8="13000.00000" pt_clust_9="36.25946" pt_clust_10="82.10133"></scales>
<clustering>
<clus scale="   36.259">  2  9  1 -1</clus>
<clus scale="   82.101">  2 10  1 -1</clus>
<clus scale="   90.370">  5  6 -1 -1</clus>
<clus scale="   99.250">  7  8 -1 -1</clus>
<clus scale="  110.993">  2  5  1 -1</clus>
<clus scale="   36.259">  2  5  1 -1</clus>
</clustering>
</event>
<event>
10    2  0.6640105E-006  0.1408721E+03  0.7546771E-02  0.1213407E+00
          3   -1    0    0  502    0 -0.00000000000E+00  0.00000000000E+00  0.53581357609E+03  0.53581357609E+03  0.00000000000E+00 0. -1.
         21   -1    0    0  503  502  0.00000000000E+00 -0.00000000000E+00 -0.16871200003E+03  0.16871200003E+03  0.00000000000E+00 0. -1.
         23    2    1    2    0    0 -0.32238610562E+02  0.49434596550E+02  0.10202562142E+03  0.14925618933E+03  0.91570056680E+02 0.  0.
         23    2    1    2    0    0  0.15569749836E+03 -0.37797392731E+02  0.32690193870E+03  0.37675555086E+03  0.97002647824E+02 0.  0.
        -11    1    4    4    0    0  0.31399447123E+02 -0.39000926471E+02  0.40010037031E+02  0.64092125947E+02  0.00000000000E+00 0.  1.
         11    1    4    4    0    0  0.12429805124E+03  0.12035337395E+01  0.28689190167E+03  0.31266342492E+03  0.00000000000E+00 0. -1.
        -13    1    3    3    0    0  0.11736233237E+02  0.47721021075E+02  0.91722592094E+02  0.10405800749E+03  0.00000000000E+00 0. -1.
         13    1    3    3    0    0 -0.43974843799E+02  0.17135754754E+01  0.10303029324E+02  0.45198181836E+02  0.00000000000E+00 0.  1.
         21    1    1    2  503  501 -0.40745949178E+02  0.63689680248E+01 -0.81738504571E+02  0.91553149905E+02  0.00000000000E+00 0. -1.
          3    1    1    2  501    0 -0.82712938623E+02 -0.18006171844E+02  0.19912520510E+02  0.86960686020E+02  0.00000000000E+00 0. -1.
<scales pt_clust_5="13000.00000" pt_clust_6="13000.00000" pt_clust_7="13000.00000" pt_clust_8="13000.00000" pt_clust_9="41.24071" pt_clust_10="100.54475"></scales>
<clustering>
<clus scale="   41.241">  2  9  1 -1</clus>
<clus scale="   91.570">  7  8 -1 -1</clus>
<clus scale="   97.003">  5  6 -1 -1</clus>
<clus scale="  100.545">  2 10  1 -1</clus>
<clus scale="  137.188">  1  7  2 -1</clus>
<clus scale="   41.241">  2  5  1 -1</clus>
</clustering>
</event>
<event>
10    2  0.6640105E-006  0.1412511E+03  0.7546771E-02  0.1229498E+00
         21   -1    0    0  501  502  0.00000000000E+00  0.00000000000E+00  0.94489574116E+02  0.94489574116E+02  0.00000000000E+00 0. -1.
          1   -1    0    0  503    0 -0.00000000000E+00 -0.00000000000E+00 -0.14221900250E+04  0.14221900250E+04  0.00000000000E+00 0. -1.
         23    2    1    2    0    0  0.24701590454E+02 -0.25505383971E+02 -0.53253388088E+03  0.54141888182E+03  0.91002077578E+02 0.  0.
         23    2    1    2    0    0  0.64896290893E+02  0.87436947670E+02 -0.81697098306E+03  0.82915520442E+03  0.90553947780E+02 0.  0.
        -11    1    3    3    0    0  0.23172463380E+02  0.32328258834E+02 -0.20814581794E+03  0.21191215374E+03  0.00000000000E+00 0. -1.
         11    1    3    3    0    0  0.15291270747E+01 -0.57833642805E+02 -0.32438806294E+03  0.32950672807E+03  0.00000000000E+00 0.  1.
        -11    1    4    4    0    0  0.42275569010E+02 -0.83382570279E+01 -0.23324923315E+03  0.23719602660E+03  0.00000000000E+00 0.  1.
         11    1    4    4    0    0  0.22620721883E+02  0.95775204698E+02 -0.58372174991E+03  0.59195917782E+03  0.00000000000E+00 0. -1.
         21    1    1    2  503  502 -0.18143657316E+02  0.22239803963E+02 -0.11288513807E+02  0.30842044761E+02  0.00000000000E+00 0. -1.
          1    1    1    2  501    0 -0.71454224032E+02 -0.84171367662E+02  0.33092926890E+02  0.11526346809E+03  0.00000000000E+00 0. -1.
<scales pt_clust_5="13000.00000" pt_clust_6="13000.00000" pt_clust_7="13000.00000" pt_clust_8="13000.00000" pt_clust_9="28.70194" pt_clust_10="108.40594"></scales>
<clustering>
<clus scale="   28.702">  1  9  2 -1</clus>
<clus scale="   90.554">  7  8 -1 -1</clus>
<clus scale="   91.002">  5  6 -1 -1</clus>
<clus scale="   97.149">  2  5  1 -1</clus>
<clus scale="  108.406">  1 10  2 -1</clus>
<clus scale="   28.702">  1  5  2 -1</clus>
</clustering>
</event>
<event>
10    2  0.6640105E-006  0.2405311E+03  0.7546771E-02  0.1119478E+00
         21   -1    0    0  503  502  0.00000000000E+00  0.00000000000E+00  0.83571602161E+03  0.83571602161E+03  0.00000000000E+00 0.  1.
         -1   -1    0    0    0  501 -0.00000000000E+00 -0.00000000000E+00 -0.20004669665E+03  0.20004669665E+03  0.00000000000E+00 0.  1.
         23    2    1    2    0    0  0.21082314470E+03 -0.11335192287E+02  0.34824388508E+02  0.23251868824E+03  0.90979763806E+02 0.  0.
         23    2    1    2    0    0 -0.23882887005E+03 -0.68980667199E+02  0.12483919316E+03  0.29248823580E+03  0.90371357832E+02 0.  0.
        -11    1    4    4    0    0 -0.44123795882E+02 -0.43431949911E+02  0.42828177125E+01  0.62061148585E+02  0.00000000000E+00 0. -1.
         11    1    4    4    0    0 -0.19470507416E+03 -0.25548717288E+02  0.12055637545E+03  0.23042708721E+03  0.00000000000E+00 0.  1.
        -13    1    3    3    0    0  0.86936160370E+02  0.25936960924E+02  0.47715725857E+02  0.10250567016E+03  0.00000000000E+00 0.  1.
         13    1    3    3    0    0  0.12388698433E+03 -0.37272153211E+02 -0.12891337349E+02  0.13001301808E+03  0.00000000000E+00 0. -1.
         21    1    1    2  503  501  0.74163023149E+02 -0.16901737749E+02  0.16588927940E+03  0.18249678288E+03  0.00000000000E+00 0.  1.
         -1    1    1    2    0  502 -0.46157297803E+02  0.97217597235E+02  0.31011646389E+03  0.32825901134E+03  0.00000000000E+00 0.  1.
<scales pt_clust_5="13000.00000" pt_clust_6="13000.00000" pt_clust_7="13000.00000" pt_clust_8="13000.00000" pt_clust_9="76.06460" pt_clust_10="89.66450"></scales>
<clustering>
<clus scale="   76.065">  1  9  2 -1</clus>
<clus scale="   89.665">  1 10  2 -1</clus>
<clus scale="   90.371">  5  6 -1 -1</clus>
<clus scale="   90.980">  7  8 -1 -1</clus>
<clus scale="  240.302">  1  5  2 -1</clus>
<clus scale="   76.065">  1  5  2 -1</clus>
</clustering>
</event>
<event>
10    2  0.6640105E-006  0.4229670E+03  0.7546771E-02  0.1054927E+00
         21   -1    0    0  503  502  0.00000000000E+00  0.00000000000E+00  0.11068451545E+04  0.11068451545E+04  0.00000000000E+00 0.  1.
          1   -1    0    0  502    0 -0.00000000000E+00 -0.00000000000E+00 -0.15247126391E+04  0.15247126391E+04  0.00000000000E+00 0. -1.
         23    2    1    2    0    0  0.22790117791E+03  0.15099818820E+02 -0.11129555952E+03  0.27004583641E+03  0.91493719860E+02 0.  0.
         23    2    1    2    0    0 -0.10131500135E+03  0.23200566149E+03 -0.40498780880E+03  0.48629845654E+03  0.91540740113E+02 0.  0.
        -13    1    3    3    0    0  0.29045204630E+02 -0.59353581507E+01  0.15315302648E+02  0.33367812089E+02  0.00000000000E+00 0.  1.
         13    1    3    3    0    0  0.19885597328E+03  0.21035176971E+02 -0.12661086217E+03  0.23667802432E+03  0.00000000000E+00 0. -1.
        -13    1    4    4    0    0 -0.56862285885E+02  0.21346716544E+03 -0.33817194611E+03  0.40393293430E+03  0.00000000000E+00 0. -1.
         13    1    4    4    0    0 -0.44452715463E+02  0.18538496055E+02 -0.66815862687E+02  0.82365522245E+02  0.00000000000E+00 0.  1.
         21    1    1    2  503  501  0.36012897670E+03 -0.22370372941E+03  0.86704379721E+03  0.96514309026E+03  0.00000000000E+00 0.  1.
          1    1    1    2  501    0 -0.48671515326E+03 -0.23401750901E+02 -0.76862791354E+03  0.91007041037E+03  0.00000000000E+00 0. -1.
<scales pt_clust_5="13000.00000" pt_clust_6="13000.00000" pt_clust_7="13000.00000" pt_clust_8="13000.00000" pt_clust_9="422.96702" pt_clust_10="13000.00000"></scales>
<clustering>
<clus scale="   91.494">  5  6 -1 -1</clus>
<clus scale="   91.541">  7  8 -1 -1</clus>
<clus scale="  246.045">  2  5  1 -1</clus>
<clus scale="  255.356">  2  7  1 -1</clus>
<clus scale="  422.967">  1  9  2 -1</clus>
<clus scale="  422.967">  1  5  2 -1</clus>
</clustering>
</event>
<event>
10    2  0.6640105E-006  0.1112896E+03  0.7546771E-02  0.1259160E+00
         21   -1    0    0  503  502  0.00000000000E+00  0.00000000000E+00  0.12288631979E+03  0.12288631979E+03  0.00000000000E+00 0.  1.
          1   -1    0    0  502    0 -0.00000000000E+00 -0.00000000000E+00 -0.27680150092E+03  0.27680150092E+03  0.00000000000E+00 0. -1.
         23    2    1    2    0    0 -0.24959751043E+02  0.60422221835E+02 -0.16508352671E+03  0.20058863078E+03  0.93324133758E+02 0.  0.
         23    2    1    2    0    0 -0.21166423564E+02 -0.57413518726E+02 -0.27200206658E+02  0.11284607092E+03  0.90829812623E+02 0.  0.
        -11    1    3    3    0    0 -0.39873336583E+02  0.79415458891E+02 -0.11850196929E+03  0.14811959629E+03  0.00000000000E+00 0.  1.
         11    1    3    3    0    0  0.14913585540E+02 -0.18993237056E+02 -0.46581557427E+02  0.52469034486E+02  0.00000000000E+00 0. -1.
        -11    1    4    4    0    0 -0.54441547681E+02 -0.44265760871E+02 -0.41577070276E+01  0.70289588326E+02  0.00000000000E+00 0.  1.
         11    1    4    4    0    0  0.33275124117E+02 -0.13147757855E+02 -0.23042499630E+02  0.42556482595E+02  0.00000000000E+00 0. -1.
         21    1    1    2  503  501 -0.63305579492E+01 -0.20846075509E+02  0.93538679653E+01  0.23709274008E+02  0.00000000000E+00 0. -1.
          1    1    1    2  501    0  0.52456732556E+02  0.17837372401E+02  0.29014684270E+02  0.62543845004E+02  0.00000000000E+00 0. -1.
<scales pt_clust_5="13000.00000" pt_clust_6="13000.00000" pt_clust_7="13000.00000" pt_clust_8="13000.00000" pt_clust_9="21.78612" pt_clust_10="50.51565"></scales>
<clustering>
<clus scale="   21.786">  1  9  2 -1</clus>
<clus scale="   50.516">  1 10  2 -1</clus>
<clus scale="   90.830">  7  8 -1 -1</clus>
<clus scale="   93.324">  5  6 -1 -1</clus>
<clus scale="  109.206">  1  7  2 -1</clus>
<clus scale="   21.786">  1  5  2 -1</clus>
</clustering>
</event>
<event>
10    2  0.6640105E-006  0.1366858E+03  0.7546771E-02  0.1218441E+00
         -1   -1    0    0    0  501 -0.00000000000E+00  0.00000000000E+00  0.86557214514E+03  0.86557214514E+03  0.00000000000E+00 0.  1.
         21   -1    0    0  503  502  0.00000000000E+00 -0.00000000000E+00 -0.18790913331E+03  0.18790913331E+03  0.00000000000E+00 0.  1.
         23    2    1    2    0    0  0.11736180855E+03 -0.39622901866E+02  0.66768571208E+03  0.68582332635E+03  0.95946111902E+02 0.  0.
         23    2    1    2    0    0 -0.38083330919E+02  0.15665324849E+02  0.11656888685E+03  0.15503971726E+03  0.93558890810E+02 0.  0.
        -11    1    4    4    0    0 -0.22918903892E+02 -0.32100821148E+02  0.15786748915E+02  0.42484824529E+02  0.00000000000E+00 0. -1.
         11    1    4    4    0    0 -0.15164427027E+02  0.47766145996E+02  0.10078213794E+03  0.11255489273E+03  0.00000000000E+00 0.  1.
        -13    1    3    3    0    0  0.96814932290E+01 -0.47304308640E+02  0.18322002208E+03  0.18947560639E+03  0.00000000000E+00 0. -1.
         13    1    3    3    0    0  0.10768031532E+03  0.76814067736E+01  0.48446569000E+03  0.49634771996E+03  0.00000000000E+00 0.  1.
         21    1    1    2  503  501 -0.10158686731E+02  0.32917421715E+02 -0.13352488153E+03  0.13789724274E+03  0.00000000000E+00 0.  1.
         -1    1    1    2    0  502 -0.69119790897E+02 -0.89598446973E+01  0.26933294420E+02  0.74720992090E+02  0.00000000000E+00 0.  1.
<scales pt_clust_5="13000.00000" pt_clust_6="13000.00000" pt_clust_7="13000.00000" pt_clust_8="13000.00000" pt_clust_9="34.44932" pt_clust_10="74.02242"></scales>
<clustering>
<clus scale="   34.449">  2  9  1 -1</clus>
<clus scale="   74.022">  2 10  1 -1</clus>
<clus scale="   93.559">  5  6 -1 -1</clus>
<clus scale="   95.946">  7  8 -1 -1</clus>
<clus scale="  135.021">  2  5  1 -1</clus>
<clus scale="   34.449">  2  5  1 -1</clus>
</clustering>
</event>
<event>
10    2  0.6640105E-006  0.2076743E+03  0.7546771E-02  0.1165854E+00
          1   -1    0    0  503    0 -0.00000000000E+00  0.00000000000E+00  0.77558327530E+03  0.77558327530E+03  0.00000000000E+00 0. -1.
         21   -1    0    0  501  502  0.00000000000E+00 -0.00000000000E+00 -0.12272369187E+03  0.12272369187E+03  0.00000000000E+00 0.  1.
         23    2    1    2    0    0  0.40782109017E+02  0.62540841151E+02  0.20049970699E+03  0.23642735012E+03  0.10061422441E+03 0.  0.
         23    2    1    2    0    0 -0.13701235445E+03  0.12252938967E+03  0.36887382491E+03  0.42210074711E+03  0.91188296405E+02 0.  0.
        -13    1    4    4    0    0 -0.57443119107E+02  0.98058887525E+02  0.26939745839E+03  0.29238715421E+03  0.00000000000E+00 0.  1.
         13    1    4    4    0    0 -0.79569235347E+02  0.24470502146E+02  0.99476366513E+02  0.12971359290E+03  0.00000000000E+00 0. -1.
        -13    1    3    3    0    0 -0.59607257282E+01  0.30395947902E+02  0.16844320089E+03  0.17126749787E+03  0.00000000000E+00 0. -1.
         13    1    3    3    0    0  0.46742834745E+02  0.32144893249E+02  0.32056506101E+02  0.65159852251E+02  0.00000000000E+00 0.  1.
         21    1    1    2  503  502  0.24602160895E+01 -0.32384621785E+02 -0.14486734811E+02  0.35562366018E+02  0.00000000000E+00 0. -1.
          1    1    1    2  501    0  0.93770029347E+02 -0.15268560904E+03  0.97972786350E+02  0.20421650393E+03  0.00000000000E+00 0. -1.
<scales pt_clust_5="13000.00000" pt_clust_6="13000.00000" pt_clust_7="13000.00000" pt_clust_8="13000.00000" pt_clust_9="32.47794" pt_clust_10="186.58323"></scales>
<clustering>
<clus scale="   32.478">  2  9  1 -1</clus>
<clus scale="   91.188">  5  6 -1 -1</clus>
<clus scale="  100.614">  7  8 -1 -1</clus>
<clus scale="  122.579">  1  7  2 -1</clus>
<clus scale="  186.583">  2 10  1 -1</clus>
<clus scale="   32.478">  2  5  1 -1</clus>
</clustering>
</event>
<event>
10    2  0.6640105E-006  0.1195149E+03  0.7546771E-02  0.1253190E+00
          1   -1    0    0  503    0 -0.00000000000E+00  0.00000000000E+00  0.20621901906E+03  0.20621901906E+03  0.00000000000E+00 0. -1.
         21   -1    0    0  501  502  0.00000000000E+00 -0.00000000000E+00 -0.30063690833E+03  0.30063690833E+03  0.00000000000E+00 0.  1.
         23    2    1    2    0    0  0.34155799693E+02  0.33047656550E+00 -0.24950973661E+02  0.10231408724E+03  0.93160579080E+02 0.  0.
         23    2    1    2    0    0 -0.20900396836E+02  0.53945150885E+02  0.44012347313E+02  0.11691657753E+03  0.91572340217E+02 0.  0.
        -11    1    3    3    0    0  0.17490439610E+02 -0.36673987631E+02  0.16910057946E+02  0.44009622883E+02  0.00000000000E+00 0. -1.
         11    1    3    3    0    0  0.16665360083E+02  0.37004464197E+02 -0.41861031607E+02  0.58304464361E+02  0.00000000000E+00 0.  1.
        -11    1    4    4    0    0  0.65668307397E+01  0.42064719467E+02 -0.19408582181E+02  0.46789496173E+02  0.00000000000E+00 0. -1.
         11    1    4    4    0    0 -0.27467227576E+02  0.11880431418E+02  0.63420929495E+02  0.70127081355E+02  0.00000000000E+00 0.  1.
         21    1    1    2  503  502  0.62036520173E+02 -0.11891326270E+03 -0.13028098346E+03  0.18698135879E+03  0.00000000000E+00 0.  1.
          1    1    1    2  501    0 -0.75291923030E+02  0.64637635254E+02  0.16801720536E+02  0.10064390383E+03  0.00000000000E+00 0. -1.
<scales pt_clust_5="13000.00000" pt_clust_6="13000.00000" pt_clust_7="13000.00000" pt_clust_8="13000.00000" pt_clust_9="76.80051" pt_clust_10="90.56742"></scales>
<clustering>
<clus scale="   91.572">  7  8 -1 -1</clus>
<clus scale="   93.161">  5  6 -1 -1</clus>
<clus scale="   99.225">  1  5  2 -1</clus>
<clus scale="   90.567">  2 10  1 -1</clus>
<clus scale="   76.801">  2  9  1 -1</clus>
<clus scale="   90.567">  2  5  1 -1</clus>
</clustering>
</event>
<event>
10    2  0.6640105E-006  0.9843202E+02  0.7546771E-02  0.1286774E+00
         21   -1    0    0  501  502  0.00000000000E+00  0.00000000000E+00  0.55265437191E+03  0.55265437191E+03  0.00000000000E+00 0. -1.
          1   -1    0    0  503    0 -0.00000000000E+00 -0.00000000000E+00 -0.70505017640E+02  0.70505017640E+02  0.00000000000E+00 0. -1.
         23    2    1    2    0    0 -0.38923759730E+02 -0.16064568679E+02  0.11393624874E+01  0.98771833774E+02  0.89338947620E+02 0.  0.
         23    2    1    2    0    0 -0.38641879022E+02 -0.16510446196E+01  0.16120290317E+03  0.19117721217E+03  0.95217801383E+02 0.  0.
        -11    1    3    3    0    0 -0.62103150330E+02 -0.30477511351E+02 -0.87730345182E+01  0.69732676083E+02  0.00000000000E+00 0. -1.
         11    1    3    3    0    0  0.23179390600E+02  0.14412942672E+02  0.99123970056E+01  0.29039157691E+02  0.00000000000E+00 0.  1.
        -13    1    4    4    0    0  0.24134470923E+02 -0.17131087559E+02  0.91205824391E+02  0.95887690819E+02  0.00000000000E+00 0.  1.
         13    1    4    4    0    0 -0.62776349945E+02  0.15480042940E+02  0.69997078778E+02  0.95289521350E+02  0.00000000000E+00 0. -1.
         21    1    1    2  503  502  0.16230688560E+02 -0.16647193852E+02  0.79757519153E+02  0.83077230188E+02  0.00000000000E+00 0. -1.
          1    1    1    2  501    0  0.61334950192E+02  0.34362807151E+02  0.24004956946E+03  0.25013311342E+03  0.00000000000E+00 0. -1.
<scales pt_clust_5="13000.00000" pt_clust_6="13000.00000" pt_clust_7="13000.00000" pt_clust_8="13000.00000" pt_clust_9="23.25004" pt_clust_10="74.36057"></scales>
<clustering>
<clus scale="   23.250">  1  9  2 -1</clus>
<clus scale="   74.361">  1 10  2 -1</clus>
<clus scale="   89.339">  5  6 -1 -1</clus>
<clus scale="   92.757">  2  5  1 -1</clus>
<clus scale="   95.218">  7  8 -1 -1</clus>
<clus scale="   23.250">  1  5  2 -1</clus>
</clustering>
</event>
<event>
10    2  0.8170997E-006  0.1598155E+03  0.7546771E-02  0.1189231E+00
         21   -1    0    0  501  502  0.00000000000E+00  0.00000000000E+00  0.22767574415E+03  0.22767574415E+03  0.00000000000E+00 0. -1.
          1   -1    0    0  503    0 -0.00000000000E+00 -0.00000000000E+00 -0.37697711048E+03  0.37697711048E+03  0.00000000000E+00 0. -1.
         23    2    1    2    0    0 -0.10132604975E+03 -0.74604844838E+02 -0.28594245146E+03  0.32527413327E+03  0.90594287889E+02 0.  0.
         23    2    1    2    0    0  0.13968645780E+03  0.90264869527E+02  0.10170185524E+03  0.21581529902E+03  0.92590079212E+02 0.  0.
        -13    1    3    3    0    0 -0.10797590978E+03 -0.46869089924E+02 -0.26475924768E+03  0.28974638550E+03  0.00000000000E+00 0. -1.
         13    1    3    3    0    0  0.66498600241E+01 -0.27735754915E+02 -0.21183203782E+02  0.35527747768E+02  0.00000000000E+00 0.  1.
        -13    1    4    4    0    0  0.91393513995E+02  0.32650727256E+02  0.10178527844E+03  0.14063814311E+03  0.00000000000E+00 0.  1.
         13    1    4    4    0    0  0.48292943804E+02  0.57614142271E+02 -0.83423202216E-01  0.75177155907E+02  0.00000000000E+00 0. -1.
         21    1    1    2  503  502 -0.25545660768E+02  0.75054854731E+01  0.17636919003E+02  0.31937031925E+02  0.00000000000E+00 0. -1.
          1    1    1    2  501    0 -0.12814747279E+02 -0.23165510162E+02  0.17302310884E+02  0.31626390417E+02  0.00000000000E+00 0. -1.
<scales pt_clust_5="13000.00000" pt_clust_6="13000.00000" pt_clust_7="13000.00000" pt_clust_8="13000.00000" pt_clust_9="27.50974" pt_clust_10="26.47373"></scales>
<clustering>
<clus scale="   26.474">  1 10  2 -1</clus>
<clus scale="   27.510">  1  9  2 -1</clus>
<clus scale="   90.594">  5  6 -1 -1</clus>
<clus scale="   92.590">  7  8 -1 -1</clus>
<clus scale="  158.668">  2  5  1 -1</clus>
<clus scale="   26.474">  1  5  2 -1</clus>
</clustering>
</event>
<event>
10    2  0.6640105E-006  0.1450891E+03  0.7546771E-02  0.1206851E+00
         21   -1    0    0  503  502  0.00000000000E+00  0.00000000000E+00  0.30723351876E+03  0.30723351876E+03  0.00000000000E+00 0. -1.
         -1   -1    0    0    0  501 -0.00000000000E+00 -0.00000000000E+00 -0.24568161857E+03  0.24568161857E+03  0.00000000000E+00 0.  1.
         23    2    1    2    0    0  0.25920269505E+02  0.14683880035E+03 -0.10243099293E+03  0.20252162611E+03  0.91046180984E+02 0.  0.
         23    2    1    2    0    0 -0.56202391383E+02 -0.59342163774E+02 -0.17447179005E+02  0.12435204092E+03  0.92080534462E+02 0.  0.
        -11    1    3    3    0    0 -0.58401854006E+01  0.82322155726E+02 -0.67140460700E+01  0.82801711960E+02  0.00000000000E+00 0. -1.
         11    1    3    3    0    0  0.31760454905E+02  0.64516644628E+02 -0.95716946855E+02  0.11971991415E+03  0.00000000000E+00 0.  1.
        -13    1    4    4    0    0 -0.33436724515E+02  0.18096755602E+02 -0.21233566038E+02  0.43547347064E+02  0.00000000000E+00 0.  1.
         13    1    4    4    0    0 -0.22765666869E+02 -0.77438919376E+02  0.37863870336E+01  0.80804693855E+02  0.00000000000E+00 0. -1.
         21    1    1    2  503  501  0.48163248240E+02 -0.67305837022E+02  0.61488187345E+02  0.10310466217E+03  0.00000000000E+00 0.  1.
         -1    1    1    2    0  502 -0.17881126361E+02 -0.20190799558E+02  0.11994188478E+03  0.12293680812E+03  0.00000000000E+00 0.  1.
<scales pt_clust_5="13000.00000" pt_clust_6="13000.00000" pt_clust_7="13000.00000" pt_clust_8="13000.00000" pt_clust_9="86.21738" pt_clust_10="26.97041"></scales>
<clustering>
<clus scale="   26.970">  1 10  2 -1</clus>
<clus scale="   86.217">  1  9  2 -1</clus>
<clus scale="   91.046">  5  6 -1 -1</clus>
<clus scale="   92.081">  7  8 -1 -1</clus>
<clus scale="  144.435">  2  5  1 -1</clus>
<clus scale="   26.970">  1  5  2 -1</clus>
</clustering>
</event>
<event>
10    2  0.6640105E-006  0.2171411E+03  0.7546771E-02  0.1161558E+00
         -4   -1    0    0    0  501 -0.00000000000E+00  0.00000000000E+00  0.55283563750E+03  0.55283563750E+03  0.00000000000E+00 0.  1.
         21   -1    0    0  503  502  0.00000000000E+00 -0.00000000000E+00 -0.82212620926E+03  0.82212620926E+03  0.00000000000E+00 0. -1.
         23    2    1    2    0    0  0.78359676919E+02 -0.21039486734E+02  0.29145524150E+03  0.31460052816E+03  0.86281142525E+02 0.  0.
         23    2    1    2    0    0  0.93031690487E+02 -0.14356335086E+03 -0.60688359381E+02  0.20346753744E+03  0.91927311943E+02 0.  0.
        -13    1    3    3    0    0  0.53226117896E+02 -0.53148080296E+02  0.15681875033E+03  0.17392486459E+03  0.00000000000E+00 0. -1.
         13    1    3    3    0    0  0.25133559023E+02  0.32108593562E+02  0.13463649116E+03  0.14067566358E+03  0.00000000000E+00 0.  1.
        -13    1    4    4    0    0  0.26826696270E+02 -0.46169886367E+02  0.23869010272E+02  0.58489825536E+02  0.00000000000E+00 0. -1.
         13    1    4    4    0    0  0.66204994217E+02 -0.97393464498E+02 -0.84557369653E+02  0.14497771190E+03  0.00000000000E+00 0.  1.
         21    1    1    2  503  501 -0.27209440606E+03  0.65898651059E+02 -0.61451222533E+03  0.67528014416E+03  0.00000000000E+00 0. -1.
         -4    1    1    2    0  502  0.10070303865E+03  0.98704186540E+02  0.11445477146E+03  0.18161363700E+03  0.00000000000E+00 0.  1.
<scales pt_clust_5="13000.00000" pt_clust_6="13000.00000" pt_clust_7="13000.00000" pt_clust_8="13000.00000" pt_clust_9="196.72218" pt_clust_10="170.54748"></scales>
<clustering>
<clus scale="   86.281">  5  6 -1 -1</clus>
<clus scale="   91.927">  7  8 -1 -1</clus>
<clus scale="  118.437">  1  5  2 -1</clus>
<clus scale="  170.547">  2 10  1 -1</clus>
<clus scale="  196.722">  2  9  1 -1</clus>
<clus scale="  170.547">  2  5  1 -1</clus>
</clustering>
</event>
<event>
10    2  0.6640105E-006  0.9493805E+02  0.7546771E-02  0.1300611E+00
         21   -1    0    0  501  502  0.00000000000E+00  0.00000000000E+00  0.78094917775E+02  0.78094917775E+02  0.00000000000E+00 0. -1.
          1   -1    0    0  503    0 -0.00000000000E+00 -0.00000000000E+00 -0.53275860995E+03  0.53275860995E+03  0.00000000000E+00 0. -1.
         23    2    1    2    0    0 -0.37565175070E+01  0.77134199226E+01 -0.39707565413E+03  0.40799887895E+03  0.93383091925E+02 0.  0.
         23    2    1    2    0    0  0.36993478355E+01  0.33862004910E+02 -0.59167169236E+02  0.10369204625E+03  0.78044641002E+02 0.  0.
        -13    1    3    3    0    0  0.21832478943E+02  0.44147058295E+02 -0.20670945713E+03  0.21249569303E+03  0.00000000000E+00 0.  1.
         13    1    3    3    0    0 -0.25588996450E+02 -0.36433638372E+02 -0.19036619700E+03  0.19550318592E+03  0.00000000000E+00 0. -1.
        -13    1    4    4    0    0  0.37218837979E+02  0.34560686806E+02 -0.28420905782E+02  0.58201639654E+02  0.00000000000E+00 0.  1.
         13    1    4    4    0    0 -0.33519490143E+02 -0.69868189587E+00 -0.30746263454E+02  0.45490406596E+02  0.00000000000E+00 0. -1.
         21    1    1    2  503  502 -0.24076073206E+02 -0.35651904863E+00 -0.32528392813E+02  0.40470739378E+02  0.00000000000E+00 0. -1.
          1    1    1    2  501    0  0.24133242877E+02 -0.41218905784E+02  0.34107523999E+02  0.58691863143E+02  0.00000000000E+00 0. -1.
<scales pt_clust_5="13000.00000" pt_clust_6="13000.00000" pt_clust_7="13000.00000" pt_clust_8="13000.00000" pt_clust_9="24.07871" pt_clust_10="47.47327"></scales>
<clustering>
<clus scale="   24.079">  2  9  1 -1</clus>
<clus scale="   47.473">  1 10  2 -1</clus>
<clus scale="   78.045">  7  8 -1 -1</clus>
<clus scale="   79.899">  1  7  2 -1</clus>
<clus scale="   93.383">  5  6 -1 -1</clus>
<clus scale="   47.473">  1  5  2 -1</clus>
</clustering>
</event>
<event>
10    2  0.6640105E-006  0.1558569E+03  0.7546771E-02  0.1215717E+00
          3   -1    0    0  502    0 -0.00000000000E+00  0.00000000000E+00  0.85309707711E+03  0.85309707711E+03  0.00000000000E+00 0. -1.
         21   -1    0    0  503  502  0.00000000000E+00 -0.00000000000E+00 -0.62653100020E+02  0.62653100020E+02  0.00000000000E+00 0. -1.
         23    2    1    2    0    0  0.26455610202E+00  0.40963785073E+02  0.18517862832E+03  0.20970283300E+03  0.89476544978E+02 0.  0.
         23    2    1    2    0    0  0.72094660666E+02 -0.12760860424E+03  0.34913068540E+03  0.38931732642E+03  0.90521539928E+02 0.  0.
        -11    1    4    4    0    0  0.31088313889E+02 -0.10049666538E+03  0.14371444583E+03  0.17810082805E+03  0.00000000000E+00 0. -1.
         11    1    4    4    0    0  0.41006346777E+02 -0.27111938865E+02  0.20541623956E+03  0.21121649837E+03  0.00000000000E+00 0.  1.
        -11    1    3    3    0    0  0.37955811844E+02  0.52838087479E+01  0.12234248233E+03  0.12820392065E+03  0.00000000000E+00 0.  1.
         11    1    3    3    0    0 -0.37691255742E+02  0.35679976325E+02  0.62836145992E+02  0.81498912343E+02  0.00000000000E+00 0. -1.
         21    1    1    2  503  501 -0.40657595280E+02 -0.24286229596E+02  0.15438374226E+02  0.49811689398E+02  0.00000000000E+00 0.  1.
          3    1    1    2  501    0 -0.31701621488E+02  0.11093104877E+03  0.24069628914E+03  0.26691832832E+03  0.00000000000E+00 0. -1.
<scales pt_clust_5="13000.00000" pt_clust_6="13000.00000" pt_clust_7="13000.00000" pt_clust_8="13000.00000" pt_clust_9="47.35885" pt_clust_10="126.87480"></scales>
<clustering>
<clus scale="   47.359">  2  9  1 -1</clus>
<clus scale="   89.477">  7  8 -1 -1</clus>
<clus scale="   90.522">  5  6 -1 -1</clus>
<clus scale="   96.462">  1  7  2 -1</clus>
<clus scale="  126.875">  2 10  1 -1</clus>
<clus scale="   47.359">  2  5  1 -1</clus>
</clustering>
</event>
<event>
10    2  0.6640105E-006  0.8918394E+02  0.7546771E-02  0.1304999E+00
         21   -1    0    0  501  502  0.00000000000E+00  0.00000000000E+00  0.11931574791E+03  0.11931574791E+03  0.00000000000E+00 0. -1.
          2   -1    0    0  503    0 -0.00000000000E+00 -0.00000000000E+00 -0.65317290788E+03  0.65317290788E+03  0.00000000000E+00 0. -1.
         23    2    1    2    0    0  0.23033153003E+02  0.24439036158E+01 -0.33440935998E+03  0.34681070428E+03  0.88946870424E+02 0.  0.
         23    2    1    2    0    0  0.14961340140E+02 -0.55741867997E+01 -0.28297748041E+03  0.29697917374E+03  0.88687439684E+02 0.  0.
        -11    1    3    3    0    0 -0.14028424761E+02 -0.31856009457E+02 -0.77103812766E+02  0.84596690141E+02  0.00000000000E+00 0.  1.
         11    1    3    3    0    0  0.37061577765E+02  0.34299913073E+02 -0.25730554721E+03  0.26221401414E+03  0.00000000000E+00 0. -1.
        -13    1    4    4    0    0  0.36101255257E+02 -0.32602730015E+02 -0.21945186017E+03  0.22477846331E+03  0.00000000000E+00 0. -1.
         13    1    4    4    0    0 -0.21139915118E+02  0.27028543215E+02 -0.63525620237E+02  0.72200710426E+02  0.00000000000E+00 0.  1.
         21    1    1    2  503  502  0.27570994349E+02  0.14801186444E+02  0.25491609769E+02  0.40361578489E+02  0.00000000000E+00 0. -1.
          2    1    1    2  501    0 -0.65565487492E+02 -0.11670903260E+02  0.58038070645E+02  0.88337199283E+02  0.00000000000E+00 0. -1.
<scales pt_clust_5="13000.00000" pt_clust_6="13000.00000" pt_clust_7="13000.00000" pt_clust_8="13000.00000" pt_clust_9="31.29273" pt_clust_10="42.21668"></scales>
<clustering>
<clus scale="   31.293">  1  9  2 -1</clus>
<clus scale="   42.217">  1 10  2 -1</clus>
<clus scale="   88.687">  7  8 -1 -1</clus>
<clus scale="   88.925">  1  7  2 -1</clus>
<clus scale="   88.947">  5  6 -1 -1</clus>
<clus scale="   31.293">  1  5  2 -1</clus>
</clustering>
</event>
<event>
10    2  0.6640105E-006  0.1283451E+03  0.7546771E-02  0.1229974E+00
         21   -1    0    0  501  502  0.00000000000E+00  0.00000000000E+00  0.26490709739E+03  0.26490709739E+03  0.00000000000E+00 0.  1.
          1   -1    0    0  503    0 -0.00000000000E+00 -0.00000000000E+00 -0.28988812077E+03  0.28988812077E+03  0.00000000000E+00 0. -1.
         23    2    1    2    0    0  0.79643598929E+02 -0.60914887417E+01 -0.10659330144E+03  0.16150291216E+03  0.91328252136E+02 0.  0.
         23    2    1    2    0    0 -0.99438860360E+02  0.61564799211E+02 -0.55305869904E+02  0.15826910078E+03  0.91170486263E+02 0.  0.
        -11    1    3    3    0    0  0.73012473825E+02  0.33996333394E+02 -0.74700751658E+02  0.10984887035E+03  0.00000000000E+00 0.  1.
         11    1    3    3    0    0  0.66311251041E+01 -0.40087822136E+02 -0.31892549780E+02  0.51654041809E+02  0.00000000000E+00 0. -1.
        -13    1    4    4    0    0 -0.19095989657E+02  0.52622273241E+02 -0.53464101885E+02  0.77409112205E+02  0.00000000000E+00 0. -1.
         13    1    4    4    0    0 -0.80342870703E+02  0.89425259702E+01 -0.18417680188E+01  0.80859988579E+02  0.00000000000E+00 0.  1.
         21    1    1    2  503  502  0.67247654200E+02 -0.86169228346E+02  0.14094856605E+03  0.17836446165E+03  0.00000000000E+00 0.  1.
          1    1    1    2  501    0 -0.47452392768E+02  0.30695917877E+02 -0.40304180841E+01  0.56658743576E+02  0.00000000000E+00 0. -1.
<scales pt_clust_5="13000.00000" pt_clust_6="13000.00000" pt_clust_7="13000.00000" pt_clust_8="13000.00000" pt_clust_9="74.61231" pt_clust_10="56.51524"></scales>
<clustering>
<clus scale="   56.515">  1 10  2 -1</clus>
<clus scale="   74.612">  1  9  2 -1</clus>
<clus scale="   91.170">  7  8 -1 -1</clus>
<clus scale="   91.328">  5  6 -1 -1</clus>
<clus scale="  128.233">  1  7  2 -1</clus>
<clus scale="   56.515">  1  5  2 -1</clus>
</clustering>
</event>
<event>
10    2  0.6640105E-006  0.1361789E+03  0.7546771E-02  0.1221360E+00
          2   -1    0    0  503    0 -0.00000000000E+00  0.00000000000E+00  0.53959605107E+03  0.53959605107E+03  0.00000000000E+00 0. -1.
         21   -1    0    0  501  502  0.00000000000E+00 -0.00000000000E+00 -0.65979712513E+02  0.65979712513E+02  0.00000000000E+00 0.  1.
         23    2    1    2    0    0  0.75334358969E+02 -0.23388676117E+02  0.22764264301E+03  0.26169897564E+03  0.10219043558E+03 0.  0.
         23    2    1    2    0    0 -0.84907179963E+02  0.60617508414E+02  0.24539026283E+03  0.28193849435E+03  0.91592696062E+02 0.  0.
        -11    1    3    3    0    0  0.70066716584E+02 -0.56446171731E+02  0.12705188883E+03  0.15568460917E+03  0.00000000000E+00 0.  1.
         11    1    3    3    0    0  0.52676423849E+01  0.33057495614E+02  0.10059075418E+03  0.10601436648E+03  0.00000000000E+00 0. -1.
        -13    1    4    4    0    0  0.97134350743E+01  0.31413964181E+02  0.28507318881E+02  0.43518446620E+02  0.00000000000E+00 0.  1.
         13    1    4    4    0    0 -0.94620615037E+02  0.29203544233E+02  0.21688294395E+03  0.23842004773E+03  0.00000000000E+00 0. -1.
         21    1    1    2  503  502  0.22079608693E+02 -0.50497556638E+01 -0.11447191660E+02  0.25378087973E+02  0.00000000000E+00 0. -1.
          2    1    1    2  501    0 -0.12506787699E+02 -0.32179076633E+02  0.12030624375E+02  0.36560205611E+02  0.00000000000E+00 0. -1.
<scales pt_clust_5="13000.00000" pt_clust_6="13000.00000" pt_clust_7="13000.00000" pt_clust_8="13000.00000" pt_clust_9="22.64971" pt_clust_10="34.16741"></scales>
<clustering>
<clus scale="   22.650">  2  9  1 -1</clus>
<clus scale="   34.167">  2 10  1 -1</clus>
<clus scale="   91.593">  7  8 -1 -1</clus>
<clus scale="  102.190">  5  6 -1 -1</clus>
<clus scale="  128.417">  2  7  1 -1</clus>
<clus scale="   22.650">  2  5  1 -1</clus>
</clustering>
</event>
<event>
10    2  0.6640105E-006  0.3007138E+03  0.7546771E-02  0.1123041E+00
         21   -1    0    0  503  502  0.00000000000E+00  0.00000000000E+00  0.28892356884E+03  0.28892356884E+03  0.00000000000E+00 0. -1.
          1   -1    0    0  502    0 -0.00000000000E+00 -0.00000000000E+00 -0.77174936186E+03  0.77174936186E+03  0.00000000000E+00 0. -1.
         23    2    1    2    0    0  0.62981718034E+02 -0.14167636545E+02 -0.37137854773E+03  0.38784250305E+03  0.91281776550E+02 0.  0.
         23    2    1    2    0    0 -0.10726234839E+03 -0.27242727459E+03 -0.11818945422E+02  0.30662870887E+03  0.90330760588E+02 0.  0.
        -13    1    3    3    0    0 -0.98993332781E+01  0.20159134179E+02 -0.32400529336E+02  0.39423112402E+02  0.00000000000E+00 0.  1.
         13    1    3    3    0    0  0.72881051312E+02 -0.34326770724E+02 -0.33897801839E+03  0.34841939065E+03  0.00000000000E+00 0. -1.
        -13    1    4    4    0    0 -0.95981840760E+02 -0.23630331527E+03 -0.41662678442E+02  0.25843287202E+03  0.00000000000E+00 0.  1.
         13    1    4    4    0    0 -0.11280507634E+02 -0.36123959315E+02  0.29843733019E+02  0.48195836849E+02  0.00000000000E+00 0. -1.
         21    1    1    2  503  501  0.37078865023E+02 -0.40401382208E+01  0.30020448978E+02  0.47878933834E+02  0.00000000000E+00 0. -1.
          1    1    1    2  501    0  0.72017653361E+01  0.29063504935E+03 -0.12964874885E+03  0.31832278494E+03  0.00000000000E+00 0. -1.
<scales pt_clust_5="13000.00000" pt_clust_6="13000.00000" pt_clust_7="13000.00000" pt_clust_8="13000.00000" pt_clust_9="37.29832" pt_clust_10="286.82617"></scales>
<clustering>
<clus scale="   37.298">  1  9  2 -1</clus>
<clus scale="   90.331">  7  8 -1 -1</clus>
<clus scale="   91.282">  5  6 -1 -1</clus>
<clus scale="  112.512">  2  5  1 -1</clus>
<clus scale="  286.826">  1 10  2 -1</clus>
<clus scale="   37.298">  1  5  2 -1</clus>
</clustering>
</event>
<event>
10    2  0.6640105E-006  0.1006082E+03  0.7546771E-02  0.1280229E+00
          1   -1    0    0  502    0 -0.00000000000E+00  0.00000000000E+00  0.18539514140E+03  0.18539514140E+03  0.00000000000E+00 0. -1.
         21   -1    0    0  503  502  0.00000000000E+00 -0.00000000000E+00 -0.32401219900E+03  0.32401219900E+03  0.00000000000E+00 0.  1.
         23    2    1    2    0    0  0.39018770461E+02 -0.13415287867E+02  0.91698820964E+02  0.13423819269E+03  0.88931345500E+02 0.  0.
         23    2    1    2    0    0 -0.45857389637E+02 -0.60101243031E+01  0.26490088493E+02  0.10585042988E+03  0.91452539269E+02 0.  0.
        -11    1    4    4    0    0 -0.20464513019E+02 -0.48311140304E+02  0.19721878613E+02  0.56051004153E+02  0.00000000000E+00 0. -1.
         11    1    4    4    0    0 -0.25392876618E+02  0.42301016001E+02  0.67682098802E+01  0.49799425726E+02  0.00000000000E+00 0.  1.
        -11    1    3    3    0    0  0.60140527018E+02  0.15606338267E+01  0.90044996738E+02  0.10829321311E+03  0.00000000000E+00 0. -1.
         11    1    3    3    0    0 -0.21121756557E+02 -0.14975921694E+02  0.16538242257E+01  0.25944979576E+02  0.00000000000E+00 0.  1.
         21    1    1    2  503  501 -0.23253488461E+02 -0.16458960392E+02 -0.15022573458E+03  0.15290321590E+03  0.00000000000E+00 0.  1.
          1    1    1    2  501    0  0.30092107636E+02  0.35884372563E+02 -0.10658023247E+03  0.11641550193E+03  0.00000000000E+00 0. -1.
<scales pt_clust_5="13000.00000" pt_clust_6="13000.00000" pt_clust_7="13000.00000" pt_clust_8="13000.00000" pt_clust_9="28.48898" pt_clust_10="29.39243"></scales>
<clustering>
<clus scale="   28.489">  2  9  1 -1</clus>
<clus scale="   29.392">  2 10  1 -1</clus>
<clus scale="   88.931">  7  8 -1 -1</clus>
<clus scale="   91.453">  5  6 -1 -1</clus>
<clus scale="   98.322">  1  7  2 -1</clus>
<clus scale="   28.489">  2  5  1 -1</clus>
</clustering>
</event>
<event>
10    2  0.6640105E-006  0.1058776E+03  0.7546771E-02  0.1270848E+00
         21   -1    0    0  503  502  0.00000000000E+00  0.00000000000E+00  0.24615933751E+03  0.24615933751E+03  0.00000000000E+00 0.  1.
         -1   -1    0    0    0  501 -0.00000000000E+00 -0.00000000000E+00 -0.10191013592E+03  0.10191013592E+03  0.00000000000E+00 0.  1.
         23    2    1    2    0    0 -0.48600362174E+02 -0.70885075091E+01 -0.29361155690E+02  0.10730213690E+03  0.90771300410E+02 0.  0.
         23    2    1    2    0    0  0.30580129479E+02  0.91515637248E+01  0.75259282825E+02  0.12623581536E+03  0.96190571215E+02 0.  0.
        -11    1    4    4    0    0 -0.69478379993E+01  0.41688288794E+02  0.61633371438E+02  0.74731909853E+02  0.00000000000E+00 0.  1.
         11    1    4    4    0    0  0.37527967478E+02 -0.32536725070E+02  0.13625911387E+02  0.51503905507E+02  0.00000000000E+00 0. -1.
        -13    1    3    3    0    0 -0.45871606974E+02  0.32555090200E+02  0.25947216930E+01  0.56309597805E+02  0.00000000000E+00 0.  1.
         13    1    3    3    0    0 -0.27287552002E+01 -0.39643597709E+02 -0.31955877383E+02  0.50992539097E+02  0.00000000000E+00 0. -1.
         21    1    1    2  503  501 -0.14592820017E+01  0.25065987000E+02  0.46731982737E+02  0.53050084059E+02  0.00000000000E+00 0.  1.
         -1    1    1    2    0  502  0.19479514697E+02 -0.27129043215E+02  0.51619091721E+02  0.61481437106E+02  0.00000000000E+00 0.  1.
<scales pt_clust_5="13000.00000" pt_clust_6="13000.00000" pt_clust_7="13000.00000" pt_clust_8="13000.00000" pt_clust_9="25.10843" pt_clust_10="27.55957"></scales>
<clustering>
<clus scale="   25.108">  1  9  2 -1</clus>
<clus scale="   27.560">  1 10  2 -1</clus>
<clus scale="   90.771">  7  8 -1 -1</clus>
<clus scale="   96.191">  5  6 -1 -1</clus>
<clus scale="  100.980">  2  7  1 -1</clus>
<clus scale="   25.108">  1  5  2 -1</clus>
</clustering>
</event>
<event>
10    2  0.6640105E-006  0.1063220E+03  0.7546771E-02  0.1267688E+00
         21   -1    0    0  501  502  0.00000000000E+00  0.00000000000E+00  0.44026259404E+03  0.44026259404E+03  0.00000000000E+00 0.  1.
          2   -1    0    0  503    0 -0.00000000000E+00 -0.00000000000E+00 -0.14137488488E+03  0.14137488488E+03  0.00000000000E+00 0.  1.
         23    2    1    2    0    0 -0.27220796042E+02  0.52032589776E+02 -0.66137382850E+02  0.12672232259E+03  0.90752583969E+02 0.  0.
         23    2    1    2    0    0  0.55074175820E+02 -0.19814422849E+02  0.35074921650E+02  0.11325143006E+03  0.90387278342E+02 0.  0.
        -11    1    3    3    0    0 -0.83206758242E+01 -0.24977366971E+02 -0.54899177354E+01  0.26893153473E+02  0.00000000000E+00 0. -1.
         11    1    3    3    0    0 -0.18900120218E+02  0.77009956747E+02 -0.60647465114E+02  0.99829169120E+02  0.00000000000E+00 0.  1.
        -13    1    4    4    0    0  0.40818784272E+02 -0.54972016621E+02  0.14117551647E+02  0.69909949402E+02  0.00000000000E+00 0. -1.
         13    1    4    4    0    0  0.14255391548E+02  0.35157593772E+02  0.20957370003E+02  0.43341480656E+02  0.00000000000E+00 0.  1.
         21    1    1    2  503  502  0.10533653793E+02 -0.41405783556E+02  0.23473280689E+03  0.23858936985E+03  0.00000000000E+00 0.  1.
          2    1    1    2  501    0 -0.38387033571E+02  0.91876166297E+01  0.95217363471E+02  0.10307435642E+03  0.00000000000E+00 0.  1.
<scales pt_clust_5="13000.00000" pt_clust_6="13000.00000" pt_clust_7="13000.00000" pt_clust_8="13000.00000" pt_clust_9="38.55356" pt_clust_10="39.47121"></scales>
<clustering>
<clus scale="   39.471">  1 10  2 -1</clus>
<clus scale="   38.554">  1  9  2 -1</clus>
<clus scale="   90.387">  7  8 -1 -1</clus>
<clus scale="   90.753">  5  6 -1 -1</clus>
<clus scale="  106.010">  1  7  2 -1</clus>
<clus scale="   39.471">  1  5  2 -1</clus>
</clustering>
</event>
<event>
10    2  0.6640105E-006  0.1216367E+03  0.7546771E-02  0.1242166E+00
         21   -1    0    0  503  502  0.00000000000E+00  0.00000000000E+00  0.21890578809E+03  0.21890578809E+03  0.00000000000E+00 0.  1.
          1   -1    0    0  502    0 -0.00000000000E+00 -0.00000000000E+00 -0.51403317676E+03  0.51403317676E+03  0.00000000000E+00 0. -1.
         23    2    1    2    0    0 -0.18018079128E+02  0.80250502096E+02 -0.36676608386E+03  0.38792431263E+03  0.95932881742E+02 0.  0.
         23    2    1    2    0    0 -0.86279037820E+01 -0.53815775284E+02 -0.50494980825E+02  0.11710448486E+03  0.90515959321E+02 0.  0.
        -11    1    3    3    0    0 -0.53962958503E+02  0.38735777137E+02 -0.25335052835E+03  0.26191401554E+03  0.00000000000E+00 0.  1.
         11    1    3    3    0    0  0.35944879376E+02  0.41514724959E+02 -0.11341555551E+03  0.12601029709E+03  0.00000000000E+00 0. -1.
        -11    1    4    4    0    0 -0.37822371808E+02 -0.64030537232E+02 -0.40003894333E+02  0.84443786445E+02  0.00000000000E+00 0.  1.
         11    1    4    4    0    0  0.29194468026E+02  0.10214761947E+02 -0.10491086492E+02  0.32660698411E+02  0.00000000000E+00 0. -1.
         21    1    1    2  503  501 -0.19840865560E+02  0.26399665958E+02  0.14897475705E+03  0.15259122041E+03  0.00000000000E+00 0.  1.
          1    1    1    2  501    0  0.46486848470E+02 -0.52834392769E+02 -0.26841081029E+02  0.75318946957E+02  0.00000000000E+00 0. -1.
<scales pt_clust_5="13000.00000" pt_clust_6="13000.00000" pt_clust_7="13000.00000" pt_clust_8="13000.00000" pt_clust_9="33.02427" pt_clust_10="58.66543"></scales>
<clustering>
<clus scale="   33.024">  1  9  2 -1</clus>
<clus scale="   58.665">  1 10  2 -1</clus>
<clus scale="   90.516">  7  8 -1 -1</clus>
<clus scale="   95.933">  5  6 -1 -1</clus>
<clus scale="  117.412">  1  7  2 -1</clus>
<clus scale="   33.024">  1  5  2 -1</clus>
</clustering>
</event>
<event>
10    2  0.6640105E-006  0.1765402E+03  0.7546771E-02  0.1199370E+00
         21   -1    0    0  503  502  0.00000000000E+00  0.00000000000E+00  0.82517279241E+03  0.82517279241E+03  0.00000000000E+00 0. -1.
          3   -1    0    0  502    0 -0.00000000000E+00 -0.00000000000E+00 -0.12615858741E+03  0.12615858741E+03  0.00000000000E+00 0. -1.
         23    2    1    2    0    0 -0.32387368623E+01  0.22494268714E+02 -0.29117424840E+02  0.98942775275E+02  0.91789796864E+02 0.  0.
         23    2    1    2    0    0 -0.11083788784E+03  0.83908538411E+02  0.10008774315E+03  0.19440379248E+03  0.91921694946E+02 0.  0.
        -11    1    4    4    0    0  0.63237003638E+01  0.40768306372E+02  0.18188302902E+02  0.45087230490E+02  0.00000000000E+00 0.  1.
         11    1    4    4    0    0 -0.11716158821E+03  0.43140232039E+02  0.81899440248E+02  0.14931656199E+03  0.00000000000E+00 0. -1.
        -13    1    3    3    0    0  0.28804796293E+01  0.46129146187E+02 -0.49072107191E+02  0.67411178561E+02  0.00000000000E+00 0. -1.
         13    1    3    3    0    0 -0.61192164917E+01 -0.23634877472E+02  0.19954682351E+02  0.31531596714E+02  0.00000000000E+00 0.  1.
         21    1    1    2  503  501 -0.18391679788E+02 -0.27891228587E+02  0.20673190563E+03  0.20941407623E+03  0.00000000000E+00 0. -1.
          3    1    1    2  501    0  0.13246830449E+03 -0.78511578538E+02  0.42131198106E+03  0.44857073583E+03  0.00000000000E+00 0. -1.
<scales pt_clust_5="13000.00000" pt_clust_6="13000.00000" pt_clust_7="13000.00000" pt_clust_8="13000.00000" pt_clust_9="33.40920" pt_clust_10="150.72113"></scales>
<clustering>
<clus scale="   33.409">  1  9  2 -1</clus>
<clus scale="   91.790">  7  8 -1 -1</clus>
<clus scale="   91.922">  5  6 -1 -1</clus>
<clus scale="   94.240">  2  7  1 -1</clus>
<clus scale="  150.721">  1 10  2 -1</clus>
<clus scale="   33.409">  1  5  2 -1</clus>
</clustering>
</event>
<event>
10    2  0.6640105E-006  0.1858374E+03  0.7546771E-02  0.1191343E+00
          1   -1    0    0  503    0 -0.00000000000E+00  0.00000000000E+00  0.28508094619E+03  0.28508094619E+03  0.00000000000E+00 0. -1.
         21   -1    0    0  501  502  0.00000000000E+00 -0.00000000000E+00 -0.57511546599E+03  0.57511546599E+03  0.00000000000E+00 0.  1.
         23    2    1    2    0    0  0.60736939484E+02 -0.24207444147E+02  0.13996864392E+03  0.16990488518E+03  0.70721089897E+02 0.  0.
         23    2    1    2    0    0  0.37879339524E+02  0.20331989825E+02 -0.53589296675E+02  0.11474062944E+03  0.91898667855E+02 0.  0.
        -11    1    4    4    0    0  0.58079554381E+02 -0.12800238921E+02 -0.18131225598E+02  0.62175735583E+02  0.00000000000E+00 0.  1.
         11    1    4    4    0    0 -0.20200214857E+02  0.33132228745E+02 -0.35458071077E+02  0.52564893859E+02  0.00000000000E+00 0. -1.
        -11    1    3    3    0    0  0.38449467925E+02 -0.27685326713E+02  0.13951764896E+03  0.14734318196E+03  0.00000000000E+00 0. -1.
         11    1    3    3    0    0  0.22287471559E+02  0.34778825665E+01  0.45099496168E+00  0.22561703218E+02  0.00000000000E+00 0.  1.
         21    1    1    2  503  502 -0.20001697251E+03 -0.63048424066E+02 -0.40013431403E+03  0.45176250656E+03  0.00000000000E+00 0.  1.
          1    1    1    2  501    0  0.10140069351E+03  0.66923878388E+02  0.23720446984E+02  0.12378839100E+03  0.00000000000E+00 0. -1.
<scales pt_clust_5="13000.00000" pt_clust_6="13000.00000" pt_clust_7="13000.00000" pt_clust_8="13000.00000" pt_clust_9="13000.00000" pt_clust_10="185.83736"></scales>
<clustering>
<clus scale="   70.721">  7  8 -1 -1</clus>
<clus scale="   91.899">  5  6 -1 -1</clus>
<clus scale="   96.314">  1  7  2 -1</clus>
<clus scale="  106.674">  1  5  2 -1</clus>
<clus scale="  185.837">  1 10  2 -1</clus>
<clus scale="  185.837">  2  5  1 -1</clus>
</clustering>
</event>
<event>
10    2  0.6640105E-006  0.2026660E+03  0.7546771E-02  0.1171474E+00
         -2   -1    0    0    0  501 -0.00000000000E+00  0.00000000000E+00  0.40933475663E+03  0.40933475663E+03  0.00000000000E+00 0.  1.
         21   -1    0    0  501  502  0.00000000000E+00 -0.00000000000E+00 -0.36518547397E+03  0.36518547397E+03  0.00000000000E+00 0.  1.
         23    2    1    2    0    0 -0.56547153556E+02 -0.33955527867E+02  0.11051855638E+03  0.15836332106E+03  0.92271510800E+02 0.  0.
         23    2    1    2    0    0 -0.93807616267E+02  0.14529902375E+03  0.12949380316E+03  0.23452247677E+03  0.91216620646E+02 0.  0.
        -13    1    4    4    0    0 -0.11172095519E+03  0.13300958116E+03  0.11265642180E+03  0.20703765329E+03  0.00000000000E+00 0.  1.
         13    1    4    4    0    0  0.17913338923E+02  0.12289442588E+02  0.16837381359E+02  0.27484823476E+02  0.00000000000E+00 0. -1.
        -13    1    3    3    0    0 -0.16179805420E+02 -0.52483394979E+02  0.97793805758E+02  0.11216024829E+03  0.00000000000E+00 0.  1.
         13    1    3    3    0    0 -0.40367348136E+02  0.18527867112E+02  0.12724750625E+02  0.46203072773E+02  0.00000000000E+00 0. -1.
         21    1    1    2  503  502 -0.23577632145E+02 -0.22962437829E+02 -0.18319122157E+03  0.18612415735E+03  0.00000000000E+00 0.  1.
         -2    1    1    2    0  503  0.17393240197E+03 -0.88381058053E+02 -0.12671855319E+02  0.19551027542E+03  0.00000000000E+00 0.  1.
<scales pt_clust_5="13000.00000" pt_clust_6="13000.00000" pt_clust_7="13000.00000" pt_clust_8="13000.00000" pt_clust_9="32.91167" pt_clust_10="180.97799"></scales>
<clustering>
<clus scale="   32.912">  2  9  1 -1</clus>
<clus scale="   91.217">  5  6 -1 -1</clus>
<clus scale="   92.272">  7  8 -1 -1</clus>
<clus scale="  115.947">  1  7  2 -1</clus>
<clus scale="  180.978">  2 10  1 -1</clus>
<clus scale="   32.912">  2  5  1 -1</clus>
</clustering>
</event>
<event>
10    2  0.6640105E-006  0.1292876E+03  0.7546771E-02  0.1231189E+00
          2   -1    0    0  503    0 -0.00000000000E+00  0.00000000000E+00  0.12034367997E+04  0.12034367997E+04  0.00000000000E+00 0. -1.
         21   -1    0    0  501  502  0.00000000000E+00 -0.00000000000E+00 -0.46586474122E+02  0.46586474122E+02  0.00000000000E+00 0. -1.
         23    2    1    2    0    0 -0.20470939785E+02  0.87658781875E+02  0.60577656087E+03  0.61949259420E+03  0.93288322713E+02 0.  0.
         23    2    1    2    0    0 -0.25760750854E+02 -0.69963104534E+02  0.53497045601E+03  0.54972863190E+03  0.10222390933E+03 0.  0.
        -13    1    4    4    0    0  0.28198715154E+02 -0.59691012002E+02  0.20948726720E+03  0.21964311865E+03  0.00000000000E+00 0.  1.
         13    1    4    4    0    0 -0.53959466008E+02 -0.10272092532E+02  0.32548318881E+03  0.33008551325E+03  0.00000000000E+00 0. -1.
        -13    1    3    3    0    0 -0.49095635017E+02  0.16508657595E+02  0.20487036549E+03  0.21131678544E+03  0.00000000000E+00 0.  1.
         13    1    3    3    0    0  0.28624695232E+02  0.71150124280E+02  0.40090619538E+03  0.40817580876E+03  0.00000000000E+00 0. -1.
         21    1    1    2  503  502  0.19753521699E+02  0.85570911332E+01  0.33370143149E+02  0.39711357090E+02  0.00000000000E+00 0. -1.
          2    1    1    2  501    0  0.26478168941E+02 -0.26252768474E+02 -0.17266834469E+02  0.41090690619E+02  0.00000000000E+00 0. -1.
<scales pt_clust_5="13000.00000" pt_clust_6="13000.00000" pt_clust_7="13000.00000" pt_clust_8="13000.00000" pt_clust_9="21.52732" pt_clust_10="44.72924"></scales>
<clustering>
<clus scale="   21.527">  2  9  1 -1</clus>
<clus scale="   44.729">  2 10  1 -1</clus>
<clus scale="   93.288">  7  8 -1 -1</clus>
<clus scale="  102.224">  5  6 -1 -1</clus>
<clus scale="  122.345">  1  7  2 -1</clus>
<clus scale="   21.527">  2  5  1 -1</clus>
</clustering>
</event>
<event>
10    2  0.6640105E-006  0.1933684E+03  0.7546771E-02  0.1155751E+00
         21   -1    0    0  503  502  0.00000000000E+00  0.00000000000E+00  0.39407505423E+03  0.39407505423E+03  0.00000000000E+00 0. -1.
          2   -1    0    0  502    0 -0.00000000000E+00 -0.00000000000E+00 -0.89463071250E+03  0.89463071250E+03  0.00000000000E+00 0. -1.
         23    2    1    2    0    0  0.19373635557E+03  0.51814700581E+01 -0.60513747189E+03  0.64243380631E+03  0.94705926432E+02 0.  0.
         23    2    1    2    0    0 -0.11644098387E+03  0.82353119764E+02 -0.17371364292E+03  0.24284856783E+03  0.91969876051E+02 0.  0.
        -11    1    3    3    0    0  0.10258924620E+03  0.31231532091E+02 -0.43127036176E+03  0.44440306813E+03  0.00000000000E+00 0. -1.
         11    1    3    3    0    0  0.91147109363E+02 -0.26050062033E+02 -0.17386711013E+03  0.19803073818E+03  0.00000000000E+00 0.  1.
        -11    1    4    4    0    0  0.72876291083E+01  0.30549864827E+02 -0.56836166179E+02  0.64936534901E+02  0.00000000000E+00 0.  1.
         11    1    4    4    0    0 -0.12372861298E+03  0.51803254936E+02 -0.11687747674E+03  0.17791203293E+03  0.00000000000E+00 0. -1.
         21    1    1    2  503  501  0.35985445475E+02  0.15392482594E+02  0.24328474311E+03  0.24641296037E+03  0.00000000000E+00 0. -1.
          2    1    1    2  501    0 -0.11328081717E+03 -0.10292707242E+03  0.35010713428E+02  0.15701043223E+03  0.00000000000E+00 0. -1.
<scales pt_clust_5="13000.00000" pt_clust_6="13000.00000" pt_clust_7="13000.00000" pt_clust_8="13000.00000" pt_clust_9="39.13925" pt_clust_10="129.52411"></scales>
<clustering>
<clus scale="   39.139">  1  9  2 -1</clus>
<clus scale="   91.970">  7  8 -1 -1</clus>
<clus scale="   94.706">  5  6 -1 -1</clus>
<clus scale="  129.524">  1 10  2 -1</clus>
<clus scale="  192.043">  1  7  2 -1</clus>
<clus scale="   39.139">  1  5  2 -1</clus>
</clustering>
</event>
<event>
10    2  0.6640105E-006  0.1538192E+03  0.7546771E-02  0.1196131E+00
          1   -1    0    0  503    0 -0.00000000000E+00  0.00000000000E+00  0.81166505444E+03  0.81166505444E+03  0.00000000000E+00 0. -1.
         21   -1    0    0  501  502  0.00000000000E+00 -0.00000000000E+00 -0.85766873432E+02  0.85766873432E+02  0.00000000000E+00 0. -1.
         23    2    1    2    0    0  0.13546405584E+03  0.63574048642E+02  0.49210293871E+03  0.52257561968E+03  0.92346120179E+02 0.  0.
         23    2    1    2    0    0 -0.92192591685E+02 -0.13126609967E+02  0.20794751856E+03  0.24527534461E+03  0.90807721847E+02 0.  0.
        -11    1    3    3    0    0  0.72705898429E+02  0.19035841960E+02  0.37494662011E+03  0.38240486251E+03  0.00000000000E+00 0. -1.
         11    1    3    3    0    0  0.62758157406E+02  0.44538206682E+02  0.11715631861E+03  0.14017075717E+03  0.00000000000E+00 0.  1.
        -11    1    4    4    0    0 -0.43681412112E+02  0.37553067755E+02  0.11701506205E+03  0.13042554737E+03  0.00000000000E+00 0.  1.
         11    1    4    4    0    0 -0.48511179573E+02 -0.50679677721E+02  0.90932456513E+02  0.11484979724E+03  0.00000000000E+00 0. -1.
         21    1    1    2  503  502  0.13642056220E+02  0.23553033440E+02  0.23873267123E+02  0.36204750590E+02  0.00000000000E+00 0.  1.
          1    1    1    2  501    0 -0.56913520370E+02 -0.74000472116E+02  0.19744566155E+01  0.93376212995E+02  0.00000000000E+00 0. -1.
<scales pt_clust_5="13000.00000" pt_clust_6="13000.00000" pt_clust_7="13000.00000" pt_clust_8="13000.00000" pt_clust_9="27.21858" pt_clust_10="77.88823"></scales>
<clustering>
<clus scale="   27.219">  2  9  1 -1</clus>
<clus scale="   77.888">  2 10  1 -1</clus>
<clus scale="   90.808">  7  8 -1 -1</clus>
<clus scale="   92.346">  5  6 -1 -1</clus>
<clus scale="  152.901">  2  7  1 -1</clus>
<clus scale="   27.219">  2  5  1 -1</clus>
</clustering>
</event>
<event>
10    2  0.6640105E-006  0.2976815E+03  0.7546771E-02  0.1086438E+00
         21   -1    0    0  503  502  0.00000000000E+00  0.00000000000E+00  0.98089001712E+02  0.98089001712E+02  0.00000000000E+00 0. -1.
          2   -1    0    0  502    0 -0.00000000000E+00 -0.00000000000E+00 -0.16438519322E+04  0.16438519322E+04  0.00000000000E+00 0. -1.
         23    2    1    2    0    0  0.12879656627E+03  0.27049551663E+03 -0.10788481987E+04  0.11233480181E+04  0.90779700326E+02 0.  0.
         23    2    1    2    0    0 -0.15642262336E+03 -0.20661474961E+03 -0.46521529169E+03  0.54035017383E+03  0.91626147333E+02 0.  0.
        -11    1    4    4    0    0  0.37064991789E+01 -0.30429659738E+02 -0.98231193346E+02  0.10290320536E+03  0.00000000000E+00 0.  1.
         11    1    4    4    0    0 -0.16012912254E+03 -0.17618508988E+03 -0.36698409835E+03  0.43744696847E+03  0.00000000000E+00 0. -1.
        -13    1    3    3    0    0  0.14730657449E+02  0.10524344494E+03 -0.48380457838E+03  0.49533831372E+03  0.00000000000E+00 0.  1.
         13    1    3    3    0    0  0.11406590882E+03  0.16525207168E+03 -0.59504362030E+03  0.62800970440E+03  0.00000000000E+00 0. -1.
         21    1    1    2  503  501  0.13378094161E+02 -0.16686914993E+02  0.15078164926E+02  0.26168255443E+02  0.00000000000E+00 0. -1.
          2    1    1    2  501    0  0.14247962933E+02 -0.47193852023E+02 -0.16777605037E+02  0.52074486529E+02  0.00000000000E+00 0. -1.
<scales pt_clust_5="13000.00000" pt_clust_6="13000.00000" pt_clust_7="13000.00000" pt_clust_8="13000.00000" pt_clust_9="21.38753" pt_clust_10="53.84873"></scales>
<clustering>
<clus scale="   21.388">  1  9  2 -1</clus>
<clus scale="   53.849">  1 10  2 -1</clus>
<clus scale="   90.780">  7  8 -1 -1</clus>
<clus scale="   91.626">  5  6 -1 -1</clus>
<clus scale="  297.422">  2  7  1 -1</clus>
<clus scale="   21.388">  1  5  2 -1</clus>
</clustering>
</event>
<event>
10    2  0.6640105E-006  0.1309629E+03  0.7546771E-02  0.1227085E+00
         21   -1    0    0  503  502  0.00000000000E+00  0.00000000000E+00  0.44320366988E+02  0.44320366988E+02  0.00000000000E+00 0.  1.
          2   -1    0    0  502    0 -0.00000000000E+00 -0.00000000000E+00 -0.73784440754E+03  0.73784440754E+03  0.00000000000E+00 0. -1.
         23    2    1    2    0    0  0.84732658758E+02  0.19531171038E+02 -0.39584486167E+03  0.41506490203E+03  0.89580289595E+02 0.  0.
         23    2    1    2    0    0 -0.10242103368E+03 -0.14266444860E+02 -0.18102747905E+03  0.22852161002E+03  0.93581934613E+02 0.  0.
        -13    1    3    3    0    0  0.57716440782E+02  0.53984474492E+02 -0.21711926979E+03  0.23105473018E+03  0.00000000000E+00 0.  1.
         13    1    3    3    0    0  0.27016217976E+02 -0.34453303454E+02 -0.17872559188E+03  0.18401017185E+03  0.00000000000E+00 0. -1.
        -13    1    4    4    0    0 -0.49171413893E+02 -0.53960872890E+02 -0.91833956487E+02  0.11731615111E+03  0.00000000000E+00 0.  1.
         13    1    4    4    0    0 -0.53249619784E+02  0.39694428030E+02 -0.89193522565E+02  0.11120545891E+03  0.00000000000E+00 0. -1.
         21    1    1    2  503  501 -0.25892133990E+02  0.36986946010E+01 -0.22732827069E+02  0.34653490024E+02  0.00000000000E+00 0.  1.
          2    1    1    2  501    0  0.43580508909E+02 -0.89634207788E+01 -0.93918872759E+02  0.10392477245E+03  0.00000000000E+00 0. -1.
<scales pt_clust_5="13000.00000" pt_clust_6="13000.00000" pt_clust_7="13000.00000" pt_clust_8="13000.00000" pt_clust_9="26.15498" pt_clust_10="41.08844"></scales>
<clustering>
<clus scale="   26.155">  1  9  2 -1</clus>
<clus scale="   41.088">  1 10  2 -1</clus>
<clus scale="   89.580">  5  6 -1 -1</clus>
<clus scale="   93.582">  7  8 -1 -1</clus>
<clus scale="  128.134">  2  5  1 -1</clus>
<clus scale="   26.155">  1  5  2 -1</clus>
</clustering>
</event>
<event>
10    2  0.6640105E-006  0.1599309E+03  0.7546771E-02  0.1209936E+00
         21   -1    0    0  501  502  0.00000000000E+00  0.00000000000E+00  0.49893182922E+03  0.49893182922E+03  0.00000000000E+00 0. -1.
          1   -1    0    0  503    0 -0.00000000000E+00 -0.00000000000E+00 -0.15980593495E+03  0.15980593495E+03  0.00000000000E+00 0. -1.
         23    2    1    2    0    0  0.31578694178E+02  0.44835191826E+02  0.37789957463E+02  0.11230800628E+03  0.90430078162E+02 0.  0.
         23    2    1    2    0    0  0.11045644985E+03  0.32950972952E+02 -0.12911823158E+02  0.14767661351E+03  0.91407182807E+02 0.  0.
        -11    1    3    3    0    0  0.43428395293E+02 -0.13022420482E+02  0.75690020469E+01  0.45966278346E+02  0.00000000000E+00 0.  1.
         11    1    3    3    0    0 -0.11849701115E+02  0.57857612308E+02  0.30220955416E+02  0.66341727930E+02  0.00000000000E+00 0. -1.
        -13    1    4    4    0    0  0.18266628651E+02 -0.26281429298E+02 -0.20214448517E+02  0.37855081258E+02  0.00000000000E+00 0.  1.
         13    1    4    4    0    0  0.92189821198E+02  0.59232402250E+02  0.73026253593E+01  0.10982153225E+03  0.00000000000E+00 0. -1.
         21    1    1    2  503  502 -0.15675908466E+02 -0.30241343269E+02  0.24437112683E+03  0.24673370377E+03  0.00000000000E+00 0.  1.
          1    1    1    2  501    0 -0.12635923556E+03 -0.47544821509E+02  0.69876633139E+02  0.15201944061E+03  0.00000000000E+00 0. -1.
<scales pt_clust_5="13000.00000" pt_clust_6="13000.00000" pt_clust_7="13000.00000" pt_clust_8="13000.00000" pt_clust_9="34.06278" pt_clust_10="131.23500"></scales>
<clustering>
<clus scale="   34.063">  1  9  2 -1</clus>
<clus scale="   90.430">  5  6 -1 -1</clus>
<clus scale="   91.407">  7  8 -1 -1</clus>
<clus scale="  100.947">  2  5  1 -1</clus>
<clus scale="  131.235">  1 10  2 -1</clus>
<clus scale="   34.063">  1  5  2 -1</clus>
</clustering>
</event>
<event>
10    2  0.6640105E-006  0.1353054E+03  0.7546771E-02  0.1220145E+00
          1   -1    0    0  502    0 -0.00000000000E+00  0.00000000000E+00  0.27491206542E+03  0.27491206542E+03  0.00000000000E+00 0. -1.
         21   -1    0    0  503  502  0.00000000000E+00 -0.00000000000E+00 -0.12937788664E+03  0.12937788664E+03  0.00000000000E+00 0. -1.
         23    2    1    2    0    0  0.85275438168E+02  0.20740890926E+02  0.69597575301E+02  0.14412588281E+03  0.90699298220E+02 0.  0.
         23    2    1    2    0    0 -0.10451800270E+03 -0.75961679359E+02 -0.21109934746E+01  0.15873500420E+03  0.92185441606E+02 0.  0.
        -13    1    4    4    0    0 -0.63022555318E+02 -0.76269294836E+02  0.33083563391E+02  0.10432339134E+03  0.00000000000E+00 0. -1.
         13    1    4    4    0    0 -0.41495447386E+02  0.30761547752E+00 -0.35194556866E+02  0.54411612860E+02  0.00000000000E+00 0.  1.
        -13    1    3    3    0    0 -0.15591244720E+02  0.13369984941E+02 -0.13552571086E+01  0.20583491712E+02  0.00000000000E+00 0.  1.
         13    1    3    3    0    0  0.10086668289E+03  0.73709059853E+01  0.70952832409E+02  0.12354239110E+03  0.00000000000E+00 0. -1.
         21    1    1    2  503  501  0.13597283872E+02  0.27307775915E+02  0.19178513220E+02  0.36033541645E+02  0.00000000000E+00 0.  1.
          1    1    1    2  501    0  0.56452806635E+01  0.27913012517E+02  0.58869083737E+02  0.65395523406E+02  0.00000000000E+00 0. -1.
<scales pt_clust_5="13000.00000" pt_clust_6="13000.00000" pt_clust_7="13000.00000" pt_clust_8="13000.00000" pt_clust_9="26.92925" pt_clust_10="64.77987"></scales>
<clustering>
<clus scale="   26.929">  9 10 -1 -1</clus>
<clus scale="   64.780">  2  9  1 -1</clus>
<clus scale="   90.699">  7  8 -1 -1</clus>
<clus scale="   92.185">  5  6 -1 -1</clus>
<clus scale="  134.297">  1  7  2 -1</clus>
<clus scale="   64.780">  2  5  1 -1</clus>
</clustering>
</event>
<event>
10    2  0.6640105E-006  0.9743610E+02  0.7546771E-02  0.1286085E+00
         21   -1    0    0  501  502  0.00000000000E+00  0.00000000000E+00  0.26011597897E+03  0.26011597897E+03  0.00000000000E+00 0. -1.
          1   -1    0    0  503    0 -0.00000000000E+00 -0.00000000000E+00 -0.19565922588E+03  0.19565922588E+03  0.00000000000E+00 0. -1.
         23    2    1    2    0    0 -0.57759543923E+01 -0.37387665048E+02 -0.10277046870E+03  0.14282586951E+03  0.91685662008E+02 0.  0.
         23    2    1    2    0    0  0.95155358659E+01  0.11963758015E+02  0.54113170427E+02  0.10705178454E+03  0.91094305156E+02 0.  0.
        -11    1    3    3    0    0 -0.32745459657E+02  0.17981365929E+02 -0.34064747133E+02  0.50556914918E+02  0.00000000000E+00 0.  1.
         11    1    3    3    0    0  0.26969505265E+02 -0.55369030977E+02 -0.68705721571E+02  0.92268954595E+02  0.00000000000E+00 0. -1.
        -13    1    4    4    0    0  0.13908280306E+02  0.48453378098E+02  0.48350981590E+02  0.69849749684E+02  0.00000000000E+00 0.  1.
         13    1    4    4    0    0 -0.43927444401E+01 -0.36489620084E+02  0.57621888364E+01  0.37202034860E+02  0.00000000000E+00 0. -1.
         21    1    1    2  503  502 -0.67619686792E+02  0.19319682666E+02 -0.60171942842E+01  0.70582425626E+02  0.00000000000E+00 0. -1.
          1    1    1    2  501    0  0.63880105318E+02  0.61042243671E+01  0.11913124564E+03  0.13531512517E+03  0.00000000000E+00 0. -1.
<scales pt_clust_5="13000.00000" pt_clust_6="13000.00000" pt_clust_7="13000.00000" pt_clust_8="13000.00000" pt_clust_9="56.10117" pt_clust_10="64.17109"></scales>
<clustering>
<clus scale="   64.171">  1 10  2 -1</clus>
<clus scale="   56.101">  1  9  2 -1</clus>
<clus scale="   91.094">  7  8 -1 -1</clus>
<clus scale="   91.686">  5  6 -1 -1</clus>
<clus scale="   96.880">  1  7  2 -1</clus>
<clus scale="   64.171">  1  5  2 -1</clus>
</clustering>
</event>
<event>
10    2  0.6640105E-006  0.1956652E+03  0.7546771E-02  0.1186319E+00
         21   -1    0    0  501  502  0.00000000000E+00  0.00000000000E+00  0.11729714258E+03  0.11729714258E+03  0.00000000000E+00 0. -1.
          2   -1    0    0  503    0 -0.00000000000E+00 -0.00000000000E+00 -0.68526659267E+03  0.68526659267E+03  0.00000000000E+00 0. -1.
         23    2    1    2    0    0 -0.17354766668E+02  0.19197005617E+01 -0.36771625092E+02  0.10006150021E+03  0.91407211067E+02 0.  0.
         23    2    1    2    0    0  0.12432857457E+03  0.11740343104E+03 -0.40495829647E+03  0.44851627398E+03  0.89075619981E+02 0.  0.
        -13    1    3    3    0    0  0.27756121682E+02 -0.18785696357E+02  0.65846932857E+01  0.34156446889E+02  0.00000000000E+00 0.  1.
         13    1    3    3    0    0 -0.45110888350E+02  0.20705396919E+02 -0.43356318378E+02  0.65905053316E+02  0.00000000000E+00 0. -1.
        -13    1    4    4    0    0 -0.11141877719E+02  0.28809122204E+02 -0.68841140363E+02  0.75453360215E+02  0.00000000000E+00 0.  1.
         13    1    4    4    0    0  0.13547045229E+03  0.88594308834E+02 -0.33611715610E+03  0.37306291376E+03  0.00000000000E+00 0. -1.
         21    1    1    2  503  502  0.21889586993E+02  0.14000001108E+02  0.54627379970E+01  0.26551752412E+02  0.00000000000E+00 0. -1.
          2    1    1    2  501    0 -0.12886339489E+03 -0.13332313271E+03 -0.13170226653E+03  0.22743420866E+03  0.00000000000E+00 0. -1.
<scales pt_clust_5="13000.00000" pt_clust_6="13000.00000" pt_clust_7="13000.00000" pt_clust_8="13000.00000" pt_clust_9="25.98373" pt_clust_10="174.21365"></scales>
<clustering>
<clus scale="   25.984">  1  9  2 -1</clus>
<clus scale="   89.076">  7  8 -1 -1</clus>
<clus scale="   91.407">  5  6 -1 -1</clus>
<clus scale="   92.225">  2  5  1 -1</clus>
<clus scale="  174.214">  1 10  2 -1</clus>
<clus scale="   25.984">  1  5  2 -1</clus>
</clustering>
</event>
<event>
10    2  0.6640105E-006  0.3679006E+03  0.7546771E-02  0.1092598E+00
          3   -1    0    0  502    0 -0.00000000000E+00  0.00000000000E+00  0.38769559437E+03  0.38769559437E+03  0.00000000000E+00 0. -1.
         21   -1    0    0  503  502  0.00000000000E+00 -0.00000000000E+00 -0.65809057248E+03  0.65809057248E+03  0.00000000000E+00 0.  1.
         23    2    1    2    0    0  0.68490637285E+02 -0.60791303163E+02 -0.16644912149E+03  0.21173201697E+03  0.93480409865E+02 0.  0.
         23    2    1    2    0    0 -0.14027169806E+02 -0.31505820669E+03  0.14370325908E+03  0.35806831737E+03  0.90021431577E+02 0.  0.
        -13    1    3    3    0    0  0.73399427057E+02 -0.48640491931E+01 -0.10814534674E+03  0.13079201386E+03  0.00000000000E+00 0.  1.
         13    1    3    3    0    0 -0.49087897727E+01 -0.55927253970E+02 -0.58303774745E+02  0.80940003108E+02  0.00000000000E+00 0. -1.
        -13    1    4    4    0    0  0.15339730983E+02 -0.26687383217E+03  0.13939396480E+03  0.30147574872E+03  0.00000000000E+00 0.  1.
         13    1    4    4    0    0 -0.29366900789E+02 -0.48184374518E+02  0.43092942776E+01  0.56592568654E+02  0.00000000000E+00 0. -1.
         21    1    1    2  503  501  0.23856219683E+02  0.70909311355E+01 -0.35659362615E+02  0.43485522465E+02  0.00000000000E+00 0.  1.
          3    1    1    2  501    0 -0.78319687162E+02  0.36875857872E+03 -0.21198975308E+03  0.43250031004E+03  0.00000000000E+00 0. -1.
<scales pt_clust_5="13000.00000" pt_clust_6="13000.00000" pt_clust_7="13000.00000" pt_clust_8="13000.00000" pt_clust_9="24.88776" pt_clust_10="356.71699"></scales>
<clustering>
<clus scale="   24.888">  2  9  1 -1</clus>
<clus scale="   90.021">  7  8 -1 -1</clus>
<clus scale="   93.480">  5  6 -1 -1</clus>
<clus scale="  133.860">  1  5  2 -1</clus>
<clus scale="  356.717">  2 10  1 -1</clus>
<clus scale="   24.888">  2  5  1 -1</clus>
</clustering>
</event>
<event>
10    2  0.6640105E-006  0.9501636E+02  0.7546771E-02  0.1291990E+00
          4   -1    0    0  502    0 -0.00000000000E+00  0.00000000000E+00  0.36171233337E+03  0.36171233337E+03  0.00000000000E+00 0. -1.
         21   -1    0    0  503  502  0.00000000000E+00 -0.00000000000E+00 -0.12100887583E+03  0.12100887583E+03  0.00000000000E+00 0.  1.
         23    2    1    2    0    0 -0.14596270777E+02 -0.69715988819E+01  0.22995714855E+03  0.24770514145E+03  0.90641561195E+02 0.  0.
         23    2    1    2    0    0  0.53725861912E+02  0.34927213594E+01  0.39455495944E+02  0.11381476027E+03  0.92186746094E+02 0.  0.
        -11    1    3    3    0    0 -0.24168560819E+02  0.32001251129E+02  0.54189930737E+02  0.67414746155E+02  0.00000000000E+00 0.  1.
         11    1    3    3    0    0  0.95722900429E+01 -0.38972850011E+02  0.17576721782E+03  0.18029039529E+03  0.00000000000E+00 0. -1.
        -13    1    4    4    0    0  0.22862847195E+01 -0.26647620960E+02 -0.17012981962E+02  0.31698018170E+02  0.00000000000E+00 0. -1.
         13    1    4    4    0    0  0.51439577192E+02  0.30140342319E+02  0.56468477906E+02  0.82116742105E+02  0.00000000000E+00 0.  1.
         21    1    1    2  503  501  0.13760986935E+02 -0.15685655754E+02 -0.55206049042E+02  0.59017899054E+02  0.00000000000E+00 0.  1.
          4    1    1    2  501    0 -0.52890578070E+02  0.19164533277E+02  0.26496862084E+02  0.62183408435E+02  0.00000000000E+00 0. -1.
<scales pt_clust_5="13000.00000" pt_clust_6="13000.00000" pt_clust_7="13000.00000" pt_clust_8="13000.00000" pt_clust_9="20.86635" pt_clust_10="51.22756"></scales>
<clustering>
<clus scale="   20.866">  2  9  1 -1</clus>
<clus scale="   51.228">  2 10  1 -1</clus>
<clus scale="   90.642">  5  6 -1 -1</clus>
<clus scale="   92.187">  7  8 -1 -1</clus>
<clus scale="   93.518">  1  5  2 -1</clus>
<clus scale="   20.866">  2  5  1 -1</clus>
</clustering>
</event>
<event>
10    2  0.6640105E-006  0.2888774E+03  0.7546771E-02  0.1123550E+00
         -3   -1    0    0    0  501 -0.00000000000E+00  0.00000000000E+00  0.42371022332E+03  0.42371022332E+03  0.00000000000E+00 0.  1.
         21   -1    0    0  501  502  0.00000000000E+00 -0.00000000000E+00 -0.52567863622E+03  0.52567863622E+03  0.00000000000E+00 0.  1.
         23    2    1    2    0    0 -0.81847339607E+02 -0.30203447385E+02 -0.16098895523E+02  0.12865944527E+03  0.93181774969E+02 0.  0.
         23    2    1    2    0    0  0.31721666305E+03 -0.10333615052E+03  0.19788194634E+03  0.39879153119E+03  0.92588602643E+02 0.  0.
        -11    1    3    3    0    0 -0.12850097195E+01  0.26379483232E+02  0.74365047296E+01  0.27437747505E+02  0.00000000000E+00 0. -1.
         11    1    3    3    0    0 -0.80562329887E+02 -0.56582930617E+02 -0.23535400252E+02  0.10122169777E+03  0.00000000000E+00 0.  1.
        -13    1    4    4    0    0  0.23220498951E+03 -0.11698459472E+03  0.15323615616E+03  0.30180436065E+03  0.00000000000E+00 0.  1.
         13    1    4    4    0    0  0.85011673541E+02  0.13648444204E+02  0.44645790183E+02  0.96987170536E+02  0.00000000000E+00 0. -1.
         21    1    1    2  503  502  0.32779554461E+01  0.63299705455E+02 -0.52923102829E+02  0.82573921523E+02  0.00000000000E+00 0. -1.
         -3    1    1    2    0  503 -0.23864727889E+03  0.70239892447E+02 -0.23082836088E+03  0.33936396155E+03  0.00000000000E+00 0.  1.
<scales pt_clust_5="13000.00000" pt_clust_6="13000.00000" pt_clust_7="13000.00000" pt_clust_8="13000.00000" pt_clust_9="63.38452" pt_clust_10="273.63753"></scales>
<clustering>
<clus scale="   63.385">  2  9  1 -1</clus>
<clus scale="   92.589">  7  8 -1 -1</clus>
<clus scale="   93.182">  5  6 -1 -1</clus>
<clus scale="  125.321">  1  5  2 -1</clus>
<clus scale="  273.638">  2 10  1 -1</clus>
<clus scale="   63.385">  2  5  1 -1</clus>
</clustering>
</event>
<event>
10    2  0.6640105E-006  0.1001565E+03  0.7546771E-02  0.1282588E+00
         21   -1    0    0  503  502  0.00000000000E+00  0.00000000000E+00  0.57481614516E+03  0.57481614516E+03  0.00000000000E+00 0.  1.
         -4   -1    0    0    0  501 -0.00000000000E+00 -0.00000000000E+00 -0.13379306749E+03  0.13379306749E+03  0.00000000000E+00 0.  1.
         23    2    1    2    0    0 -0.32883132984E+02 -0.70003310291E+01 -0.65582648740E+02  0.11584159102E+03  0.89374970348E+02 0.  0.
         23    2    1    2    0    0  0.32996216175E+02 -0.28974074733E+02  0.20596118750E+03  0.23083913038E+03  0.94543355504E+02 0.  0.
        -13    1    3    3    0    0  0.26138537840E+02  0.69992525454E+00 -0.46478857902E+02  0.53329141074E+02  0.00000000000E+00 0.  1.
         13    1    3    3    0    0 -0.59021670824E+02 -0.77002562836E+01 -0.19103790837E+02  0.62512449945E+02  0.00000000000E+00 0. -1.
        -13    1    4    4    0    0  0.41521230480E+02  0.20907504335E+02  0.57214447088E+02  0.73719938101E+02  0.00000000000E+00 0.  1.
         13    1    4    4    0    0 -0.85250143052E+01 -0.49881579068E+02  0.14874674041E+03  0.15711919228E+03  0.00000000000E+00 0. -1.
         21    1    1    2  503  501 -0.49975219806E+02  0.89749754522E+02  0.25656388712E+03  0.27636492036E+03  0.00000000000E+00 0.  1.
         -4    1    1    2    0  502  0.49862136615E+02 -0.53775348760E+02  0.44080651786E+02  0.85563570893E+02  0.00000000000E+00 0.  1.
<scales pt_clust_5="13000.00000" pt_clust_6="13000.00000" pt_clust_7="13000.00000" pt_clust_8="13000.00000" pt_clust_9="66.13163" pt_clust_10="73.33503"></scales>
<clustering>
<clus scale="   73.335">  1 10  2 -1</clus>
<clus scale="   66.132">  1  9  2 -1</clus>
<clus scale="   89.375">  5  6 -1 -1</clus>
<clus scale="   94.543">  7  8 -1 -1</clus>
<clus scale="   95.293">  2  5  1 -1</clus>
<clus scale="   73.335">  1  5  2 -1</clus>
</clustering>
</event>
<event>
10    2  0.6640105E-006  0.1914993E+03  0.7546771E-02  0.1157264E+00
          1   -1    0    0  503    0 -0.00000000000E+00  0.00000000000E+00  0.29785737764E+03  0.29785737764E+03  0.00000000000E+00 0. -1.
         21   -1    0    0  501  502  0.00000000000E+00 -0.00000000000E+00 -0.82559891623E+03  0.82559891623E+03  0.00000000000E+00 0. -1.
         23    2    1    2    0    0  0.12189111529E+03 -0.12059733540E+03  0.15916493775E+03  0.25156664556E+03  0.92472365892E+02 0.  0.
         23    2    1    2    0    0  0.30510977072E+02  0.21962281183E+03 -0.18080466625E+03  0.30025637339E+03  0.91095901246E+02 0.  0.
        -11    1    3    3    0    0  0.82820907484E+02 -0.19292554785E+02  0.83848223578E+02  0.11942374129E+03  0.00000000000E+00 0.  1.
         11    1    3    3    0    0  0.39070207810E+02 -0.10130478062E+03  0.75316714176E+02  0.13214290427E+03  0.00000000000E+00 0. -1.
        -13    1    4    4    0    0 -0.85087693345E+01  0.22948307477E+02  0.70778604586E+01  0.25477835079E+02  0.00000000000E+00 0.  1.
         13    1    4    4    0    0  0.39019746407E+02  0.19667450435E+03 -0.18788252671E+03  0.27477853831E+03  0.00000000000E+00 0. -1.
         21    1    1    2  503  502  0.30768282940E+02 -0.23002053802E+02 -0.22114601297E+03  0.22445788195E+03  0.00000000000E+00 0. -1.
          1    1    1    2  501    0 -0.18317037531E+03 -0.76023422622E+02 -0.28495579712E+03  0.34717539298E+03  0.00000000000E+00 0. -1.
<scales pt_clust_5="13000.00000" pt_clust_6="13000.00000" pt_clust_7="13000.00000" pt_clust_8="13000.00000" pt_clust_9="38.41590" pt_clust_10="188.83953"></scales>
<clustering>
<clus scale="   38.416">  2  9  1 -1</clus>
<clus scale="   91.096">  7  8 -1 -1</clus>
<clus scale="   92.472">  5  6 -1 -1</clus>
<clus scale="  188.840">  2 10  1 -1</clus>
<clus scale="  190.838">  2  7  1 -1</clus>
<clus scale="   38.416">  2  5  1 -1</clus>
</clustering>
</event>
<event>
10    2  0.6640105E-006  0.9104621E+02  0.7546771E-02  0.1300468E+00
          4   -1    0    0  503    0 -0.00000000000E+00  0.00000000000E+00  0.34989217652E+02  0.34989217652E+02  0.00000000000E+00 0. -1.
         21   -1    0    0  501  502  0.00000000000E+00 -0.00000000000E+00 -0.63714802198E+03  0.63714802198E+03  0.00000000000E+00 0.  1.
         23    2    1    2    0    0  0.18229550453E+01  0.22657290320E+02 -0.91680239852E+02  0.13027504302E+03  0.89719810996E+02 0.  0.
         23    2    1    2    0    0  0.10512495082E+02  0.49404398836E+01 -0.23401130825E+03  0.25096938605E+03  0.89941202145E+02 0.  0.
        -11    1    4    4    0    0  0.22927173122E+02  0.40723073242E+02 -0.17262390226E+03  0.17883801496E+03  0.00000000000E+00 0.  1.
         11    1    4    4    0    0 -0.12414678040E+02 -0.35782633359E+02 -0.61387405991E+02  0.72131371089E+02  0.00000000000E+00 0. -1.
        -11    1    3    3    0    0  0.26019096935E+02  0.14267410071E+02 -0.99233226879E+02  0.10357502456E+03  0.00000000000E+00 0.  1.
         11    1    3    3    0    0 -0.24196141889E+02  0.83898802488E+01  0.75529870267E+01  0.26700018463E+02  0.00000000000E+00 0. -1.
         21    1    1    2  503  502  0.15796184335E+02  0.18216796653E+02 -0.16917408632E+03  0.17088371076E+03  0.00000000000E+00 0.  1.
          4    1    1    2  501    0 -0.28131634462E+02 -0.45814526857E+02 -0.10729316990E+03  0.12000909980E+03  0.00000000000E+00 0. -1.
<scales pt_clust_5="13000.00000" pt_clust_6="13000.00000" pt_clust_7="13000.00000" pt_clust_8="13000.00000" pt_clust_9="24.11164" pt_clust_10="47.98358"></scales>
<clustering>
<clus scale="   24.112">  2  9  1 -1</clus>
<clus scale="   47.984">  2 10  1 -1</clus>
<clus scale="   89.720">  7  8 -1 -1</clus>
<clus scale="   89.941">  5  6 -1 -1</clus>
<clus scale="   90.828">  1  7  2 -1</clus>
<clus scale="   24.112">  2  5  1 -1</clus>
</clustering>
</event>
<event>
10    2  0.6640105E-006  0.3621752E+03  0.7546771E-02  0.1107822E+00
          1   -1    0    0  502    0 -0.00000000000E+00  0.00000000000E+00  0.66232144900E+03  0.66232144900E+03  0.00000000000E+00 0. -1.
         21   -1    0    0  503  502  0.00000000000E+00 -0.00000000000E+00 -0.36212506523E+03  0.36212506523E+03  0.00000000000E+00 0. -1.
         23    2    1    2    0    0 -0.28956931744E+02 -0.12372545201E+02  0.22069207815E+03  0.24005775126E+03  0.89056986308E+02 0.  0.
         23    2    1    2    0    0 -0.67705780400E+02  0.33891388861E+03  0.15156000328E+03  0.38852725393E+03  0.92392076826E+02 0.  0.
        -11    1    4    4    0    0  0.11523273388E+02  0.82188845283E+02  0.67604402659E+02  0.10704273622E+03  0.00000000000E+00 0.  1.
         11    1    4    4    0    0 -0.79229053788E+02  0.25672504333E+03  0.83955600625E+02  0.28148451771E+03  0.00000000000E+00 0. -1.
        -11    1    3    3    0    0 -0.56851550241E+02 -0.26686920843E+01  0.93318409490E+02  0.10930483170E+03  0.00000000000E+00 0. -1.
         11    1    3    3    0    0  0.27894618497E+02 -0.97038531166E+01  0.12737366866E+03  0.13075291956E+03  0.00000000000E+00 0.  1.
         21    1    1    2  503  501 -0.16624966221E+02  0.19100119502E+02 -0.77986652152E+01  0.26495721277E+02  0.00000000000E+00 0. -1.
          1    1    1    2  501    0  0.11328767836E+03 -0.34564146291E+03 -0.64257032449E+02  0.36936578776E+03  0.00000000000E+00 0. -1.
<scales pt_clust_5="13000.00000" pt_clust_6="13000.00000" pt_clust_7="13000.00000" pt_clust_8="13000.00000" pt_clust_9="25.32201" pt_clust_10="350.19217"></scales>
<clustering>
<clus scale="   25.322">  2  9  1 -1</clus>
<clus scale="   89.057">  7  8 -1 -1</clus>
<clus scale="   92.392">  5  6 -1 -1</clus>
<clus scale="   94.536">  1  7  2 -1</clus>
<clus scale="  350.192">  2 10  1 -1</clus>
<clus scale="   25.322">  2  5  1 -1</clus>
</clustering>
</event>
<event>
10    2  0.6640105E-006  0.1414060E+03  0.7546771E-02  0.1211846E+00
          1   -1    0    0  502    0 -0.00000000000E+00  0.00000000000E+00  0.10622634493E+03  0.10622634493E+03  0.00000000000E+00 0. -1.
         21   -1    0    0  503  502  0.00000000000E+00 -0.00000000000E+00 -0.35241468801E+03  0.35241468801E+03  0.00000000000E+00 0. -1.
         23    2    1    2    0    0  0.63260516232E+02 -0.64630660439E+02 -0.66322915778E+02  0.14503257268E+03  0.91960332741E+02 0.  0.
         23    2    1    2    0    0 -0.45280225827E+02  0.12293194685E+03 -0.61051947689E+02  0.17032819394E+03  0.90120979402E+02 0.  0.
        -11    1    3    3    0    0  0.15910436891E+01 -0.53243569621E+02 -0.62620335461E+02  0.82211407598E+02  0.00000000000E+00 0.  1.
         11    1    3    3    0    0  0.61669472543E+02 -0.11387090817E+02 -0.37025803168E+01  0.62821165080E+02  0.00000000000E+00 0. -1.
        -13    1    4    4    0    0 -0.27128521625E+02  0.19569846232E+02  0.18879561188E+02  0.38410589657E+02  0.00000000000E+00 0.  1.
         13    1    4    4    0    0 -0.18151704202E+02  0.10336210061E+03 -0.79931508877E+02  0.13191760428E+03  0.00000000000E+00 0. -1.
         21    1    1    2  503  501 -0.10646366295E+02 -0.17784598044E+02 -0.91620977632E+02  0.93936364551E+02  0.00000000000E+00 0.  1.
          1    1    1    2  501    0 -0.73339241102E+01 -0.40516688363E+02 -0.27192501983E+02  0.49343901779E+02  0.00000000000E+00 0. -1.
<scales pt_clust_5="13000.00000" pt_clust_6="13000.00000" pt_clust_7="13000.00000" pt_clust_8="13000.00000" pt_clust_9="20.72769" pt_clust_10="44.04715"></scales>
<clustering>
<clus scale="   20.728">  2  9  1 -1</clus>
<clus scale="   44.047">  2 10  1 -1</clus>
<clus scale="   90.121">  7  8 -1 -1</clus>
<clus scale="   91.960">  5  6 -1 -1</clus>
<clus scale="  140.217">  2  7  1 -1</clus>
<clus scale="   20.728">  2  5  1 -1</clus>
</clustering>
</event>
<event>
10    2  0.6640105E-006  0.1721667E+03  0.7546771E-02  0.1197767E+00
          2   -1    0    0  503    0 -0.00000000000E+00  0.00000000000E+00  0.28098515188E+03  0.28098515188E+03  0.00000000000E+00 0. -1.
         21   -1    0    0  501  502  0.00000000000E+00 -0.00000000000E+00 -0.46419043927E+03  0.46419043927E+03  0.00000000000E+00 0.  1.
         23    2    1    2    0    0 -0.45776410031E+02 -0.28005541784E+02  0.11270342470E+03  0.15418369468E+03  0.90502815877E+02 0.  0.
         23    2    1    2    0    0  0.74786374436E+01  0.74383196651E+02 -0.53452927020E+02  0.13100583102E+03  0.93362317836E+02 0.  0.
        -13    1    3    3    0    0  0.13019912764E+02  0.15753108439E+02  0.61419674489E+02  0.64730633925E+02  0.00000000000E+00 0. -1.
         13    1    3    3    0    0 -0.58796322795E+02 -0.43758650223E+02  0.51283750206E+02  0.89453060757E+02  0.00000000000E+00 0.  1.
        -13    1    4    4    0    0  0.46377607263E+02  0.36592038294E+02 -0.67963982393E+01  0.59464701723E+02  0.00000000000E+00 0. -1.
         13    1    4    4    0    0 -0.38898969819E+02  0.37791158357E+02 -0.46656528781E+02  0.71541129296E+02  0.00000000000E+00 0.  1.
         21    1    1    2  503  502 -0.30160304097E+02 -0.17998621710E+03 -0.25017181417E+03  0.30966210439E+03  0.00000000000E+00 0.  1.
          2    1    1    2  501    0  0.68458076685E+02  0.13360856223E+03  0.77160290965E+01  0.15032396107E+03  0.00000000000E+00 0. -1.
<scales pt_clust_5="13000.00000" pt_clust_6="13000.00000" pt_clust_7="13000.00000" pt_clust_8="13000.00000" pt_clust_9="172.16666" pt_clust_10="13000.00000"></scales>
<clustering>
<clus scale="   90.503">  5  6 -1 -1</clus>
<clus scale="   93.362">  7  8 -1 -1</clus>
<clus scale="  105.217">  1  5  2 -1</clus>
<clus scale="  115.019">  1  7  2 -1</clus>
<clus scale="  172.167">  2  9  1 -1</clus>
<clus scale="  172.167">  2  5  1 -1</clus>
</clustering>
</event>
<event>
10    2  0.6640105E-006  0.1019081E+03  0.7546771E-02  0.1280086E+00
          1   -1    0    0  503    0 -0.00000000000E+00  0.00000000000E+00  0.47409881682E+03  0.47409881682E+03  0.00000000000E+00 0. -1.
         21   -1    0    0  501  502  0.00000000000E+00 -0.00000000000E+00 -0.14966619831E+03  0.14966619831E+03  0.00000000000E+00 0. -1.
         23    2    1    2    0    0 -0.19916647209E+02  0.21464019293E+02  0.29960050588E+03  0.31682288322E+03  0.98787141111E+02 0.  0.
         23    2    1    2    0    0 -0.47605553516E+02 -0.34726460693E+02  0.96674642420E+02  0.14557302400E+03  0.91505754093E+02 0.  0.
        -11    1    4    4    0    0 -0.24735550338E+01 -0.36184427147E+02  0.93520908760E+02  0.10030748535E+03  0.00000000000E+00 0. -1.
         11    1    4    4    0    0 -0.45131998482E+02  0.14579664546E+01  0.31537336598E+01  0.45265538648E+02  0.00000000000E+00 0.  1.
        -13    1    3    3    0    0 -0.50285348873E+02  0.91332298832E+00  0.25073478740E+03  0.25572912248E+03  0.00000000000E+00 0.  1.
         13    1    3    3    0    0  0.30368701664E+02  0.20550696305E+02  0.48865718481E+02  0.61093760746E+02  0.00000000000E+00 0. -1.
         21    1    1    2  503  502 -0.59596216571E+00  0.23158310853E+02 -0.87720859064E+02  0.90728229606E+02  0.00000000000E+00 0. -1.
          1    1    1    2  501    0  0.68118162890E+02 -0.98958694538E+01  0.15878329273E+02  0.70640878309E+02  0.00000000000E+00 0. -1.
<scales pt_clust_5="13000.00000" pt_clust_6="13000.00000" pt_clust_7="13000.00000" pt_clust_8="13000.00000" pt_clust_9="23.16598" pt_clust_10="67.85079"></scales>
<clustering>
<clus scale="   23.166">  2  9  1 -1</clus>
<clus scale="   67.851">  2 10  1 -1</clus>
<clus scale="   91.506">  5  6 -1 -1</clus>
<clus scale="   94.867">  2  5  1 -1</clus>
<clus scale="   98.787">  7  8 -1 -1</clus>
<clus scale="   23.166">  2  5  1 -1</clus>
</clustering>
</event>
<event>
10    2  0.6640105E-006  0.1303524E+03  0.7546771E-02  0.1226964E+00
         21   -1    0    0  501  502  0.00000000000E+00  0.00000000000E+00  0.10883652679E+03  0.10883652679E+03  0.00000000000E+00 0. -1.
          1   -1    0    0  503    0 -0.00000000000E+00 -0.00000000000E+00 -0.69474095939E+03  0.69474095939E+03  0.00000000000E+00 0. -1.
         23    2    1    2    0    0 -0.98409413360E+02 -0.60329021352E+02 -0.54455957444E+03  0.56387244280E+03  0.89905495795E+02 0.  0.
         23    2    1    2    0    0 -0.20306291657E+02  0.38120656283E+02 -0.18901342276E+02  0.10141133761E+03  0.89785682259E+02 0.  0.
        -11    1    3    3    0    0 -0.80512681720E+02  0.12555134041E+01 -0.34447550917E+03  0.35376156468E+03  0.00000000000E+00 0. -1.
         11    1    3    3    0    0 -0.17896731641E+02 -0.61584534756E+02 -0.20008406527E+03  0.21011087811E+03  0.00000000000E+00 0.  1.
        -11    1    4    4    0    0 -0.31200937818E+02 -0.12645800663E+02 -0.33481464379E+02  0.47480767181E+02  0.00000000000E+00 0.  1.
         11    1    4    4    0    0  0.10894646161E+02  0.50766456946E+02  0.14580122103E+02  0.53930570425E+02  0.00000000000E+00 0. -1.
         21    1    1    2  503  502  0.37216360774E+02  0.13471864991E+02  0.21761049472E+02  0.45167376830E+02  0.00000000000E+00 0. -1.
          1    1    1    2  501    0  0.81499344243E+02  0.87365000783E+01 -0.44204565354E+02  0.93126328951E+02  0.00000000000E+00 0. -1.
<scales pt_clust_5="13000.00000" pt_clust_6="13000.00000" pt_clust_7="13000.00000" pt_clust_8="13000.00000" pt_clust_9="39.57965" pt_clust_10="94.49100"></scales>
<clustering>
<clus scale="   39.580">  1  9  2 -1</clus>
<clus scale="   89.786">  7  8 -1 -1</clus>
<clus scale="   89.905">  5  6 -1 -1</clus>
<clus scale="   94.491">  1 10  2 -1</clus>
<clus scale="  130.270">  1  7  2 -1</clus>
<clus scale="   39.580">  1  5  2 -1</clus>
</clustering>
</event>
<event>
10    2  0.6640105E-006  0.2600700E+03  0.7546771E-02  0.1128298E+00
          1   -1    0    0  503    0 -0.00000000000E+00  0.00000000000E+00  0.19303593668E+04  0.19303593668E+04  0.00000000000E+00 0. -1.
         21   -1    0    0  501  502  0.00000000000E+00 -0.00000000000E+00 -0.46599784512E+03  0.46599784512E+03  0.00000000000E+00 0.  1.
         23    2    1    2    0    0  0.71752630776E+02 -0.89620395550E+02  0.83692362631E+02  0.16885463208E+03  0.91253602067E+02 0.  0.
         23    2    1    2    0    0 -0.24482992312E+03  0.26173409545E+03  0.16425053639E+04  0.16836757291E+04  0.92161066901E+02 0.  0.
        -11    1    4    4    0    0 -0.54568091962E+02  0.12294029227E+03  0.60922342458E+03  0.62389516201E+03  0.00000000000E+00 0.  1.
         11    1    4    4    0    0 -0.19026183116E+03  0.13879380318E+03  0.10332819393E+04  0.10597805671E+04  0.00000000000E+00 0. -1.
        -11    1    3    3    0    0  0.10709373567E+02  0.16984243416E+02 -0.23050950714E+00  0.20080048337E+02  0.00000000000E+00 0.  1.
         11    1    3    3    0    0  0.61043257209E+02 -0.10660463897E+03  0.83922872138E+02  0.14877458374E+03  0.00000000000E+00 0. -1.
         21    1    1    2  503  502  0.41575485148E+02  0.96543309404E+00 -0.31687998784E+03  0.31959721482E+03  0.00000000000E+00 0.  1.
          1    1    1    2  501    0  0.13150180720E+03 -0.17307913300E+03  0.55043782934E+02  0.22422963590E+03  0.00000000000E+00 0. -1.
<scales pt_clust_5="13000.00000" pt_clust_6="13000.00000" pt_clust_7="13000.00000" pt_clust_8="13000.00000" pt_clust_9="41.58669" pt_clust_10="243.19280"></scales>
<clustering>
<clus scale="   41.587">  2  9  1 -1</clus>
<clus scale="   91.254">  7  8 -1 -1</clus>
<clus scale="   92.161">  5  6 -1 -1</clus>
<clus scale="  152.711">  1  7  2 -1</clus>
<clus scale="  243.193">  2 10  1 -1</clus>
<clus scale="   41.587">  2  5  1 -1</clus>
</clustering>
</event>
<event>
10    2  0.6640105E-006  0.1653525E+03  0.7546771E-02  0.1209400E+00
         21   -1    0    0  501  502  0.00000000000E+00  0.00000000000E+00  0.63159778780E+02  0.63159778780E+02  0.00000000000E+00 0. -1.
          1   -1    0    0  503    0 -0.00000000000E+00 -0.00000000000E+00 -0.11261993286E+04  0.11261993286E+04  0.00000000000E+00 0. -1.
         23    2    1    2    0    0  0.69420338989E+00 -0.34567033019E+01 -0.18047601436E+03  0.20157548949E+03  0.89714299238E+02 0.  0.
         23    2    1    2    0    0 -0.11692949004E+03  0.11968252660E+03 -0.50184678929E+03  0.53633832295E+03  0.88386559697E+02 0.  0.
        -11    1    4    4    0    0 -0.92983561192E+02  0.12874997107E+03 -0.46574482128E+03  0.49207797782E+03  0.00000000000E+00 0. -1.
         11    1    4    4    0    0 -0.23945928846E+02 -0.90674444703E+01 -0.36101968004E+02  0.44260345133E+02  0.00000000000E+00 0.  1.
        -13    1    3    3    0    0 -0.14817224697E+02  0.25206978760E+02 -0.14889781306E+02  0.32812307345E+02  0.00000000000E+00 0. -1.
         13    1    3    3    0    0  0.15511428087E+02 -0.28663682062E+02 -0.16558623305E+03  0.16876318214E+03  0.00000000000E+00 0.  1.
         21    1    1    2  503  502  0.11760276200E+01 -0.67600416070E+02 -0.21215268979E+02  0.70861039589E+02  0.00000000000E+00 0. -1.
          1    1    1    2  501    0  0.11505925903E+03 -0.48625407224E+02 -0.35950147722E+03  0.38058425537E+03  0.00000000000E+00 0. -1.
<scales pt_clust_5="13000.00000" pt_clust_6="13000.00000" pt_clust_7="13000.00000" pt_clust_8="13000.00000" pt_clust_9="67.61064" pt_clust_10="139.74720"></scales>
<clustering>
<clus scale="   67.611">  1  9  2 -1</clus>
<clus scale="   88.387">  5  6 -1 -1</clus>
<clus scale="   89.714">  7  8 -1 -1</clus>
<clus scale="   92.392">  2  7  1 -1</clus>
<clus scale="  139.747">  1 10  2 -1</clus>
<clus scale="   67.611">  1  5  2 -1</clus>
</clustering>
</event>
<event>
10    2  0.6640105E-006  0.1171471E+03  0.7546771E-02  0.1249132E+00
         -3   -1    0    0    0  501 -0.00000000000E+00  0.00000000000E+00  0.10306433756E+03  0.10306433756E+03  0.00000000000E+00 0.  1.
         21   -1    0    0  503  502  0.00000000000E+00 -0.00000000000E+00 -0.34340746722E+03  0.34340746722E+03  0.00000000000E+00 0.  1.
         23    2    1    2    0    0  0.24583412902E+02  0.54518074385E+02  0.91167831812E+01  0.11101174092E+03  0.93080214131E+02 0.  0.
         23    2    1    2    0    0 -0.53512471426E+02 -0.62479682482E+02 -0.74366725793E+02  0.14708298005E+03  0.96621414787E+02 0.  0.
        -13    1    3    3    0    0 -0.15902922467E+02  0.66468428190E+02  0.76742793711E+01  0.68773900958E+02  0.00000000000E+00 0.  1.
         13    1    3    3    0    0  0.40486335369E+02 -0.11950353806E+02  0.14425038100E+01  0.42237839965E+02  0.00000000000E+00 0. -1.
        -13    1    4    4    0    0 -0.59330678669E+01  0.25860641875E+02 -0.14337231721E+02  0.30158420150E+02  0.00000000000E+00 0. -1.
         13    1    4    4    0    0 -0.47579403560E+02 -0.88340324356E+02 -0.60029494072E+02  0.11692455991E+03  0.00000000000E+00 0.  1.
         21    1    1    2  503  501  0.22893458163E+02 -0.18894237113E+02 -0.14321849618E+03  0.14626223118E+03  0.00000000000E+00 0.  1.
         -3    1    1    2    0  502  0.60356003613E+01  0.26855845210E+02 -0.31874690870E+02  0.42114852626E+02  0.00000000000E+00 0.  1.
<scales pt_clust_5="13000.00000" pt_clust_6="13000.00000" pt_clust_7="13000.00000" pt_clust_8="13000.00000" pt_clust_9="26.48249" pt_clust_10="27.52571"></scales>
<clustering>
<clus scale="   27.526">  2 10  1 -1</clus>
<clus scale="   26.482">  2  9  1 -1</clus>
<clus scale="   93.080">  5  6 -1 -1</clus>
<clus scale="   96.621">  7  8 -1 -1</clus>
<clus scale="  114.244">  1  5  2 -1</clus>
<clus scale="   27.526">  2  5  1 -1</clus>
</clustering>
</event>
<event>
10    2  0.6640105E-006  0.1404680E+03  0.7546771E-02  0.1224653E+00
         21   -1    0    0  503  502  0.00000000000E+00  0.00000000000E+00  0.10304689108E+04  0.10304689108E+04  0.00000000000E+00 0.  1.
         -3   -1    0    0    0  501 -0.00000000000E+00 -0.00000000000E+00 -0.17345895044E+03  0.17345895044E+03  0.00000000000E+00 0.  1.
         23    2    1    2    0    0  0.16607760304E+02 -0.57666441204E+02 -0.12362346486E+03  0.16468037711E+03  0.90750368576E+02 0.  0.
         23    2    1    2    0    0  0.67858537180E+02  0.66691092213E+02  0.30999554591E+03  0.33680491042E+03  0.91037499673E+02 0.  0.
        -11    1    4    4    0    0  0.84265094597E+02  0.42213415917E+02  0.17640783269E+03  0.20000575513E+03  0.00000000000E+00 0.  1.
         11    1    4    4    0    0 -0.16406557417E+02  0.24477676296E+02  0.13358771322E+03  0.13679915529E+03  0.00000000000E+00 0. -1.
        -11    1    3    3    0    0 -0.28855529606E+02 -0.36917256846E+02 -0.97761872960E+02  0.10841083547E+03  0.00000000000E+00 0. -1.
         11    1    3    3    0    0  0.45463289910E+02 -0.20749184357E+02 -0.25861591904E+02  0.56269541643E+02  0.00000000000E+00 0.  1.
         21    1    1    2  503  501  0.52180285411E+02 -0.11325330767E+02  0.34771286869E+03  0.35178869276E+03  0.00000000000E+00 0.  1.
         -3    1    1    2    0  502 -0.13664658290E+03  0.23006797574E+01  0.32292501062E+03  0.35065388095E+03  0.00000000000E+00 0.  1.
<scales pt_clust_5="13000.00000" pt_clust_6="13000.00000" pt_clust_7="13000.00000" pt_clust_8="13000.00000" pt_clust_9="53.39518" pt_clust_10="106.97397"></scales>
<clustering>
<clus scale="   53.395">  1  9  2 -1</clus>
<clus scale="   90.750">  7  8 -1 -1</clus>
<clus scale="   91.037">  5  6 -1 -1</clus>
<clus scale="  109.230">  2  7  1 -1</clus>
<clus scale="  106.974">  1 10  2 -1</clus>
<clus scale="   53.395">  1  5  2 -1</clus>
</clustering>
</event>
<event>
10    2  0.6640105E-006  0.1071244E+03  0.7546771E-02  0.1273889E+00
         21   -1    0    0  503  502  0.00000000000E+00  0.00000000000E+00  0.80738865066E+02  0.80738865066E+02  0.00000000000E+00 0. -1.
          2   -1    0    0  502    0 -0.00000000000E+00 -0.00000000000E+00 -0.25766953527E+03  0.25766953527E+03  0.00000000000E+00 0. -1.
         23    2    1    2    0    0  0.45689436900E+02  0.57916636902E+02 -0.10627120516E+03  0.15853611507E+03  0.91642071460E+02 0.  0.
         23    2    1    2    0    0 -0.26061668158E+02 -0.22885630292E+02 -0.24039359623E+02  0.84602615989E+02  0.73326319968E+02 0.  0.
        -11    1    4    4    0    0 -0.75108108945E+01 -0.43336945712E+02  0.53148996982E+01  0.44302949143E+02  0.00000000000E+00 0. -1.
         11    1    4    4    0    0 -0.18550857264E+02  0.20451315420E+02 -0.29354259321E+02  0.40299666846E+02  0.00000000000E+00 0.  1.
        -11    1    3    3    0    0  0.10884133504E+02  0.64282120776E+02 -0.10442346181E+03  0.12310529960E+03  0.00000000000E+00 0. -1.
         11    1    3    3    0    0  0.34805303396E+02 -0.63654838740E+01 -0.18477433516E+01  0.35430815470E+02  0.00000000000E+00 0.  1.
         21    1    1    2  503  501  0.24411066922E+02 -0.22332377721E+02 -0.51960324986E+01  0.33490805255E+02  0.00000000000E+00 0. -1.
          2    1    1    2  501    0 -0.44038835663E+02 -0.12698628889E+02 -0.41424072919E+02  0.61778864019E+02  0.00000000000E+00 0. -1.
<scales pt_clust_5="13000.00000" pt_clust_6="13000.00000" pt_clust_7="13000.00000" pt_clust_8="13000.00000" pt_clust_9="33.08527" pt_clust_10="43.40883"></scales>
<clustering>
<clus scale="   33.085">  1  9  2 -1</clus>
<clus scale="   43.409">  1 10  2 -1</clus>
<clus scale="   73.326">  5  6 -1 -1</clus>
<clus scale="   91.642">  7  8 -1 -1</clus>
<clus scale="   91.946">  1  5  2 -1</clus>
<clus scale="   33.085">  1  5  2 -1</clus>
</clustering>
</event>
<event>
10    2  0.6640105E-006  0.2384880E+03  0.7546771E-02  0.1137002E+00
         -1   -1    0    0    0  501 -0.00000000000E+00  0.00000000000E+00  0.32699951933E+03  0.32699951933E+03  0.00000000000E+00 0.  1.
         21   -1    0    0  503  502  0.00000000000E+00 -0.00000000000E+00 -0.81800703362E+03  0.81800703362E+03  0.00000000000E+00 0.  1.
         23    2    1    2    0    0  0.10170574993E+03 -0.76902649170E+02 -0.63889159238E+00  0.15674483387E+03  0.91161712062E+02 0.  0.
         23    2    1    2    0    0 -0.32082363905E+03  0.11368448287E+03  0.81509320534E+02  0.36148449380E+03  0.90417370579E+02 0.  0.
        -11    1    3    3    0    0  0.42994117182E+02 -0.18573041078E+02  0.42651745879E+02  0.63345271281E+02  0.00000000000E+00 0. -1.
         11    1    3    3    0    0  0.58711632746E+02 -0.58329608092E+02 -0.43290637472E+02  0.93399562593E+02  0.00000000000E+00 0.  1.
        -13    1    4    4    0    0 -0.21811678997E+03  0.30984557136E+02  0.51924841341E+02  0.22634302728E+03  0.00000000000E+00 0.  1.
         13    1    4    4    0    0 -0.10270684908E+03  0.82699925733E+02  0.29584479193E+02  0.13514146652E+03  0.00000000000E+00 0. -1.
         21    1    1    2  503  501  0.15266340648E+03 -0.65044042914E+02 -0.49133486901E+03  0.51860080669E+03  0.00000000000E+00 0.  1.
         -1    1    1    2    0  502  0.66454482639E+02  0.28262209214E+02 -0.80543074223E+02  0.10817641858E+03  0.00000000000E+00 0.  1.
<scales pt_clust_5="13000.00000" pt_clust_6="13000.00000" pt_clust_7="13000.00000" pt_clust_8="13000.00000" pt_clust_9="220.68357" pt_clust_10="72.21462"></scales>
<clustering>
<clus scale="   72.215">  2 10  1 -1</clus>
<clus scale="   90.417">  7  8 -1 -1</clus>
<clus scale="   91.162">  5  6 -1 -1</clus>
<clus scale="  160.086">  1  5  2 -1</clus>
<clus scale="  220.684">  2  9  1 -1</clus>
<clus scale="   72.215">  2  5  1 -1</clus>
</clustering>
</event>
<event>
10    2  0.6640105E-006  0.9893173E+02  0.7546771E-02  0.1284229E+00
         21   -1    0    0  501  502  0.00000000000E+00  0.00000000000E+00  0.37223592097E+03  0.37223592097E+03  0.00000000000E+00 0. -1.
          4   -1    0    0  503    0 -0.00000000000E+00 -0.00000000000E+00 -0.35312674900E+03  0.35312674900E+03  0.00000000000E+00 0. -1.
         23    2    1    2    0    0  0.38280018859E+01 -0.24944789849E+02 -0.25143194165E+03  0.26957430518E+03  0.93890300850E+02 0.  0.
         23    2    1    2    0    0  0.23777442136E+02  0.51565484662E+00 -0.57696773011E+02  0.11536705539E+03  0.97030960004E+02 0.  0.
        -11    1    3    3    0    0  0.47966007197E+02 -0.33929819775E+01 -0.12176389237E+03  0.13091484125E+03  0.00000000000E+00 0.  1.
         11    1    3    3    0    0 -0.44138005311E+02 -0.21551807871E+02 -0.12966804928E+03  0.13865946394E+03  0.00000000000E+00 0. -1.
        -13    1    4    4    0    0  0.17608836382E+02  0.46219701500E+02 -0.46549660205E+02  0.67920562356E+02  0.00000000000E+00 0.  1.
         13    1    4    4    0    0  0.61686057544E+01 -0.45704046654E+02 -0.11147112806E+02  0.47446493036E+02  0.00000000000E+00 0. -1.
         21    1    1    2  503  502 -0.12930438658E+02 -0.26355013686E+02  0.57382415476E+02  0.64455601744E+02  0.00000000000E+00 0. -1.
          4    1    1    2  501    0 -0.14675005364E+02  0.50784148689E+02  0.27085547116E+03  0.27596570765E+03  0.00000000000E+00 0. -1.
<scales pt_clust_5="13000.00000" pt_clust_6="13000.00000" pt_clust_7="13000.00000" pt_clust_8="13000.00000" pt_clust_9="29.35614" pt_clust_10="37.96685"></scales>
<clustering>
<clus scale="   29.356">  1  9  2 -1</clus>
<clus scale="   37.967">  1 10  2 -1</clus>
<clus scale="   93.890">  5  6 -1 -1</clus>
<clus scale="   95.853">  2  5  1 -1</clus>
<clus scale="   97.031">  7  8 -1 -1</clus>
<clus scale="   29.356">  1  5  2 -1</clus>
</clustering>
</event>
<event>
10    2  0.6640105E-006  0.2080930E+03  0.7546771E-02  0.1145625E+00
          1   -1    0    0  503    0 -0.00000000000E+00  0.00000000000E+00  0.73735296134E+03  0.73735296134E+03  0.00000000000E+00 0. -1.
         21   -1    0    0  501  502  0.00000000000E+00 -0.00000000000E+00 -0.32129122790E+03  0.32129122790E+03  0.00000000000E+00 0. -1.
         23    2    1    2    0    0  0.17292112583E+03 -0.73376324686E+02  0.61810616976E+03  0.65142398052E+03  0.83738668007E+02 0.  0.
         23    2    1    2    0    0 -0.90947723178E+02  0.57436507446E+02 -0.54694949401E+02  0.16288414817E+03  0.10940414752E+03 0.  0.
        -11    1    3    3    0    0  0.10018442111E+03 -0.23736292891E+02  0.45023945736E+03  0.46186134152E+03  0.00000000000E+00 0. -1.
         11    1    3    3    0    0  0.72736704723E+02 -0.49640031795E+02  0.16786671240E+03  0.18956263899E+03  0.00000000000E+00 0.  1.
        -11    1    4    4    0    0 -0.99329912345E+02  0.90474735686E+01 -0.54738826625E+02  0.11377445849E+03  0.00000000000E+00 0. -1.
         11    1    4    4    0    0  0.83821891667E+01  0.48389033877E+02  0.43877224059E-01  0.49109689676E+02  0.00000000000E+00 0.  1.
         21    1    1    2  503  502 -0.35303505790E+02 -0.91490026550E+01 -0.17895929125E+03  0.18263753638E+03  0.00000000000E+00 0. -1.
          1    1    1    2  501    0 -0.46669896863E+02  0.25088819895E+02  0.31609804323E+02  0.61698524182E+02  0.00000000000E+00 0. -1.
<scales pt_clust_5="13000.00000" pt_clust_6="13000.00000" pt_clust_7="13000.00000" pt_clust_8="13000.00000" pt_clust_9="36.46974" pt_clust_10="55.91495"></scales>
<clustering>
<clus scale="   36.470">  2  9  1 -1</clus>
<clus scale="   55.915">  2 10  1 -1</clus>
<clus scale="   83.739">  5  6 -1 -1</clus>
<clus scale="  109.404">  7  8 -1 -1</clus>
<clus scale="  195.820">  1  5  2 -1</clus>
<clus scale="   36.470">  2  5  1 -1</clus>
</clustering>
</event>
<event>
10    2  0.6640105E-006  0.9131891E+02  0.7546771E-02  0.1300816E+00
         21   -1    0    0  503  502  0.00000000000E+00  0.00000000000E+00  0.26022759922E+03  0.26022759922E+03  0.00000000000E+00 0.  1.
          4   -1    0    0  502    0 -0.00000000000E+00 -0.00000000000E+00 -0.37350819635E+03  0.37350819635E+03  0.00000000000E+00 0. -1.
         23    2    1    2    0    0  0.16627962970E+02 -0.11701629989E+02 -0.17816713137E+03  0.20118129580E+03  0.91197422018E+02 0.  0.
         23    2    1    2    0    0  0.98008603026E+01 -0.18076883902E+02 -0.15722269871E+03  0.18198785192E+03  0.89318366884E+02 0.  0.
        -11    1    3    3    0    0  0.28686666373E+02  0.24872527513E+02 -0.30872437231E+02  0.48935414916E+02  0.00000000000E+00 0.  1.
         11    1    3    3    0    0 -0.12058703403E+02 -0.36574157502E+02 -0.14729469414E+03  0.15224588088E+03  0.00000000000E+00 0. -1.
        -11    1    4    4    0    0 -0.35637941279E+02  0.63052296613E+01 -0.91860944361E+02  0.98733235937E+02  0.00000000000E+00 0. -1.
         11    1    4    4    0    0  0.45438801582E+02 -0.24382113563E+02 -0.65361754347E+02  0.83254615982E+02  0.00000000000E+00 0.  1.
         21    1    1    2  503  501  0.15518297740E+02  0.27779323613E+02  0.20111468709E+03  0.20361636906E+03  0.00000000000E+00 0.  1.
          4    1    1    2  501    0 -0.41947121012E+02  0.19991902776E+01  0.20994545854E+02  0.46950278791E+02  0.00000000000E+00 0. -1.
<scales pt_clust_5="13000.00000" pt_clust_6="13000.00000" pt_clust_7="13000.00000" pt_clust_8="13000.00000" pt_clust_9="31.81994" pt_clust_10="37.59552"></scales>
<clustering>
<clus scale="   31.820">  1  9  2 -1</clus>
<clus scale="   37.596">  1 10  2 -1</clus>
<clus scale="   89.318">  7  8 -1 -1</clus>
<clus scale="   89.442">  1  7  2 -1</clus>
<clus scale="   91.197">  5  6 -1 -1</clus>
<clus scale="   31.820">  1  5  2 -1</clus>
</clustering>
</event>
<event>
10    2  0.6640105E-006  0.1390423E+03  0.7546771E-02  0.1229045E+00
         -1   -1    0    0    0  501 -0.00000000000E+00  0.00000000000E+00  0.71837839081E+03  0.71837839081E+03  0.00000000000E+00 0.  1.
         21   -1    0    0  503  502  0.00000000000E+00 -0.00000000000E+00 -0.81507215391E+02  0.81507215391E+02  0.00000000000E+00 0.  1.
         23    2    1    2    0    0  0.64839660708E+01 -0.52334635253E+02  0.14367058929E+03  0.17510066120E+03  0.85076715173E+02 0.  0.
         23    2    1    2    0    0  0.74893387004E+02 -0.24224228732E+02  0.44440223109E+03  0.46048527214E+03  0.91419419057E+02 0.  0.
        -11    1    4    4    0    0  0.48782436412E+02 -0.52065962403E+02  0.37050528447E+03  0.37731254467E+03  0.00000000000E+00 0.  1.
         11    1    4    4    0    0  0.26110950592E+02  0.27841733671E+02  0.73896946621E+02  0.83172727469E+02  0.00000000000E+00 0. -1.
        -13    1    3    3    0    0 -0.26796139582E+02  0.10302221579E+02  0.49254075696E+02  0.57009936315E+02  0.00000000000E+00 0. -1.
         13    1    3    3    0    0  0.33280105653E+02 -0.62636856831E+02  0.94416513593E+02  0.11809072489E+03  0.00000000000E+00 0.  1.
         21    1    1    2  503  501 -0.25200249716E+02 -0.25084566116E+02  0.30269635779E+02  0.46696240675E+02  0.00000000000E+00 0. -1.
         -1    1    1    2    0  502 -0.56177103359E+02  0.10164343010E+03  0.18528719261E+02  0.11760343219E+03  0.00000000000E+00 0.  1.
<scales pt_clust_5="13000.00000" pt_clust_6="13000.00000" pt_clust_7="13000.00000" pt_clust_8="13000.00000" pt_clust_9="35.55683" pt_clust_10="104.76281"></scales>
<clustering>
<clus scale="   35.557">  2  9  1 -1</clus>
<clus scale="   85.077">  7  8 -1 -1</clus>
<clus scale="   91.419">  5  6 -1 -1</clus>
<clus scale="  102.811">  1  7  2 -1</clus>
<clus scale="  104.763">  2 10  1 -1</clus>
<clus scale="   35.557">  2  5  1 -1</clus>
</clustering>
</event>
<event>
10    2  0.6640105E-006  0.1846143E+03  0.7546771E-02  0.1163432E+00
         21   -1    0    0  501  502  0.00000000000E+00  0.00000000000E+00  0.76542885316E+03  0.76542885316E+03  0.00000000000E+00 0.  1.
         -2   -1    0    0    0  501 -0.00000000000E+00 -0.00000000000E+00 -0.12403386373E+03  0.12403386373E+03  0.00000000000E+00 0.  1.
         23    2    1    2    0    0  0.14668095008E+03 -0.41051106546E+02  0.35576417985E+01  0.17948693688E+03  0.94881026728E+02 0.  0.
         23    2    1    2    0    0 -0.19579580823E+03 -0.17996361739E+02  0.39690275671E+03  0.45294699121E+03  0.94706446470E+02 0.  0.
        -11    1    4    4    0    0 -0.12928003641E+03 -0.38542614985E+02  0.17866875377E+03  0.22387805734E+03  0.00000000000E+00 0. -1.
         11    1    4    4    0    0 -0.66515771814E+02  0.20546253246E+02  0.21823400294E+03  0.22906893387E+03  0.00000000000E+00 0.  1.
        -13    1    3    3    0    0  0.13826924154E+03 -0.10699431536E+01 -0.17691050862E+01  0.13828469788E+03  0.00000000000E+00 0. -1.
         13    1    3    3    0    0  0.84117085359E+01 -0.39981163393E+02  0.53267468847E+01  0.41202239006E+02  0.00000000000E+00 0.  1.
         21    1    1    2  503  502  0.34455503305E+02  0.16500134560E+02  0.15925037726E+03  0.16376849149E+03  0.00000000000E+00 0.  1.
         -2    1    1    2    0  503  0.14659354845E+02  0.42547333726E+02  0.81684213669E+02  0.93260297310E+02  0.00000000000E+00 0.  1.
<scales pt_clust_5="13000.00000" pt_clust_6="13000.00000" pt_clust_7="13000.00000" pt_clust_8="13000.00000" pt_clust_9="38.20257" pt_clust_10="49.04563"></scales>
<clustering>
<clus scale="   38.203">  1  9  2 -1</clus>
<clus scale="   49.046">  1 10  2 -1</clus>
<clus scale="   94.706">  5  6 -1 -1</clus>
<clus scale="   94.881">  7  8 -1 -1</clus>
<clus scale="  184.525">  1  5  2 -1</clus>
<clus scale="   38.203">  1  5  2 -1</clus>
</clustering>
</event>
<event>
10    2  0.6640105E-006  0.9691771E+02  0.7546771E-02  0.1289922E+00
         21   -1    0    0  503  502  0.00000000000E+00  0.00000000000E+00  0.57231274973E+03  0.57231274973E+03  0.00000000000E+00 0. -1.
         -3   -1    0    0    0  501 -0.00000000000E+00 -0.00000000000E+00 -0.28040094325E+03  0.28040094325E+03  0.00000000000E+00 0.  1.
         23    2    1    2    0    0  0.12482207663E+02  0.19918981602E+02 -0.12271302656E+03  0.15088104763E+03  0.84581512817E+02 0.  0.
         23    2    1    2    0    0 -0.62018925631E+02 -0.49225045598E+02 -0.21192704561E+02  0.12196623105E+03  0.90317099932E+02 0.  0.
        -11    1    4    4    0    0 -0.50358783325E+02 -0.73612682182E+02 -0.27309805991E+01  0.89231677621E+02  0.00000000000E+00 0. -1.
         11    1    4    4    0    0 -0.11660142305E+02  0.24387636584E+02 -0.18461723962E+02  0.32734553432E+02  0.00000000000E+00 0.  1.
        -13    1    3    3    0    0  0.32222695508E+02  0.24099265578E+02 -0.12429022826E+03  0.13064125515E+03  0.00000000000E+00 0.  1.
         13    1    3    3    0    0 -0.19740487845E+02 -0.41802839757E+01  0.15772016955E+01  0.20239792481E+02  0.00000000000E+00 0. -1.
         21    1    1    2  503  501  0.66774868725E+02 -0.12824111673E+00  0.50146208742E+03  0.50588845081E+03  0.00000000000E+00 0. -1.
         -3    1    1    2    0  502 -0.17238150757E+02  0.29434305113E+02 -0.65644549825E+02  0.73977963481E+02  0.00000000000E+00 0.  1.
<scales pt_clust_5="13000.00000" pt_clust_6="13000.00000" pt_clust_7="13000.00000" pt_clust_8="13000.00000" pt_clust_9="57.66926" pt_clust_10="34.11060"></scales>
<clustering>
<clus scale="   34.111">  1 10  2 -1</clus>
<clus scale="   57.669">  1  9  2 -1</clus>
<clus scale="   84.582">  7  8 -1 -1</clus>
<clus scale="   90.317">  5  6 -1 -1</clus>
<clus scale="   91.596">  2  7  1 -1</clus>
<clus scale="   34.111">  1  5  2 -1</clus>
</clustering>
</event>
<event>
10    2  0.6640105E-006  0.1871980E+03  0.7546771E-02  0.1183703E+00
         -2   -1    0    0    0  501 -0.00000000000E+00  0.00000000000E+00  0.90970571451E+02  0.90970571451E+02  0.00000000000E+00 0.  1.
         21   -1    0    0  503  502  0.00000000000E+00 -0.00000000000E+00 -0.18692767888E+04  0.18692767888E+04  0.00000000000E+00 0.  1.
         23    2    1    2    0    0 -0.29134143154E+00  0.67321688718E+02 -0.31121227052E+01  0.11216487272E+03  0.89660351953E+02 0.  0.
         23    2    1    2    0    0  0.85429967557E+02  0.88218505473E+02 -0.30375980842E+03  0.34184846752E+03  0.97517021412E+02 0.  0.
        -11    1    4    4    0    0  0.20598675524E+02 -0.93279331285E+01 -0.84156448437E+01  0.24127553708E+02  0.00000000000E+00 0. -1.
         11    1    4    4    0    0  0.64831292033E+02  0.97546438601E+02 -0.29534416358E+03  0.31772091381E+03  0.00000000000E+00 0.  1.
        -13    1    3    3    0    0  0.15057651484E+02  0.50663634597E+02  0.38088546611E+02  0.65148093769E+02  0.00000000000E+00 0. -1.
         13    1    3    3    0    0 -0.15348992915E+02  0.16658054121E+02 -0.41200669316E+02  0.47016778949E+02  0.00000000000E+00 0.  1.
         21    1    1    2  503  501 -0.15308326845E+03 -0.13022411306E+03 -0.13493950979E+04  0.13642800068E+04  0.00000000000E+00 0.  1.
         -2    1    1    2    0  502  0.67944642320E+02 -0.25316081135E+02 -0.12203918831E+03  0.14195401321E+03  0.00000000000E+00 0.  1.
<scales pt_clust_5="13000.00000" pt_clust_6="13000.00000" pt_clust_7="13000.00000" pt_clust_8="13000.00000" pt_clust_9="159.79213" pt_clust_10="72.50782"></scales>
<clustering>
<clus scale="   72.508">  2 10  1 -1</clus>
<clus scale="   89.660">  7  8 -1 -1</clus>
<clus scale="   97.517">  5  6 -1 -1</clus>
<clus scale="  111.636">  1  7  2 -1</clus>
<clus scale="  159.792">  2  9  1 -1</clus>
<clus scale="   72.508">  2  5  1 -1</clus>
</clustering>
</event>
<event>
10    2  0.6640105E-006  0.2165020E+03  0.7546771E-02  0.1159100E+00
         21   -1    0    0  503  502  0.00000000000E+00  0.00000000000E+00  0.29668862003E+03  0.29668862003E+03  0.00000000000E+00 0.  1.
         -1   -1    0    0    0  501 -0.00000000000E+00 -0.00000000000E+00 -0.34608689700E+03  0.34608689700E+03  0.00000000000E+00 0.  1.
         23    2    1    2    0    0  0.10242701243E+03  0.13542390653E+02 -0.39749599367E+02  0.13811866024E+03  0.82595668392E+02 0.  0.
         23    2    1    2    0    0 -0.89713650468E+02 -0.19085306961E+03 -0.80549291917E+02  0.24378175354E+03  0.92021310962E+02 0.  0.
        -11    1    4    4    0    0 -0.31622345593E+02 -0.87165022396E+01  0.69553266270E+01  0.33530981504E+02  0.00000000000E+00 0. -1.
         11    1    4    4    0    0 -0.58091304875E+02 -0.18213656737E+03 -0.87504618544E+02  0.21025077204E+03  0.00000000000E+00 0.  1.
        -13    1    3    3    0    0  0.69404894183E+02  0.15158976560E+02  0.16445051880E+02  0.72919638221E+02  0.00000000000E+00 0.  1.
         13    1    3    3    0    0  0.33022118243E+02 -0.16165859067E+01 -0.56194651248E+02  0.65199022018E+02  0.00000000000E+00 0. -1.
         21    1    1    2  503  501 -0.37343770376E+02 -0.26299268467E+02  0.17776024380E+02  0.49012200017E+02  0.00000000000E+00 0.  1.
         -1    1    1    2    0  502  0.24630408418E+02  0.20360994743E+03  0.53124589938E+02  0.21186290323E+03  0.00000000000E+00 0.  1.
<scales pt_clust_5="13000.00000" pt_clust_6="13000.00000" pt_clust_7="13000.00000" pt_clust_8="13000.00000" pt_clust_9="45.67503" pt_clust_10="195.97244"></scales>
<clustering>
<clus scale="   45.675">  1  9  2 -1</clus>
<clus scale="   82.596">  7  8 -1 -1</clus>
<clus scale="   92.021">  5  6 -1 -1</clus>
<clus scale="  126.520">  2  7  1 -1</clus>
<clus scale="  195.972">  1 10  2 -1</clus>
<clus scale="   45.675">  1  5  2 -1</clus>
</clustering>
</event>
<event>
10    2  0.6640105E-006  0.9471870E+02  0.7546771E-02  0.1292223E+00
         21   -1    0    0  501  502  0.00000000000E+00  0.00000000000E+00  0.79193747106E+03  0.79193747106E+03  0.00000000000E+00 0.  1.
          1   -1    0    0  503    0 -0.00000000000E+00 -0.00000000000E+00 -0.24285322873E+02  0.24285322873E+02  0.00000000000E+00 0. -1.
         23    2    1    2    0    0  0.20258291081E+02 -0.63028645319E+01  0.14100282991E+03  0.16924312599E+03  0.91166403871E+02 0.  0.
         23    2    1    2    0    0 -0.12795187134E+02  0.31420168752E+02  0.32840797743E+03  0.34271143931E+03  0.91915108542E+02 0.  0.
        -11    1    3    3    0    0 -0.24658439974E+02  0.20784558029E+02  0.21565385625E+02  0.38795648874E+02  0.00000000000E+00 0. -1.
         11    1    3    3    0    0  0.44916731055E+02 -0.27087422561E+02  0.11943744428E+03  0.13044747712E+03  0.00000000000E+00 0.  1.
        -11    1    4    4    0    0 -0.15652682950E+02 -0.28923264938E+02  0.17048704822E+03  0.17363005313E+03  0.00000000000E+00 0.  1.
         11    1    4    4    0    0  0.28574958166E+01  0.60343433690E+02  0.15792092920E+03  0.16908138618E+03  0.00000000000E+00 0. -1.
         21    1    1    2  503  502 -0.28292917288E+02 -0.16652288523E+02  0.23208561463E+03  0.23439607590E+03  0.00000000000E+00 0.  1.
          1    1    1    2  501    0  0.20829813341E+02 -0.84650156967E+01  0.66155726221E+02  0.69872152725E+02  0.00000000000E+00 0. -1.
<scales pt_clust_5="13000.00000" pt_clust_6="13000.00000" pt_clust_7="13000.00000" pt_clust_8="13000.00000" pt_clust_9="29.00591" pt_clust_10="22.48416"></scales>
<clustering>
<clus scale="   22.484">  1 10  2 -1</clus>
<clus scale="   29.006">  1  9  2 -1</clus>
<clus scale="   91.166">  5  6 -1 -1</clus>
<clus scale="   91.915">  7  8 -1 -1</clus>
<clus scale="   93.992">  2  5  1 -1</clus>
<clus scale="   22.484">  1  5  2 -1</clus>
</clustering>
</event>
<event>
10    2  0.6640105E-006  0.1250725E+03  0.7546771E-02  0.1248264E+00
         -1   -1    0    0    0  501 -0.00000000000E+00  0.00000000000E+00  0.76944263113E+03  0.76944263113E+03  0.00000000000E+00 0.  1.
         21   -1    0    0  503  502  0.00000000000E+00 -0.00000000000E+00 -0.98960539162E+02  0.98960539162E+02  0.00000000000E+00 0. -1.
         23    2    1    2    0    0  0.50974808576E+01 -0.34357266247E+02  0.69047159516E+03  0.70170377458E+03  0.12012808781E+03 0.  0.
         23    2    1    2    0    0  0.17913610153E+02  0.38030696918E+02 -0.14470390165E+02  0.99438979200E+02  0.88946540439E+02 0.  0.
        -13    1    4    4    0    0 -0.14365667805E+02  0.52923379760E+02  0.10711003830E+02  0.55874700355E+02  0.00000000000E+00 0.  1.
         13    1    4    4    0    0  0.32279277958E+02 -0.14892682842E+02 -0.25181393995E+02  0.43564278845E+02  0.00000000000E+00 0. -1.
        -13    1    3    3    0    0  0.10360021919E+02 -0.79182675525E+02  0.43080807192E+03  0.43814703124E+03  0.00000000000E+00 0.  1.
         13    1    3    3    0    0 -0.52625410610E+01  0.44825409278E+02  0.25966352324E+03  0.26355674334E+03  0.00000000000E+00 0. -1.
         21    1    1    2  503  501 -0.17174332536E+02  0.20405618367E+02 -0.24369914405E+02  0.36128101072E+02  0.00000000000E+00 0.  1.
         -1    1    1    2    0  502 -0.58367584753E+01 -0.24079049038E+02  0.18850801377E+02  0.31132315439E+02  0.00000000000E+00 0.  1.
<scales pt_clust_5="13000.00000" pt_clust_6="13000.00000" pt_clust_7="13000.00000" pt_clust_8="13000.00000" pt_clust_9="22.83917" pt_clust_10="24.77637"></scales>
<clustering>
<clus scale="   24.776">  2 10  1 -1</clus>
<clus scale="   22.839">  2  9  1 -1</clus>
<clus scale="   88.947">  5  6 -1 -1</clus>
<clus scale="   95.519">  2  5  1 -1</clus>
<clus scale="  120.128">  7  8 -1 -1</clus>
<clus scale="   24.776">  2  5  1 -1</clus>
</clustering>
</event>
<event>
10    2  0.6640105E-006  0.1015801E+03  0.7546771E-02  0.1277489E+00
         21   -1    0    0  503  502  0.00000000000E+00  0.00000000000E+00  0.22181225927E+03  0.22181225927E+03  0.00000000000E+00 0.  1.
          1   -1    0    0  502    0 -0.00000000000E+00 -0.00000000000E+00 -0.55341482459E+03  0.55341482459E+03  0.00000000000E+00 0. -1.
         23    2    1    2    0    0  0.53819517542E+02 -0.12659976419E+02 -0.29964840488E+03  0.31811922234E+03  0.91399439838E+02 0.  0.
         23    2    1    2    0    0 -0.20977782458E+02 -0.46368765182E+02 -0.18592629064E+03  0.21377670859E+03  0.92421674090E+02 0.  0.
        -11    1    3    3    0    0  0.64994801130E+02 -0.32932142010E+02 -0.27420938931E+03  0.28372458360E+03  0.00000000000E+00 0. -1.
         11    1    3    3    0    0 -0.11175283588E+02  0.20272165591E+02 -0.25439015569E+02  0.34394638741E+02  0.00000000000E+00 0.  1.
        -13    1    4    4    0    0 -0.29738710227E+02  0.16143107899E+02 -0.10973862825E+03  0.11483709048E+03  0.00000000000E+00 0.  1.
         13    1    4    4    0    0  0.87609277683E+01 -0.62511873082E+02 -0.76187662389E+02  0.98939618110E+02  0.00000000000E+00 0. -1.
         21    1    1    2  503  501  0.36268491637E+02  0.30832988500E+02  0.16144548303E+03  0.16831732132E+03  0.00000000000E+00 0.  1.
          1    1    1    2  501    0 -0.69110226720E+02  0.28195753101E+02 -0.74733528222E+01  0.75013831609E+02  0.00000000000E+00 0. -1.
<scales pt_clust_5="13000.00000" pt_clust_6="13000.00000" pt_clust_7="13000.00000" pt_clust_8="13000.00000" pt_clust_9="47.60333" pt_clust_10="66.53048"></scales>
<clustering>
<clus scale="   47.603">  1  9  2 -1</clus>
<clus scale="   66.530">  1 10  2 -1</clus>
<clus scale="   91.399">  5  6 -1 -1</clus>
<clus scale="   92.422">  7  8 -1 -1</clus>
<clus scale="  100.651">  2  5  1 -1</clus>
<clus scale="   47.603">  1  5  2 -1</clus>
</clustering>
</event>
<event>
10    2  0.6640105E-006  0.9340951E+02  0.7546771E-02  0.1297692E+00
          1   -1    0    0  503    0 -0.00000000000E+00  0.00000000000E+00  0.45622461389E+03  0.45622461389E+03  0.00000000000E+00 0. -1.
         21   -1    0    0  501  502  0.00000000000E+00 -0.00000000000E+00 -0.20531994986E+03  0.20531994986E+03  0.00000000000E+00 0.  1.
         23    2    1    2    0    0  0.23568881673E+02  0.20274167708E+02  0.30068216613E+03  0.31583678602E+03  0.91523638040E+02 0.  0.
         23    2    1    2    0    0  0.26451208710E+02 -0.93587357759E+01  0.10666420493E+03  0.14019033070E+03  0.86537990688E+02 0.  0.
        -13    1    3    3    0    0 -0.19323013204E+02  0.34989398758E+02  0.68848665449E+02  0.79610147587E+02  0.00000000000E+00 0.  1.
         13    1    3    3    0    0  0.42891894877E+02 -0.14715231050E+02  0.23183350068E+03  0.23622663844E+03  0.00000000000E+00 0. -1.
        -13    1    4    4    0    0 -0.28100599018E+02 -0.30581595799E+01  0.11909526316E+02  0.30672998260E+02  0.00000000000E+00 0.  1.
         13    1    4    4    0    0  0.54551807728E+02 -0.63005761960E+01  0.94754678613E+02  0.10951733245E+03  0.00000000000E+00 0. -1.
         21    1    1    2  503  502 -0.34607549774E+02  0.16723422672E+02 -0.16760857228E+03  0.17195926514E+03  0.00000000000E+00 0.  1.
          1    1    1    2  501    0 -0.15412540609E+02 -0.27638854604E+02  0.11166865253E+02  0.33558181885E+02  0.00000000000E+00 0. -1.
<scales pt_clust_5="13000.00000" pt_clust_6="13000.00000" pt_clust_7="13000.00000" pt_clust_8="13000.00000" pt_clust_9="48.66125" pt_clust_10="31.64574"></scales>
<clustering>
<clus scale="   31.646">  2 10  1 -1</clus>
<clus scale="   48.661">  2  9  1 -1</clus>
<clus scale="   86.538">  7  8 -1 -1</clus>
<clus scale="   88.530">  2  7  1 -1</clus>
<clus scale="   91.524">  5  6 -1 -1</clus>
<clus scale="   31.646">  2  5  1 -1</clus>
</clustering>
</event>
<event>
10    2  0.6640105E-006  0.1084733E+03  0.7546771E-02  0.1264945E+00
         21   -1    0    0  501  502  0.00000000000E+00  0.00000000000E+00  0.18679792808E+03  0.18679792808E+03  0.00000000000E+00 0.  1.
          1   -1    0    0  503    0 -0.00000000000E+00 -0.00000000000E+00 -0.26299744122E+03  0.26299744122E+03  0.00000000000E+00 0. -1.
         23    2    1    2    0    0 -0.57602139095E+02 -0.23307531599E+02 -0.12668853634E+03  0.16709642685E+03  0.89498509319E+02 0.  0.
         23    2    1    2    0    0  0.39995596475E+01  0.16539060787E+02  0.12124326798E+03  0.15387669056E+03  0.93212493035E+02 0.  0.
        -11    1    4    4    0    0  0.37736960664E+02 -0.21868645968E+02  0.57240783810E+02  0.71964041075E+02  0.00000000000E+00 0.  1.
         11    1    4    4    0    0 -0.33737401016E+02  0.38407706755E+02  0.64002484171E+02  0.81912649485E+02  0.00000000000E+00 0. -1.
        -13    1    3    3    0    0  0.16786950130E+02 -0.26606268631E+02 -0.57027715925E+02  0.65129529468E+02  0.00000000000E+00 0.  1.
         13    1    3    3    0    0 -0.74389089225E+02  0.32987370321E+01 -0.69660820410E+02  0.10196689738E+03  0.00000000000E+00 0. -1.
         21    1    1    2  503  502 -0.22343278762E+02 -0.11269062610E+02 -0.25310219532E+01  0.25151937303E+02  0.00000000000E+00 0. -1.
          1    1    1    2  501    0  0.75945858209E+02  0.18037533423E+02 -0.68223222839E+02  0.10367031458E+03  0.00000000000E+00 0. -1.
<scales pt_clust_5="13000.00000" pt_clust_6="13000.00000" pt_clust_7="13000.00000" pt_clust_8="13000.00000" pt_clust_9="25.02427" pt_clust_10="75.60228"></scales>
<clustering>
<clus scale="   25.024">  1  9  2 -1</clus>
<clus scale="   75.602">  1 10  2 -1</clus>
<clus scale="   89.499">  7  8 -1 -1</clus>
<clus scale="   93.212">  5  6 -1 -1</clus>
<clus scale="  105.299">  2  7  1 -1</clus>
<clus scale="   25.024">  1  5  2 -1</clus>
</clustering>
</event>
<event>
10    2  0.6640105E-006  0.1576568E+03  0.7546771E-02  0.1207007E+00
          3   -1    0    0  502    0 -0.00000000000E+00  0.00000000000E+00  0.35658368817E+03  0.35658368817E+03  0.00000000000E+00 0. -1.
         21   -1    0    0  503  502  0.00000000000E+00 -0.00000000000E+00 -0.18139073983E+03  0.18139073983E+03  0.00000000000E+00 0. -1.
         23    2    1    2    0    0  0.46876659614E+02 -0.37992241758E+02  0.49663173434E+02  0.11966202471E+03  0.90618638880E+02 0.  0.
         23    2    1    2    0    0 -0.71781040400E+02 -0.91434871083E+02  0.19097464479E+03  0.24460405305E+03  0.99231922309E+02 0.  0.
        -11    1    3    3    0    0  0.68024053517E+02 -0.46028510948E+02  0.51533738054E+02  0.96961960762E+02  0.00000000000E+00 0. -1.
         11    1    3    3    0    0 -0.21147393903E+02  0.80362691898E+01 -0.18705646199E+01  0.22700063951E+02  0.00000000000E+00 0.  1.
        -11    1    4    4    0    0  0.10449899255E+02 -0.58807315638E+02  0.48694628461E+02  0.77062751106E+02  0.00000000000E+00 0.  1.
         11    1    4    4    0    0 -0.82230939655E+02 -0.32627555445E+02  0.14228001633E+03  0.16754130194E+03  0.00000000000E+00 0. -1.
         21    1    1    2  503  501  0.34062031614E+02  0.36919720283E+01 -0.20164521669E+02  0.39755007097E+02  0.00000000000E+00 0. -1.
          3    1    1    2  501    0 -0.91576508277E+01  0.12573514081E+03 -0.45280348213E+02  0.13395334314E+03  0.00000000000E+00 0. -1.
<scales pt_clust_5="13000.00000" pt_clust_6="13000.00000" pt_clust_7="13000.00000" pt_clust_8="13000.00000" pt_clust_9="34.26153" pt_clust_10="122.50997"></scales>
<clustering>
<clus scale="   34.262">  2  9  1 -1</clus>
<clus scale="   90.619">  5  6 -1 -1</clus>
<clus scale="   99.232">  7  8 -1 -1</clus>
<clus scale="  112.199">  1  5  2 -1</clus>
<clus scale="  122.510">  2 10  1 -1</clus>
<clus scale="   34.262">  2  5  1 -1</clus>
</clustering>
</event>
<event>
10    2  0.6640105E-006  0.2218987E+03  0.7546771E-02  0.1132491E+00
         21   -1    0    0  501  502  0.00000000000E+00  0.00000000000E+00  0.24526663770E+03  0.24526663770E+03  0.00000000000E+00 0. -1.
          1   -1    0    0  503    0 -0.00000000000E+00 -0.00000000000E+00 -0.98458278889E+03  0.98458278889E+03  0.00000000000E+00 0. -1.
         23    2    1    2    0    0  0.23053189046E+03  0.81717762934E+02 -0.79543161180E+03  0.83724656426E+03  0.91910908008E+02 0.  0.
         23    2    1    2    0    0 -0.10128739074E+03 -0.57623161947E+02 -0.86299313488E+02  0.17156969888E+03  0.91700740171E+02 0.  0.
        -11    1    4    4    0    0 -0.69296849165E+02 -0.78461722261E+02 -0.82342270054E+02  0.13318612766E+03  0.00000000000E+00 0.  1.
         11    1    4    4    0    0 -0.31990541575E+02  0.20838560314E+02 -0.39570434339E+01  0.38383571212E+02  0.00000000000E+00 0. -1.
        -11    1    3    3    0    0  0.12017720672E+03  0.90558016344E+02 -0.46971857002E+03  0.49323305887E+03  0.00000000000E+00 0. -1.
         11    1    3    3    0    0  0.11035468374E+03 -0.88402534103E+01 -0.32571304179E+03  0.34401350539E+03  0.00000000000E+00 0.  1.
         21    1    1    2  503  502 -0.23300341143E+02  0.29604279571E+02  0.76304712183E+02  0.85098345270E+02  0.00000000000E+00 0. -1.
          1    1    1    2  501    0 -0.10594415857E+03 -0.53698880557E+02  0.66110061913E+02  0.13593481819E+03  0.00000000000E+00 0. -1.
<scales pt_clust_5="13000.00000" pt_clust_6="13000.00000" pt_clust_7="13000.00000" pt_clust_8="13000.00000" pt_clust_9="37.67385" pt_clust_10="125.38566"></scales>
<clustering>
<clus scale="   37.674">  1  9  2 -1</clus>
<clus scale="   91.701">  5  6 -1 -1</clus>
<clus scale="   91.911">  7  8 -1 -1</clus>
<clus scale="  125.386">  1 10  2 -1</clus>
<clus scale="  221.812">  1  5  2 -1</clus>
<clus scale="   37.674">  1  5  2 -1</clus>
</clustering>
</event>
<event>
10    2  0.6640105E-006  0.1199444E+03  0.7546771E-02  0.1257042E+00
         21   -1    0    0  501  502  0.00000000000E+00  0.00000000000E+00  0.99209249882E+03  0.99209249882E+03  0.00000000000E+00 0. -1.
          1   -1    0    0  503    0 -0.00000000000E+00 -0.00000000000E+00 -0.10405673741E+03  0.10405673741E+03  0.00000000000E+00 0. -1.
         23    2    1    2    0    0 -0.51295471773E+02 -0.12720609529E+02  0.23569187873E+03  0.25263159259E+03  0.74020406263E+02 0.  0.
         23    2    1    2    0    0  0.62077594630E+02  0.29243230860E+02 -0.27887722432E+02  0.11734928297E+03  0.91018321477E+02 0.  0.
        -11    1    4    4    0    0  0.31685401145E+02 -0.23516626116E+00  0.31324961175E+02  0.44556404046E+02  0.00000000000E+00 0.  1.
         11    1    4    4    0    0  0.30392193485E+02  0.29478397122E+02 -0.59212683608E+02  0.72792878922E+02  0.00000000000E+00 0. -1.
        -13    1    3    3    0    0 -0.25868713606E+02  0.21832684148E+02  0.40513049925E+02  0.52793594829E+02  0.00000000000E+00 0. -1.
         13    1    3    3    0    0 -0.25426758167E+02 -0.34553293677E+02  0.19517882880E+03  0.19983799776E+03  0.00000000000E+00 0.  1.
         21    1    1    2  503  502 -0.10547667646E+03 -0.68992466866E+02  0.50246400047E+03  0.51803027087E+03  0.00000000000E+00 0. -1.
          1    1    1    2  501    0  0.94694553604E+02  0.52469845535E+02  0.17776760463E+03  0.20813808981E+03  0.00000000000E+00 0. -1.
<scales pt_clust_5="13000.00000" pt_clust_6="13000.00000" pt_clust_7="13000.00000" pt_clust_8="13000.00000" pt_clust_9="13000.00000" pt_clust_10="119.94444"></scales>
<clustering>
<clus scale="   74.020">  7  8 -1 -1</clus>
<clus scale="   90.951">  2  7  1 -1</clus>
<clus scale="   91.018">  5  6 -1 -1</clus>
<clus scale="   95.925">  2  5  1 -1</clus>
<clus scale="  119.944">  2 10  1 -1</clus>
<clus scale="  119.944">  1  5  2 -1</clus>
</clustering>
</event>
<event>
10    2  0.6640105E-006  0.1327043E+03  0.7546771E-02  0.1234828E+00
         21   -1    0    0  501  502  0.00000000000E+00  0.00000000000E+00  0.16445028413E+03  0.16445028413E+03  0.00000000000E+00 0.  1.
          2   -1    0    0  503    0 -0.00000000000E+00 -0.00000000000E+00 -0.89983360945E+03  0.89983360945E+03  0.00000000000E+00 0. -1.
         23    2    1    2    0    0 -0.32883620495E+02  0.43810573408E+02 -0.49413175613E+03  0.50516140422E+03  0.89560890244E+02 0.  0.
         23    2    1    2    0    0 -0.35162685756E+02  0.87041749372E+02  0.41824420587E+02  0.13718003770E+03  0.90864734535E+02 0.  0.
        -11    1    4    4    0    0 -0.55328606692E+02  0.88501317812E+02  0.49547506094E+02  0.11553654544E+03  0.00000000000E+00 0.  1.
         11    1    4    4    0    0  0.20165920936E+02 -0.14595684401E+01 -0.77230855072E+01  0.21643492254E+02  0.00000000000E+00 0. -1.
        -13    1    3    3    0    0 -0.20580801377E+02  0.70222110571E+02 -0.39947412612E+03  0.40612103078E+03  0.00000000000E+00 0. -1.
         13    1    3    3    0    0 -0.12302819118E+02 -0.26411537164E+02 -0.94657630006E+02  0.99040373444E+02  0.00000000000E+00 0.  1.
         21    1    1    2  503  502 -0.38241492699E+02 -0.10365740078E+03  0.81001149116E+01  0.11078303283E+03  0.00000000000E+00 0.  1.
          2    1    1    2  501    0  0.10628779895E+03 -0.27194921996E+02 -0.29117610469E+03  0.31115941883E+03  0.00000000000E+00 0. -1.
<scales pt_clust_5="13000.00000" pt_clust_6="13000.00000" pt_clust_7="13000.00000" pt_clust_8="13000.00000" pt_clust_9="96.71621" pt_clust_10="81.74498"></scales>
<clustering>
<clus scale="   89.561">  7  8 -1 -1</clus>
<clus scale="   90.865">  5  6 -1 -1</clus>
<clus scale="  104.985">  2  7  1 -1</clus>
<clus scale="   81.745">  1 10  2 -1</clus>
<clus scale="   96.716">  2  9  1 -1</clus>
<clus scale="   81.745">  1  5  2 -1</clus>
</clustering>
</event>
<event>
10    2  0.6640105E-006  0.1080498E+03  0.7546771E-02  0.1265100E+00
         21   -1    0    0  503  502  0.00000000000E+00  0.00000000000E+00  0.37472378376E+03  0.37472378376E+03  0.00000000000E+00 0.  1.
          2   -1    0    0  502    0 -0.00000000000E+00 -0.00000000000E+00 -0.12385397620E+03  0.12385397620E+03  0.00000000000E+00 0. -1.
         23    2    1    2    0    0 -0.10949979612E+01 -0.58370776543E+02 -0.75130254107E+02  0.13350377169E+03  0.93650175641E+02 0.  0.
         23    2    1    2    0    0  0.14881215262E+02  0.25101109320E+02  0.17115589574E+03  0.19627609643E+03  0.91533868738E+02 0.  0.
        -11    1    3    3    0    0  0.38362784359E+02  0.15935089903E+01 -0.22592261900E+02  0.44549442111E+02  0.00000000000E+00 0. -1.
         11    1    3    3    0    0 -0.39457782320E+02 -0.59964285533E+02 -0.52537992207E+02  0.88954329575E+02  0.00000000000E+00 0.  1.
        -11    1    4    4    0    0 -0.13199663358E+02  0.49493515270E+02  0.13505102049E+03  0.14443897432E+03  0.00000000000E+00 0.  1.
         11    1    4    4    0    0  0.28080878620E+02 -0.24392405949E+02  0.36104875255E+02  0.51837122116E+02  0.00000000000E+00 0. -1.
         21    1    1    2  503  501  0.19171062804E+02  0.16302835882E+02  0.96064807365E+02  0.99306391138E+02  0.00000000000E+00 0. -1.
          2    1    1    2  501    0 -0.32957280104E+02  0.16966831340E+02  0.58779358560E+02  0.69491500706E+02  0.00000000000E+00 0. -1.
<scales pt_clust_5="13000.00000" pt_clust_6="13000.00000" pt_clust_7="13000.00000" pt_clust_8="13000.00000" pt_clust_9="25.16569" pt_clust_10="35.26370"></scales>
<clustering>
<clus scale="   25.166">  1  9  2 -1</clus>
<clus scale="   35.264">  1 10  2 -1</clus>
<clus scale="   91.534">  7  8 -1 -1</clus>
<clus scale="   93.650">  5  6 -1 -1</clus>
<clus scale="  106.221">  1  7  2 -1</clus>
<clus scale="   25.166">  1  5  2 -1</clus>
</clustering>
</event>
<event>
10    2  0.6640105E-006  0.9651487E+02  0.7546771E-02  0.1289797E+00
         21   -1    0    0  503  502  0.00000000000E+00  0.00000000000E+00  0.69714160098E+02  0.69714160098E+02  0.00000000000E+00 0. -1.
          2   -1    0    0  502    0 -0.00000000000E+00 -0.00000000000E+00 -0.37962099536E+03  0.37962099536E+03  0.00000000000E+00 0. -1.
         23    2    1    2    0    0  0.21828821725E+02 -0.27919207482E+02 -0.17479950404E+03  0.20195761569E+03  0.94741924811E+02 0.  0.
         23    2    1    2    0    0  0.48867058497E+02 -0.76057670480E+01 -0.37920649018E+02  0.11039560652E+03  0.91122868797E+02 0.  0.
        -13    1    3    3    0    0  0.17174790554E+02 -0.53463674957E+02 -0.16484966923E+03  0.17415151856E+03  0.00000000000E+00 0. -1.
         13    1    3    3    0    0  0.46540311714E+01  0.25544467475E+02 -0.99498348051E+01  0.27806097125E+02  0.00000000000E+00 0.  1.
        -13    1    4    4    0    0  0.70390913217E+02  0.11964137495E+02 -0.14060654482E+02  0.72771720153E+02  0.00000000000E+00 0. -1.
         13    1    4    4    0    0 -0.21523854720E+02 -0.19569904543E+02 -0.23859994537E+02  0.37623886364E+02  0.00000000000E+00 0.  1.
         21    1    1    2  503  501 -0.22951793291E+02  0.13478552191E+02 -0.15674191718E+00  0.26617301751E+02  0.00000000000E+00 0. -1.
          2    1    1    2  501    0 -0.47744086931E+02  0.22046422339E+02 -0.97029940290E+02  0.11036463151E+03  0.00000000000E+00 0. -1.
<scales pt_clust_5="13000.00000" pt_clust_6="13000.00000" pt_clust_7="13000.00000" pt_clust_8="13000.00000" pt_clust_9="26.61684" pt_clust_10="55.71596"></scales>
<clustering>
<clus scale="   26.617">  1  9  2 -1</clus>
<clus scale="   55.716">  1 10  2 -1</clus>
<clus scale="   91.123">  7  8 -1 -1</clus>
<clus scale="   92.965">  1  7  2 -1</clus>
<clus scale="   94.742">  5  6 -1 -1</clus>
<clus scale="   26.617">  1  5  2 -1</clus>
</clustering>
</event>
<event>
10    2  0.6640105E-006  0.9826653E+02  0.7546771E-02  0.1284741E+00
         21   -1    0    0  501  502  0.00000000000E+00  0.00000000000E+00  0.26601675243E+03  0.26601675243E+03  0.00000000000E+00 0. -1.
          1   -1    0    0  503    0 -0.00000000000E+00 -0.00000000000E+00 -0.48404556639E+03  0.48404556639E+03  0.00000000000E+00 0. -1.
         23    2    1    2    0    0  0.55895819640E+01 -0.54566830361E+00 -0.25070586992E+03  0.26788693892E+03  0.94225461785E+02 0.  0.
         23    2    1    2    0    0 -0.47607739728E+02 -0.82659382517E+01 -0.20736743234E+03  0.23342448064E+03  0.95660407442E+02 0.  0.
        -11    1    4    4    0    0 -0.60386172864E+02  0.27923458042E+02 -0.15336114619E+03  0.16717012455E+03  0.00000000000E+00 0.  1.
         11    1    4    4    0    0  0.12778433136E+02 -0.36189396293E+02 -0.54006286145E+02  0.66254356089E+02  0.00000000000E+00 0. -1.
        -13    1    3    3    0    0  0.45923951241E+02  0.36321116094E+01 -0.18521929140E+03  0.19086222109E+03  0.00000000000E+00 0. -1.
         13    1    3    3    0    0 -0.40334369277E+02 -0.41777799130E+01 -0.65486578522E+02  0.77024717828E+02  0.00000000000E+00 0.  1.
         21    1    1    2  503  502  0.28143514664E+02  0.27287631006E+02  0.18401724062E+03  0.18814626509E+03  0.00000000000E+00 0. -1.
          1    1    1    2  501    0  0.13874643099E+02 -0.18476024450E+02  0.56027247683E+02  0.60604634176E+02  0.00000000000E+00 0. -1.
<scales pt_clust_5="13000.00000" pt_clust_6="13000.00000" pt_clust_7="13000.00000" pt_clust_8="13000.00000" pt_clust_9="41.97002" pt_clust_10="23.10561"></scales>
<clustering>
<clus scale="   23.106">  1 10  2 -1</clus>
<clus scale="   41.970">  1  9  2 -1</clus>
<clus scale="   94.225">  7  8 -1 -1</clus>
<clus scale="   95.660">  5  6 -1 -1</clus>
<clus scale="   96.870">  2  7  1 -1</clus>
<clus scale="   23.106">  1  5  2 -1</clus>
</clustering>
</event>
<event>
10    2  0.6640105E-006  0.2611090E+03  0.7546771E-02  0.1143862E+00
         21   -1    0    0  503  502  0.00000000000E+00  0.00000000000E+00  0.27119184936E+03  0.27119184936E+03  0.00000000000E+00 0. -1.
          1   -1    0    0  502    0 -0.00000000000E+00 -0.00000000000E+00 -0.41670413269E+03  0.41670413269E+03  0.00000000000E+00 0. -1.
         23    2    1    2    0    0  0.24418636108E+02 -0.40280102710E+01 -0.44361632836E+02  0.11250510527E+03  0.10038401062E+03 0.  0.
         23    2    1    2    0    0  0.11288738218E+03 -0.20314843044E+03 -0.16783765480E+03  0.30128312131E+03  0.92677909836E+02 0.  0.
        -11    1    3    3    0    0 -0.19825517069E+01 -0.50172387947E+02 -0.20589197064E+02  0.54268905087E+02  0.00000000000E+00 0. -1.
         11    1    3    3    0    0  0.26401187815E+02  0.46144377676E+02 -0.23772435772E+02  0.58236200183E+02  0.00000000000E+00 0.  1.
        -13    1    4    4    0    0  0.39219571204E+02 -0.27561298466E+02 -0.73150096266E+00  0.47940953601E+02  0.00000000000E+00 0.  1.
         13    1    4    4    0    0  0.73667810977E+02 -0.17558713198E+03 -0.16710615384E+03  0.25334216771E+03  0.00000000000E+00 0. -1.
         21    1    1    2  503  501 -0.66703316751E+02  0.26756938547E+02  0.12686119394E+02  0.72980845783E+02  0.00000000000E+00 0. -1.
          1    1    1    2  501    0 -0.70602701538E+02  0.18041950217E+03  0.54000884919E+02  0.20112690968E+03  0.00000000000E+00 0. -1.
<scales pt_clust_5="13000.00000" pt_clust_6="13000.00000" pt_clust_7="13000.00000" pt_clust_8="13000.00000" pt_clust_9="57.50035" pt_clust_10="57.50035"></scales>
<clustering>
<clus scale="   57.500">  9 10 -1 -1</clus>
<clus scale="   92.678">  7  8 -1 -1</clus>
<clus scale="  100.384">  5  6 -1 -1</clus>
<clus scale="  103.390">  2  5  1 -1</clus>
<clus scale="  260.488">  2  7  1 -1</clus>
<clus scale="  261.109">  1  5  2 -1</clus>
</clustering>
</event>
<event>
10    2  0.6640105E-006  0.2472008E+03  0.7546771E-02  0.1150172E+00
         21   -1    0    0  503  502  0.00000000000E+00  0.00000000000E+00  0.67577030384E+03  0.67577030384E+03  0.00000000000E+00 0.  1.
         -4   -1    0    0    0  501 -0.00000000000E+00 -0.00000000000E+00 -0.24219615870E+03  0.24219615870E+03  0.00000000000E+00 0.  1.
         23    2    1    2    0    0  0.31951145834E+02 -0.38304162102E+02  0.27398965575E+02  0.10604978539E+03  0.89486139217E+02 0.  0.
         23    2    1    2    0    0 -0.13207102302E+03  0.23388577938E+03  0.31384254096E+03  0.42285511878E+03  0.90354845196E+02 0.  0.
        -11    1    4    4    0    0 -0.30903438557E+02  0.32784930742E+01  0.27108855881E+02  0.41239072476E+02  0.00000000000E+00 0. -1.
         11    1    4    4    0    0 -0.10116758447E+03  0.23060728630E+03  0.28673368507E+03  0.38161604631E+03  0.00000000000E+00 0.  1.
        -13    1    3    3    0    0  0.47372776841E+02 -0.31842605514E+01 -0.14110348246E+02  0.49532024272E+02  0.00000000000E+00 0.  1.
         13    1    3    3    0    0 -0.15421631006E+02 -0.35119901551E+02  0.41509313821E+02  0.56517761117E+02  0.00000000000E+00 0. -1.
         21    1    1    2  503  501  0.20985099402E+02 -0.28091421471E+02  0.18052254075E+03  0.18389641126E+03  0.00000000000E+00 0.  1.
         -4    1    1    2    0  502  0.79134777786E+02 -0.16749019580E+03 -0.88189902140E+02  0.20516514710E+03  0.00000000000E+00 0.  1.
<scales pt_clust_5="13000.00000" pt_clust_6="13000.00000" pt_clust_7="13000.00000" pt_clust_8="13000.00000" pt_clust_9="35.06426" pt_clust_10="230.09622"></scales>
<clustering>
<clus scale="   35.064">  1  9  2 -1</clus>
<clus scale="   89.486">  7  8 -1 -1</clus>
<clus scale="   90.355">  5  6 -1 -1</clus>
<clus scale="  104.836">  2  7  1 -1</clus>
<clus scale="  230.096">  1 10  2 -1</clus>
<clus scale="   35.064">  1  5  2 -1</clus>
</clustering>
</event>
<event>
10    2  0.6640105E-006  0.1695314E+03  0.7546771E-02  0.1195824E+00
         21   -1    0    0  501  502  0.00000000000E+00  0.00000000000E+00  0.69500656670E+02  0.69500656670E+02  0.00000000000E+00 0. -1.
          2   -1    0    0  503    0 -0.00000000000E+00 -0.00000000000E+00 -0.17856789773E+04  0.17856789773E+04  0.00000000000E+00 0. -1.
         23    2    1    2    0    0 -0.50341962343E+02  0.52868068037E+02 -0.50655469638E+03  0.51943920776E+03  0.88826146738E+02 0.  0.
         23    2    1    2    0    0  0.49318053336E+02  0.11151355389E+03 -0.72614717008E+03  0.74190714152E+03  0.90933772290E+02 0.  0.
        -11    1    3    3    0    0 -0.15816295185E+02 -0.18167303488E+02 -0.43742412136E+02  0.49936006337E+02  0.00000000000E+00 0.  1.
         11    1    3    3    0    0 -0.34525667158E+02  0.71035371525E+02 -0.46281228425E+03  0.46950320143E+03  0.00000000000E+00 0. -1.
        -11    1    4    4    0    0  0.31086858626E+02 -0.67496337150E+00 -0.79827896658E+02  0.85669956459E+02  0.00000000000E+00 0.  1.
         11    1    4    4    0    0  0.18231194711E+02  0.11218851726E+03 -0.64631927342E+03  0.65623718506E+03  0.00000000000E+00 0. -1.
         21    1    1    2  503  502 -0.13779613041E+03 -0.14296258038E+02 -0.22571495202E+03  0.26483843398E+03  0.00000000000E+00 0. -1.
          2    1    1    2  501    0  0.13882003941E+03 -0.15008536389E+03 -0.25776150213E+03  0.32899485068E+03  0.00000000000E+00 0. -1.
<scales pt_clust_5="13000.00000" pt_clust_6="13000.00000" pt_clust_7="13000.00000" pt_clust_8="13000.00000" pt_clust_9="147.55542" pt_clust_10="143.08026"></scales>
<clustering>
<clus scale="   88.826">  5  6 -1 -1</clus>
<clus scale="   90.934">  7  8 -1 -1</clus>
<clus scale="  114.976">  2  5  1 -1</clus>
<clus scale="  147.555">  1  9  2 -1</clus>
<clus scale="  143.080">  1 10  2 -1</clus>
<clus scale="  147.555">  1  5  2 -1</clus>
</clustering>
</event>
<event>
10    2  0.6640105E-006  0.1217427E+03  0.7546771E-02  0.1240915E+00
          1   -1    0    0  502    0 -0.00000000000E+00  0.00000000000E+00  0.16746266396E+03  0.16746266396E+03  0.00000000000E+00 0. -1.
         21   -1    0    0  503  502  0.00000000000E+00 -0.00000000000E+00 -0.46264220327E+03  0.46264220327E+03  0.00000000000E+00 0. -1.
         23    2    1    2    0    0 -0.62941972203E+02  0.38623331833E+02  0.73238411642E+02  0.13864052993E+03  0.91672667537E+02 0.  0.
         23    2    1    2    0    0  0.39769904501E+02 -0.10751189982E+03 -0.39059406998E+02  0.15058248784E+03  0.89492985555E+02 0.  0.
        -13    1    4    4    0    0  0.19259658400E+02 -0.51395196345E+02 -0.65320816298E+02  0.85318284622E+02  0.00000000000E+00 0.  1.
         13    1    4    4    0    0  0.20510246101E+02 -0.56116703470E+02  0.26261409300E+02  0.65264203219E+02  0.00000000000E+00 0. -1.
        -13    1    3    3    0    0  0.22210042123E+02  0.16146921706E+02  0.67076014212E+01  0.28266605182E+02  0.00000000000E+00 0.  1.
         13    1    3    3    0    0 -0.85152014327E+02  0.22476410127E+02  0.66530810220E+02  0.11037392475E+03  0.00000000000E+00 0. -1.
         21    1    1    2  503  501 -0.10898237240E+02  0.23403298943E+02 -0.16424960583E+03  0.16626610897E+03  0.00000000000E+00 0. -1.
          1    1    1    2  501    0  0.34070304942E+02  0.45485269039E+02 -0.16510893812E+03  0.17461574048E+03  0.00000000000E+00 0. -1.
<scales pt_clust_5="13000.00000" pt_clust_6="13000.00000" pt_clust_7="13000.00000" pt_clust_8="13000.00000" pt_clust_9="25.81639" pt_clust_10="65.10786"></scales>
<clustering>
<clus scale="   25.816">  2  9  1 -1</clus>
<clus scale="   65.108">  2 10  1 -1</clus>
<clus scale="   89.493">  5  6 -1 -1</clus>
<clus scale="   91.673">  7  8 -1 -1</clus>
<clus scale="  120.110">  2  5  1 -1</clus>
<clus scale="   25.816">  2  5  1 -1</clus>
</clustering>
</event>
<event>
10    2  0.6640105E-006  0.2098275E+03  0.7546771E-02  0.1165976E+00
         21   -1    0    0  501  502  0.00000000000E+00  0.00000000000E+00  0.37622106105E+03  0.37622106105E+03  0.00000000000E+00 0.  1.
          2   -1    0    0  503    0 -0.00000000000E+00 -0.00000000000E+00 -0.85015404522E+03  0.85015404522E+03  0.00000000000E+00 0. -1.
         23    2    1    2    0    0  0.44047402967E+02  0.64255002897E+02 -0.32826161402E+03  0.34924668109E+03  0.90270027718E+02 0.  0.
         23    2    1    2    0    0  0.14189365423E+03 -0.16843407687E+03 -0.39206628990E+03  0.45801882291E+03  0.86956420745E+02 0.  0.
        -11    1    3    3    0    0 -0.25357615353E+02  0.36266992354E+02 -0.13051957855E+03  0.13781750170E+03  0.00000000000E+00 0.  1.
         11    1    3    3    0    0  0.69405018321E+02  0.27988010544E+02 -0.19774203547E+03  0.21142917938E+03  0.00000000000E+00 0. -1.
        -13    1    4    4    0    0  0.51997104055E+02 -0.35926137269E+02 -0.50916633705E+02  0.81159655970E+02  0.00000000000E+00 0.  1.
         13    1    4    4    0    0  0.89896550171E+02 -0.13250793960E+03 -0.34114965619E+03  0.37685916695E+03  0.00000000000E+00 0. -1.
         21    1    1    2  503  502 -0.57447284565E+02  0.22052442511E+02  0.25888881482E+03  0.26610133251E+03  0.00000000000E+00 0.  1.
          2    1    1    2  501    0 -0.12849377263E+03  0.82126631463E+02 -0.12493895075E+02  0.15300826976E+03  0.00000000000E+00 0. -1.
<scales pt_clust_5="13000.00000" pt_clust_6="13000.00000" pt_clust_7="13000.00000" pt_clust_8="13000.00000" pt_clust_9="61.53455" pt_clust_10="190.96118"></scales>
<clustering>
<clus scale="   61.535">  1  9  2 -1</clus>
<clus scale="   86.956">  7  8 -1 -1</clus>
<clus scale="   90.270">  5  6 -1 -1</clus>
<clus scale="  118.509">  2  5  1 -1</clus>
<clus scale="  190.961">  1 10  2 -1</clus>
<clus scale="   61.535">  1  5  2 -1</clus>
</clustering>
</event>
<event>
10    2  0.6640105E-006  0.5274160E+03  0.7546771E-02  0.1044741E+00
         21   -1    0    0  503  502  0.00000000000E+00  0.00000000000E+00  0.24898927415E+03  0.24898927415E+03  0.00000000000E+00 0. -1.
          2   -1    0    0  502    0 -0.00000000000E+00 -0.00000000000E+00 -0.17737310444E+04  0.17737310444E+04  0.00000000000E+00 0. -1.
         23    2    1    2    0    0  0.83835473906E+02 -0.11539146875E+03 -0.44498671298E+03  0.47639382770E+03  0.92705590952E+02 0.  0.
         23    2    1    2    0    0 -0.40580505193E+03  0.44611039034E+03 -0.66791365778E+03  0.90453713083E+03  0.91578088293E+02 0.  0.
        -11    1    4    4    0    0 -0.35419577490E+03  0.39699951996E+03 -0.53964849728E+03  0.75781512681E+03  0.00000000000E+00 0. -1.
         11    1    4    4    0    0 -0.51609277034E+02  0.49110870378E+02 -0.12826516050E+03  0.14672200402E+03  0.00000000000E+00 0.  1.
        -13    1    3    3    0    0  0.18940130616E+02 -0.55562407351E+02 -0.30721063311E+03  0.31276873685E+03  0.00000000000E+00 0.  1.
         13    1    3    3    0    0  0.64895343290E+02 -0.59829061402E+02 -0.13777607987E+03  0.16362509085E+03  0.00000000000E+00 0. -1.
         21    1    1    2  503  501  0.14021025466E+02  0.19147046995E+02 -0.78834158470E+01  0.25006935221E+02  0.00000000000E+00 0. -1.
          2    1    1    2  501    0  0.30794855256E+03 -0.34986596858E+03 -0.40395798361E+03  0.61678242478E+03  0.00000000000E+00 0. -1.
<scales pt_clust_5="13000.00000" pt_clust_6="13000.00000" pt_clust_7="13000.00000" pt_clust_8="13000.00000" pt_clust_9="23.73180" pt_clust_10="519.40455"></scales>
<clustering>
<clus scale="   23.732">  1  9  2 -1</clus>
<clus scale="   91.578">  5  6 -1 -1</clus>
<clus scale="   92.706">  7  8 -1 -1</clus>
<clus scale="  169.721">  2  7  1 -1</clus>
<clus scale="  519.405">  1 10  2 -1</clus>
<clus scale="   23.732">  1  5  2 -1</clus>
</clustering>
</event>
<event>
10    2  0.6640105E-006  0.1690873E+03  0.7546771E-02  0.1201611E+00
         21   -1    0    0  503  502  0.00000000000E+00  0.00000000000E+00  0.15779923716E+03  0.15779923716E+03  0.00000000000E+00 0. -1.
          1   -1    0    0  502    0 -0.00000000000E+00 -0.00000000000E+00 -0.73535330309E+03  0.73535330309E+03  0.00000000000E+00 0. -1.
         23    2    1    2    0    0 -0.58388951112E+01  0.45240469058E+02 -0.21949694251E+03  0.24146837931E+03  0.89706620153E+02 0.  0.
         23    2    1    2    0    0  0.55920961933E+02 -0.18110017173E+03 -0.42007023724E+03  0.46944606822E+03  0.89421365277E+02 0.  0.
        -11    1    3    3    0    0 -0.39321376664E+02  0.47612728520E+02 -0.17604806900E+03  0.18656383673E+03  0.00000000000E+00 0.  1.
         11    1    3    3    0    0  0.33482481552E+02 -0.23722594622E+01 -0.43448873510E+02  0.54904542573E+02  0.00000000000E+00 0. -1.
        -13    1    4    4    0    0  0.10310544029E+02 -0.58503996249E+02 -0.23773015087E+03  0.24504009780E+03  0.00000000000E+00 0. -1.
         13    1    4    4    0    0  0.45610417904E+02 -0.12259617549E+03 -0.18234008637E+03  0.22440597042E+03  0.00000000000E+00 0.  1.
         21    1    1    2  503  501  0.20021955664E+02  0.34700061708E+02  0.41104373972E+02  0.57398105812E+02  0.00000000000E+00 0. -1.
          1    1    1    2  501    0 -0.70104022486E+02  0.10115964097E+03  0.20908739852E+02  0.12483998691E+03  0.00000000000E+00 0. -1.
<scales pt_clust_5="13000.00000" pt_clust_6="13000.00000" pt_clust_7="13000.00000" pt_clust_8="13000.00000" pt_clust_9="40.06211" pt_clust_10="143.50722"></scales>
<clustering>
<clus scale="   40.062">  1  9  2 -1</clus>
<clus scale="   89.421">  7  8 -1 -1</clus>
<clus scale="   89.707">  5  6 -1 -1</clus>
<clus scale="  102.169">  2  5  1 -1</clus>
<clus scale="  143.507">  1 10  2 -1</clus>
<clus scale="   40.062">  1  5  2 -1</clus>
</clustering>
</event>
<event>
10    2  0.6640105E-006  0.1204119E+03  0.7546771E-02  0.1243058E+00
         -1   -1    0    0    0  501 -0.00000000000E+00  0.00000000000E+00  0.47408650814E+03  0.47408650814E+03  0.00000000000E+00 0.  1.
         21   -1    0    0  503  502  0.00000000000E+00 -0.00000000000E+00 -0.38126187844E+03  0.38126187844E+03  0.00000000000E+00 0. -1.
         23    2    1    2    0    0  0.46295000180E+02 -0.62896129774E+02  0.40100369509E+03  0.41950990029E+03  0.95317589079E+02 0.  0.
         23    2    1    2    0    0  0.14327946414E+02  0.53938433115E+02 -0.37430760287E+02  0.11502728914E+03  0.93357221556E+02 0.  0.
        -13    1    3    3    0    0  0.66498739246E+02 -0.49589716043E+02  0.37470160098E+03  0.38377403773E+03  0.00000000000E+00 0.  1.
         13    1    3    3    0    0 -0.20203739066E+02 -0.13306413731E+02  0.26302094105E+02  0.35735862561E+02  0.00000000000E+00 0. -1.
        -13    1    4    4    0    0  0.11628099751E+01  0.79520224041E+02 -0.32122589140E+02  0.85771084240E+02  0.00000000000E+00 0. -1.
         13    1    4    4    0    0  0.13165136439E+02 -0.25581790926E+02 -0.53081711467E+01  0.29256204904E+02  0.00000000000E+00 0.  1.
         21    1    1    2  503  501 -0.43587330300E+02 -0.55414757660E+02 -0.40890773718E+02  0.81502798139E+02  0.00000000000E+00 0. -1.
         -1    1    1    2    0  502 -0.17035616294E+02  0.64372454319E+02 -0.22985753138E+03  0.23930839900E+03  0.00000000000E+00 0.  1.
<scales pt_clust_5="13000.00000" pt_clust_6="13000.00000" pt_clust_7="13000.00000" pt_clust_8="13000.00000" pt_clust_9="58.18507" pt_clust_10="66.58848"></scales>
<clustering>
<clus scale="   66.588">  2 10  1 -1</clus>
<clus scale="   58.185">  2  9  1 -1</clus>
<clus scale="   93.357">  7  8 -1 -1</clus>
<clus scale="   95.318">  5  6 -1 -1</clus>
<clus scale="  118.866">  2  7  1 -1</clus>
<clus scale="   66.588">  2  5  1 -1</clus>
</clustering>
</event>
<event>
10    2  0.6640105E-006  0.9945062E+02  0.7546771E-02  0.1282109E+00
         21   -1    0    0  503  502  0.00000000000E+00  0.00000000000E+00  0.12650393081E+03  0.12650393081E+03  0.00000000000E+00 0.  1.
         -2   -1    0    0    0  501 -0.00000000000E+00 -0.00000000000E+00 -0.31665169061E+03  0.31665169061E+03  0.00000000000E+00 0.  1.
         23    2    1    2    0    0  0.27690567708E+02  0.49376292255E+02 -0.53576910476E+02  0.12032454611E+03  0.91666380339E+02 0.  0.
         23    2    1    2    0    0 -0.14605913623E+01 -0.20658831314E+02 -0.24199215240E+02  0.95786884796E+02  0.90336065014E+02 0.  0.
        -11    1    4    4    0    0  0.25406102119E+02 -0.38779947079E+02  0.11302050601E+02  0.47718871195E+02  0.00000000000E+00 0. -1.
         11    1    4    4    0    0 -0.26866693481E+02  0.18121115765E+02 -0.35501265841E+02  0.48068013600E+02  0.00000000000E+00 0.  1.
        -13    1    3    3    0    0  0.23554945951E+02  0.70512686337E+02 -0.62390408092E+02  0.97053786300E+02  0.00000000000E+00 0.  1.
         13    1    3    3    0    0  0.41356217561E+01 -0.21136394082E+02  0.88134976156E+01  0.23270759814E+02  0.00000000000E+00 0. -1.
         21    1    1    2  503  501 -0.42113993735E+02  0.29544430880E+02  0.38683621206E+02  0.64365242282E+02  0.00000000000E+00 0. -1.
         -2    1    1    2    0  502  0.15884017390E+02 -0.58261891821E+02 -0.15105525529E+03  0.16267894823E+03  0.00000000000E+00 0.  1.
<scales pt_clust_5="13000.00000" pt_clust_6="13000.00000" pt_clust_7="13000.00000" pt_clust_8="13000.00000" pt_clust_9="51.44377" pt_clust_10="57.37687"></scales>
<clustering>
<clus scale="   51.444">  1  9  2 -1</clus>
<clus scale="   57.377">  1 10  2 -1</clus>
<clus scale="   90.336">  5  6 -1 -1</clus>
<clus scale="   91.666">  7  8 -1 -1</clus>
<clus scale="   98.226">  1  5  2 -1</clus>
<clus scale="   51.444">  1  5  2 -1</clus>
</clustering>
</event>
<event>
10    2  0.6640105E-006  0.9146918E+02  0.7546771E-02  0.1299733E+00
         -1   -1    0    0    0  501 -0.00000000000E+00  0.00000000000E+00  0.23316847081E+03  0.23316847081E+03  0.00000000000E+00 0.  1.
         21   -1    0    0  503  502  0.00000000000E+00 -0.00000000000E+00 -0.28683606538E+03  0.28683606538E+03  0.00000000000E+00 0.  1.
         23    2    1    2    0    0 -0.79377023225E+01  0.15246516402E+02  0.11592930602E+03  0.14793751335E+03  0.90279790002E+02 0.  0.
         23    2    1    2    0    0 -0.39215944130E+02  0.13183434912E+02  0.45564264089E+02  0.10982222422E+03  0.90956723447E+02 0.  0.
        -11    1    3    3    0    0 -0.35030143147E+02 -0.15521222772E+02  0.19151161946E+02  0.42834405437E+02  0.00000000000E+00 0.  1.
         11    1    3    3    0    0  0.27092440825E+02  0.30767739174E+02  0.96778144072E+02  0.10510310792E+03  0.00000000000E+00 0. -1.
        -11    1    4    4    0    0 -0.69122787965E+02  0.85786672348E+01  0.32535066362E+02  0.76877069993E+02  0.00000000000E+00 0.  1.
         11    1    4    4    0    0  0.29906843835E+02  0.46047676772E+01  0.13029197727E+02  0.32945154226E+02  0.00000000000E+00 0. -1.
         21    1    1    2  503  501 -0.10428440923E+02 -0.67575984562E+02 -0.15799330902E+03  0.17215444161E+03  0.00000000000E+00 0.  1.
         -1    1    1    2    0  502  0.57582087375E+02  0.39146033248E+02 -0.57167855652E+02  0.90090357005E+02  0.00000000000E+00 0.  1.
<scales pt_clust_5="13000.00000" pt_clust_6="13000.00000" pt_clust_7="13000.00000" pt_clust_8="13000.00000" pt_clust_9="68.37592" pt_clust_10="51.30479"></scales>
<clustering>
<clus scale="   68.376">  2  9  1 -1</clus>
<clus scale="   51.305">  2 10  1 -1</clus>
<clus scale="   90.280">  5  6 -1 -1</clus>
<clus scale="   90.796">  1  5  2 -1</clus>
<clus scale="   90.957">  7  8 -1 -1</clus>
<clus scale="   68.376">  2  5  1 -1</clus>
</clustering>
</event>
<event>
10    2  0.6640105E-006  0.1828812E+03  0.7546771E-02  0.1165047E+00
         21   -1    0    0  501  502  0.00000000000E+00  0.00000000000E+00  0.87990108168E+03  0.87990108168E+03  0.00000000000E+00 0. -1.
          1   -1    0    0  503    0 -0.00000000000E+00 -0.00000000000E+00 -0.16127686216E+03  0.16127686216E+03  0.00000000000E+00 0. -1.
         23    2    1    2    0    0 -0.84298914590E+02  0.62756607207E+02  0.79808307084E+02  0.16164446259E+03  0.93353455524E+02 0.  0.
         23    2    1    2    0    0  0.12642357729E+03 -0.18852182383E+03  0.50097971950E+02  0.25048388933E+03  0.93321878813E+02 0.  0.
        -11    1    3    3    0    0 -0.41901444331E+02 -0.83520664828E+01  0.64629693296E+02  0.77475707852E+02  0.00000000000E+00 0.  1.
         11    1    3    3    0    0 -0.42397470259E+02  0.71108673690E+02  0.15178613788E+02  0.84168754742E+02  0.00000000000E+00 0. -1.
        -13    1    4    4    0    0  0.12599415318E+03 -0.15634174112E+03  0.12769244262E+02  0.20119721731E+03  0.00000000000E+00 0. -1.
         13    1    4    4    0    0  0.42942410687E+00 -0.32180082708E+02  0.37328727688E+02  0.49286672022E+02  0.00000000000E+00 0.  1.
         21    1    1    2  503  502  0.56878608501E+02  0.53959122326E+02  0.37229116908E+03  0.38045693260E+03  0.00000000000E+00 0. -1.
          1    1    1    2  501    0 -0.99003271203E+02  0.71806094297E+02  0.21642677141E+03  0.24859265932E+03  0.00000000000E+00 0. -1.
<scales pt_clust_5="13000.00000" pt_clust_6="13000.00000" pt_clust_7="13000.00000" pt_clust_8="13000.00000" pt_clust_9="78.40129" pt_clust_10="121.02133"></scales>
<clustering>
<clus scale="   78.401">  1  9  2 -1</clus>
<clus scale="   93.322">  7  8 -1 -1</clus>
<clus scale="   93.353">  5  6 -1 -1</clus>
<clus scale="  121.021">  1 10  2 -1</clus>
<clus scale="  182.865">  1  7  2 -1</clus>
<clus scale="   78.401">  1  5  2 -1</clus>
</clustering>
</event>
<event>
10    2  0.6640105E-006  0.1379875E+03  0.7546771E-02  0.1228804E+00
         21   -1    0    0  503  502  0.00000000000E+00  0.00000000000E+00  0.38148084428E+03  0.38148084428E+03  0.00000000000E+00 0. -1.
         -3   -1    0    0    0  501 -0.00000000000E+00 -0.00000000000E+00 -0.25180837780E+03  0.25180837780E+03  0.00000000000E+00 0.  1.
         23    2    1    2    0    0 -0.11639284027E+02 -0.49116403866E+02 -0.59413835535E+02  0.12068358052E+03  0.92122899931E+02 0.  0.
         23    2    1    2    0    0 -0.43093237676E+02 -0.47625050716E+02 -0.10257064184E+03  0.15134956330E+03  0.90888839559E+02 0.  0.
        -13    1    4    4    0    0 -0.23163946476E+02  0.12530143240E+02 -0.79765240780E+02  0.84000396086E+02  0.00000000000E+00 0. -1.
         13    1    4    4    0    0 -0.19929291200E+02 -0.60155193956E+02 -0.22805401057E+02  0.67349167218E+02  0.00000000000E+00 0.  1.
        -13    1    3    3    0    0  0.25533197709E+02 -0.51646678205E+02 -0.94910786640E+01  0.58390103006E+02  0.00000000000E+00 0. -1.
         13    1    3    3    0    0 -0.37172481736E+02  0.25302743392E+01 -0.49922756871E+02  0.62293477509E+02  0.00000000000E+00 0.  1.
         21    1    1    2  503  501  0.41220783387E+02  0.11697255173E+03  0.30794297053E+03  0.33197982459E+03  0.00000000000E+00 0. -1.
         -3    1    1    2    0  502  0.13511738317E+02 -0.20231097143E+02 -0.16286026677E+02  0.29276253668E+02  0.00000000000E+00 0.  1.
<scales pt_clust_5="13000.00000" pt_clust_6="13000.00000" pt_clust_7="13000.00000" pt_clust_8="13000.00000" pt_clust_9="103.82572" pt_clust_10="24.32827"></scales>
<clustering>
<clus scale="   24.328">  1 10  2 -1</clus>
<clus scale="   90.889">  5  6 -1 -1</clus>
<clus scale="   92.123">  7  8 -1 -1</clus>
<clus scale="  105.713">  2  7  1 -1</clus>
<clus scale="  103.826">  1  9  2 -1</clus>
<clus scale="   24.328">  1  5  2 -1</clus>
</clustering>
</event>
<event>
10    2  0.6640105E-006  0.1073820E+03  0.7546771E-02  0.1271214E+00
         21   -1    0    0  501  502  0.00000000000E+00  0.00000000000E+00  0.43673011962E+03  0.43673011962E+03  0.00000000000E+00 0.  1.
          1   -1    0    0  503    0 -0.00000000000E+00 -0.00000000000E+00 -0.14987931815E+03  0.14987931815E+03  0.00000000000E+00 0. -1.
         23    2    1    2    0    0  0.48398551485E+02 -0.13152777629E+02 -0.89880412789E+02  0.13812710740E+03  0.92115111959E+02 0.  0.
         23    2    1    2    0    0 -0.10894631791E+03  0.24150491540E+02  0.25252053212E+03  0.28707347378E+03  0.78689349846E+02 0.  0.
        -13    1    3    3    0    0  0.25883884706E+02  0.39652631418E+02 -0.37271055814E+02  0.60261416075E+02  0.00000000000E+00 0.  1.
         13    1    3    3    0    0  0.22514666778E+02 -0.52805409046E+02 -0.52609356975E+02  0.77865691328E+02  0.00000000000E+00 0. -1.
        -13    1    4    4    0    0 -0.93591329121E+02  0.10375981905E+02  0.24891741607E+03  0.26613319580E+03  0.00000000000E+00 0.  1.
         13    1    4    4    0    0 -0.15354988792E+02  0.13774509636E+02  0.36031160510E+01  0.20940277978E+02  0.00000000000E+00 0. -1.
         21    1    1    2  503  502  0.98203281238E+01  0.33923751388E+02  0.42374189047E+02  0.55161867717E+02  0.00000000000E+00 0.  1.
          1    1    1    2  501    0  0.50727438305E+02 -0.44921465300E+02  0.81836493092E+02  0.10624698887E+03  0.00000000000E+00 0. -1.
<scales pt_clust_5="13000.00000" pt_clust_6="13000.00000" pt_clust_7="13000.00000" pt_clust_8="13000.00000" pt_clust_9="35.31656" pt_clust_10="64.55399"></scales>
<clustering>
<clus scale="   35.317">  1  9  2 -1</clus>
<clus scale="   64.554">  1 10  2 -1</clus>
<clus scale="   78.689">  7  8 -1 -1</clus>
<clus scale="   92.115">  5  6 -1 -1</clus>
<clus scale="   96.113">  1  7  2 -1</clus>
<clus scale="   35.317">  1  5  2 -1</clus>
</clustering>
</event>
<event>
10    2  0.6640105E-006  0.1031192E+03  0.7546771E-02  0.1274122E+00
          1   -1    0    0  503    0 -0.00000000000E+00  0.00000000000E+00  0.18503120502E+03  0.18503120502E+03  0.00000000000E+00 0. -1.
         21   -1    0    0  501  502  0.00000000000E+00 -0.00000000000E+00 -0.37119609798E+03  0.37119609798E+03  0.00000000000E+00 0. -1.
         23    2    1    2    0    0 -0.36997819611E+02  0.22860319913E+02  0.14185866499E+03  0.17513892194E+03  0.93050138428E+02 0.  0.
         23    2    1    2    0    0  0.57516203950E+02  0.19427990397E+02 -0.19885551983E+03  0.22801246514E+03  0.93598108786E+02 0.  0.
        -13    1    3    3    0    0 -0.28072479629E+02 -0.20394393176E+02  0.10045798486E+02  0.36123585824E+02  0.00000000000E+00 0.  1.
         13    1    3    3    0    0 -0.89253399820E+01  0.43254713089E+02  0.13181286651E+03  0.13901533611E+03  0.00000000000E+00 0. -1.
        -13    1    4    4    0    0  0.61238238467E+02  0.50766279255E+02 -0.15134766527E+03  0.17097793057E+03  0.00000000000E+00 0. -1.
         13    1    4    4    0    0 -0.37220345170E+01 -0.31338288857E+02 -0.47507854558E+02  0.57034534575E+02  0.00000000000E+00 0.  1.
         21    1    1    2  503  502 -0.34383105430E+02 -0.10795718843E+02 -0.26324731905E+02  0.44628880719E+02  0.00000000000E+00 0. -1.
          1    1    1    2  501    0  0.13864721090E+02 -0.31492591467E+02 -0.10284330622E+03  0.10844703519E+03  0.00000000000E+00 0. -1.
<scales pt_clust_5="13000.00000" pt_clust_6="13000.00000" pt_clust_7="13000.00000" pt_clust_8="13000.00000" pt_clust_9="35.82381" pt_clust_10="34.40950"></scales>
<clustering>
<clus scale="   34.410">  2 10  1 -1</clus>
<clus scale="   35.824">  2  9  1 -1</clus>
<clus scale="   93.050">  5  6 -1 -1</clus>
<clus scale="   93.598">  7  8 -1 -1</clus>
<clus scale="  102.622">  1  5  2 -1</clus>
<clus scale="   34.410">  2  5  1 -1</clus>
</clustering>
</event>
<event>
10    2  0.6640105E-006  0.1088463E+03  0.7546771E-02  0.1263900E+00
         21   -1    0    0  503  502  0.00000000000E+00  0.00000000000E+00  0.92323805352E+03  0.92323805352E+03  0.00000000000E+00 0. -1.
         -3   -1    0    0    0  501 -0.00000000000E+00 -0.00000000000E+00 -0.73314976182E+02  0.73314976182E+02  0.00000000000E+00 0.  1.
         23    2    1    2    0    0  0.25278933969E+02 -0.18513510540E+02  0.57243005034E+02  0.11240682541E+03  0.91524631651E+02 0.  0.
         23    2    1    2    0    0 -0.71976861600E+02  0.70569760543E+02  0.92597410528E+02  0.16302786331E+03  0.88560962445E+02 0.  0.
        -11    1    3    3    0    0  0.47738424453E+02 -0.31695540922E+02  0.63593056538E+02  0.85601643229E+02  0.00000000000E+00 0.  1.
         11    1    3    3    0    0 -0.22459490484E+02  0.13182030383E+02 -0.63500515040E+01  0.26805182184E+02  0.00000000000E+00 0. -1.
        -13    1    4    4    0    0  0.11120019937E+02  0.46289975128E+02  0.32846283159E+02  0.57838524861E+02  0.00000000000E+00 0.  1.
         13    1    4    4    0    0 -0.83096881537E+02  0.24279785416E+02  0.59751127369E+02  0.10518933845E+03  0.00000000000E+00 0. -1.
         21    1    1    2  503  501 -0.40945093692E+02  0.28521267463E+02  0.28347013517E+03  0.28782856170E+03  0.00000000000E+00 0. -1.
         -3    1    1    2    0  502  0.87643021324E+02 -0.80577517467E+02  0.41661252661E+03  0.43328977929E+03  0.00000000000E+00 0.  1.
<scales pt_clust_5="13000.00000" pt_clust_6="13000.00000" pt_clust_7="13000.00000" pt_clust_8="13000.00000" pt_clust_9="49.89953" pt_clust_10="86.21573"></scales>
<clustering>
<clus scale="   49.900">  1  9  2 -1</clus>
<clus scale="   86.216">  1 10  2 -1</clus>
<clus scale="   88.561">  7  8 -1 -1</clus>
<clus scale="   91.525">  5  6 -1 -1</clus>
<clus scale="  106.366">  1  7  2 -1</clus>
<clus scale="   49.900">  1  5  2 -1</clus>
</clustering>
</event>
<event>
10    2  0.6640105E-006  0.1062978E+03  0.7546771E-02  0.1269304E+00
          3   -1    0    0  503    0 -0.00000000000E+00  0.00000000000E+00  0.41605194954E+03  0.41605194954E+03  0.00000000000E+00 0. -1.
         21   -1    0    0  501  502  0.00000000000E+00 -0.00000000000E+00 -0.31490926991E+03  0.31490926991E+03  0.00000000000E+00 0.  1.
         23    2    1    2    0    0 -0.42843281812E+02  0.19805280707E+02  0.36572799321E+03  0.37989763339E+03  0.91309642961E+02 0.  0.
         23    2    1    2    0    0  0.24010685753E+02 -0.59080541916E+02 -0.64616261776E+02  0.13156372552E+03  0.95219373678E+02 0.  0.
        -13    1    3    3    0    0 -0.34107110740E+02  0.44185277568E+02  0.33541648880E+03  0.34002919685E+03  0.00000000000E+00 0. -1.
         13    1    3    3    0    0 -0.87361710715E+01 -0.24379996861E+02  0.30311504410E+02  0.39868436532E+02  0.00000000000E+00 0.  1.
        -13    1    4    4    0    0 -0.47456999973E+01 -0.73258259476E+02 -0.67032265873E+02  0.99411362117E+02  0.00000000000E+00 0.  1.
         13    1    4    4    0    0  0.28756385750E+02  0.14177717560E+02  0.24160040971E+01  0.32152363403E+02  0.00000000000E+00 0. -1.
         21    1    1    2  503  502  0.48065294968E+02  0.36269887364E+02 -0.14830327509E+03  0.16006135921E+03  0.00000000000E+00 0.  1.
          3    1    1    2  501    0 -0.29232698909E+02  0.30053738447E+01 -0.51665776720E+02  0.59438501340E+02  0.00000000000E+00 0. -1.
<scales pt_clust_5="13000.00000" pt_clust_6="13000.00000" pt_clust_7="13000.00000" pt_clust_8="13000.00000" pt_clust_9="48.88758" pt_clust_10="29.38678"></scales>
<clustering>
<clus scale="   29.387">  2 10  1 -1</clus>
<clus scale="   48.888">  2  9  1 -1</clus>
<clus scale="   91.310">  5  6 -1 -1</clus>
<clus scale="   95.219">  7  8 -1 -1</clus>
<clus scale="  102.810">  1  5  2 -1</clus>
<clus scale="   29.387">  2  5  1 -1</clus>
</clustering>
</event>
<event>
10    2  0.6640105E-006  0.9220681E+02  0.7546771E-02  0.1297984E+00
         21   -1    0    0  503  502  0.00000000000E+00  0.00000000000E+00  0.38877993019E+03  0.38877993019E+03  0.00000000000E+00 0.  1.
         -4   -1    0    0    0  501 -0.00000000000E+00 -0.00000000000E+00 -0.14644842352E+03  0.14644842352E+03  0.00000000000E+00 0.  1.
         23    2    1    2    0    0  0.18863781369E+02  0.80075077502E+01 -0.46421785111E+02  0.10448756878E+03  0.91338422742E+02 0.  0.
         23    2    1    2    0    0  0.15582244986E+02  0.21292841533E+02 -0.24472319958E+02  0.98790766798E+02  0.92002878765E+02 0.  0.
        -13    1    3    3    0    0  0.45606986717E+02  0.33526513036E+02 -0.29570269219E+02  0.63862548770E+02  0.00000000000E+00 0.  1.
         13    1    3    3    0    0 -0.26743205347E+02 -0.25519005286E+02 -0.16851515893E+02  0.40625020011E+02  0.00000000000E+00 0. -1.
        -13    1    4    4    0    0 -0.37153861566E+01 -0.34468456803E+02  0.61346782376E+00  0.34673548296E+02  0.00000000000E+00 0. -1.
         13    1    4    4    0    0  0.19297631143E+02  0.55761298336E+02 -0.25085787782E+02  0.64117218502E+02  0.00000000000E+00 0.  1.
         21    1    1    2  503  501  0.10792634625E+02  0.31946440127E+02  0.91641843606E+02  0.97648776226E+02  0.00000000000E+00 0.  1.
         -4    1    1    2    0  502 -0.45238660981E+02 -0.61246789410E+02  0.22158376813E+03  0.23430124191E+03  0.00000000000E+00 0.  1.
<scales pt_clust_5="13000.00000" pt_clust_6="13000.00000" pt_clust_7="13000.00000" pt_clust_8="13000.00000" pt_clust_9="33.72026" pt_clust_10="51.87717"></scales>
<clustering>
<clus scale="   33.720">  1  9  2 -1</clus>
<clus scale="   51.877">  1 10  2 -1</clus>
<clus scale="   91.338">  5  6 -1 -1</clus>
<clus scale="   91.544">  2  5  1 -1</clus>
<clus scale="   92.003">  7  8 -1 -1</clus>
<clus scale="   33.720">  1  5  2 -1</clus>
</clustering>
</event>
<event>
10    2  0.6640105E-006  0.1303150E+03  0.7546771E-02  0.1232296E+00
         21   -1    0    0  501  502  0.00000000000E+00  0.00000000000E+00  0.31210773356E+02  0.31210773356E+02  0.00000000000E+00 0.  1.
          3   -1    0    0  503    0 -0.00000000000E+00 -0.00000000000E+00 -0.78797426372E+03  0.78797426372E+03  0.00000000000E+00 0. -1.
         23    2    1    2    0    0  0.26935448360E+02  0.82140631104E+02 -0.37828690358E+03  0.39710135050E+03  0.84355791119E+02 0.  0.
         23    2    1    2    0    0 -0.24991808245E+01 -0.74192497386E+02 -0.27328072733E+03  0.30108666969E+03  0.10227440618E+03 0.  0.
        -13    1    3    3    0    0  0.47267757472E+02  0.75053559383E+02 -0.35259271614E+03  0.36357791620E+03  0.00000000000E+00 0.  1.
         13    1    3    3    0    0 -0.20332309112E+02  0.70870717215E+01 -0.25694187441E+02  0.33523434306E+02  0.00000000000E+00 0. -1.
        -13    1    4    4    0    0  0.49584902400E+02 -0.38658746264E+02 -0.14915433861E+03  0.16186469021E+03  0.00000000000E+00 0.  1.
         13    1    4    4    0    0 -0.52084083224E+02 -0.35533751122E+02 -0.12412638872E+03  0.13922197948E+03  0.00000000000E+00 0. -1.
         21    1    1    2  503  502 -0.53424083979E+00  0.21677830033E+02 -0.36241831161E+02  0.42233683880E+02  0.00000000000E+00 0. -1.
          3    1    1    2  501    0 -0.23902026696E+02 -0.29625963750E+02 -0.68954028294E+02  0.78763333006E+02  0.00000000000E+00 0. -1.
<scales pt_clust_5="13000.00000" pt_clust_6="13000.00000" pt_clust_7="13000.00000" pt_clust_8="13000.00000" pt_clust_9="21.68441" pt_clust_10="35.27568"></scales>
<clustering>
<clus scale="   21.684">  1  9  2 -1</clus>
<clus scale="   35.276">  1 10  2 -1</clus>
<clus scale="   84.356">  5  6 -1 -1</clus>
<clus scale="  102.274">  7  8 -1 -1</clus>
<clus scale="  116.781">  2  5  1 -1</clus>
<clus scale="   21.684">  1  5  2 -1</clus>
</clustering>
</event>
<event>
10    2  0.6640105E-006  0.9679477E+02  0.7546771E-02  0.1288563E+00
         21   -1    0    0  501  502  0.00000000000E+00  0.00000000000E+00  0.28780029750E+03  0.28780029750E+03  0.00000000000E+00 0.  1.
          1   -1    0    0  503    0 -0.00000000000E+00 -0.00000000000E+00 -0.72934601069E+02  0.72934601069E+02  0.00000000000E+00 0. -1.
         23    2    1    2    0    0  0.22342590199E+02 -0.72923528630E+01  0.16572639424E+01  0.97037601751E+02  0.94133840263E+02 0.  0.
         23    2    1    2    0    0 -0.16022845128E+02  0.11653406998E+02  0.16795760066E+03  0.19232825441E+03  0.91585306479E+02 0.  0.
        -11    1    4    4    0    0  0.76511324846E+01  0.43273033028E+02  0.43823986424E+02  0.62061558164E+02  0.00000000000E+00 0.  1.
         11    1    4    4    0    0 -0.23673977613E+02 -0.31619626030E+02  0.12413361424E+03  0.13026669624E+03  0.00000000000E+00 0. -1.
        -11    1    3    3    0    0  0.17771078189E+02 -0.50505821460E+02  0.20687393832E+01  0.53581049859E+02  0.00000000000E+00 0.  1.
         11    1    3    3    0    0  0.45715120102E+01  0.43213468598E+02 -0.41147544077E+00  0.43456551892E+02  0.00000000000E+00 0. -1.
         21    1    1    2  503  502  0.12703789030E+02 -0.19106286898E+02  0.40919923216E+02  0.46913500944E+02  0.00000000000E+00 0.  1.
          1    1    1    2  501    0 -0.19023534101E+02  0.14745232763E+02  0.43309086093E+01  0.24455541464E+02  0.00000000000E+00 0. -1.
<scales pt_clust_5="13000.00000" pt_clust_6="13000.00000" pt_clust_7="13000.00000" pt_clust_8="13000.00000" pt_clust_9="22.94420" pt_clust_10="22.78974"></scales>
<clustering>
<clus scale="   22.944">  1  9  2 -1</clus>
<clus scale="   22.790">  1 10  2 -1</clus>
<clus scale="   91.585">  5  6 -1 -1</clus>
<clus scale="   94.134">  7  8 -1 -1</clus>
<clus scale="   94.318">  1  5  2 -1</clus>
<clus scale="   22.944">  1  5  2 -1</clus>
</clustering>
</event>
<event>
10    2  0.6640105E-006  0.1236884E+03  0.7546771E-02  0.1238873E+00
          1   -1    0    0  503    0 -0.00000000000E+00  0.00000000000E+00  0.92522833470E+03  0.92522833470E+03  0.00000000000E+00 0. -1.
         21   -1    0    0  501  502  0.00000000000E+00 -0.00000000000E+00 -0.11686561844E+03  0.11686561844E+03  0.00000000000E+00 0. -1.
         23    2    1    2    0    0 -0.10838126105E+02 -0.55486778094E+02  0.36366704088E+03  0.37899761700E+03  0.90494361977E+02 0.  0.
         23    2    1    2    0    0 -0.42685716445E+02  0.10612585602E+03  0.52540493365E+03  0.54623355483E+03  0.96104029117E+02 0.  0.
        -13    1    4    4    0    0 -0.64179735882E+00  0.10506483744E+03  0.41487974795E+03  0.42797691203E+03  0.00000000000E+00 0. -1.
         13    1    4    4    0    0 -0.42043919086E+02  0.10610185814E+01  0.11052518571E+03  0.11825664281E+03  0.00000000000E+00 0.  1.
        -13    1    3    3    0    0  0.31967376146E+02 -0.42373492695E+02  0.11946956337E+03  0.13073026655E+03  0.00000000000E+00 0.  1.
         13    1    3    3    0    0 -0.42805502251E+02 -0.13113285399E+02  0.24419747751E+03  0.24826735045E+03  0.00000000000E+00 0. -1.
         21    1    1    2  503  502  0.31260533822E+02 -0.38809028716E+01 -0.21176294557E+02  0.37956789026E+02  0.00000000000E+00 0.  1.
          1    1    1    2  501    0  0.22263308727E+02 -0.46758175055E+02 -0.59532963709E+02  0.78905992282E+02  0.00000000000E+00 0. -1.
<scales pt_clust_5="13000.00000" pt_clust_6="13000.00000" pt_clust_7="13000.00000" pt_clust_8="13000.00000" pt_clust_9="31.50051" pt_clust_10="68.53645"></scales>
<clustering>
<clus scale="   31.501">  2  9  1 -1</clus>
<clus scale="   68.536">  2 10  1 -1</clus>
<clus scale="   90.494">  7  8 -1 -1</clus>
<clus scale="   96.104">  5  6 -1 -1</clus>
<clus scale="  119.382">  1  7  2 -1</clus>
<clus scale="   31.501">  2  5  1 -1</clus>
</clustering>
</event>
<event>
10    2  0.6640105E-006  0.9411773E+02  0.7546771E-02  0.1293844E+00
         21   -1    0    0  501  502  0.00000000000E+00  0.00000000000E+00  0.28922736179E+03  0.28922736179E+03  0.00000000000E+00 0. -1.
          1   -1    0    0  503    0 -0.00000000000E+00 -0.00000000000E+00 -0.24627147406E+03  0.24627147406E+03  0.00000000000E+00 0. -1.
         23    2    1    2    0    0  0.13265029645E+02 -0.10408717550E+02 -0.16321824918E+03  0.18759473271E+03  0.90924608677E+02 0.  0.
         23    2    1    2    0    0 -0.25813699366E+02  0.14476611606E+02  0.28636648292E+01  0.96794488646E+02  0.92114347946E+02 0.  0.
        -13    1    3    3    0    0 -0.26653687710E+02  0.16626462567E+02 -0.21941987863E+02  0.38318522380E+02  0.00000000000E+00 0.  1.
         13    1    3    3    0    0  0.39918717355E+02 -0.27035180117E+02 -0.14127626131E+03  0.14927621033E+03  0.00000000000E+00 0. -1.
        -13    1    4    4    0    0 -0.45192915699E+02 -0.12310707765E+02 -0.25412973275E+02  0.53289514594E+02  0.00000000000E+00 0. -1.
         13    1    4    4    0    0  0.19379216333E+02  0.26787319371E+02  0.28276638104E+02  0.43504974052E+02  0.00000000000E+00 0.  1.
         21    1    1    2  503  502  0.55103584763E+02 -0.26872424694E+02  0.19196140887E+03  0.20151355974E+03  0.00000000000E+00 0. -1.
          1    1    1    2  501    0 -0.42554915042E+02  0.22804530638E+02  0.11349063204E+02  0.49596054757E+02  0.00000000000E+00 0. -1.
<scales pt_clust_5="13000.00000" pt_clust_6="13000.00000" pt_clust_7="13000.00000" pt_clust_8="13000.00000" pt_clust_9="24.66503" pt_clust_10="48.28009"></scales>
<clustering>
<clus scale="   48.280">  1 10  2 -1</clus>
<clus scale="   24.665">  1  9  2 -1</clus>
<clus scale="   90.925">  5  6 -1 -1</clus>
<clus scale="   92.114">  7  8 -1 -1</clus>
<clus scale="   92.954">  2  5  1 -1</clus>
<clus scale="   48.280">  1  5  2 -1</clus>
</clustering>
</event>
<event>
10    2  0.6640105E-006  0.1167095E+03  0.7546771E-02  0.1249840E+00
         21   -1    0    0  503  502  0.00000000000E+00  0.00000000000E+00  0.10743793924E+03  0.10743793924E+03  0.00000000000E+00 0. -1.
          2   -1    0    0  502    0 -0.00000000000E+00 -0.00000000000E+00 -0.65078118843E+03  0.65078118843E+03  0.00000000000E+00 0. -1.
         23    2    1    2    0    0  0.62278295993E+02  0.16880016245E+02 -0.41438100909E+03  0.42911928672E+03  0.90929755536E+02 0.  0.
         23    2    1    2    0    0 -0.12191216237E+03  0.50527964783E+02 -0.15280384305E+03  0.21997073371E+03  0.87306693209E+02 0.  0.
        -13    1    3    3    0    0  0.19873859245E+02 -0.36283672086E+02 -0.19911423747E+03  0.20336655257E+03  0.00000000000E+00 0.  1.
         13    1    3    3    0    0  0.42404436748E+02  0.53163688331E+02 -0.21526677162E+03  0.22575273415E+03  0.00000000000E+00 0. -1.
        -13    1    4    4    0    0 -0.42346211101E+02  0.64786798907E+02 -0.75339818876E+02  0.10801212532E+03  0.00000000000E+00 0.  1.
         13    1    4    4    0    0 -0.79565951271E+02 -0.14258834124E+02 -0.77464024177E+02  0.11195860840E+03  0.00000000000E+00 0. -1.
         21    1    1    2  503  501 -0.17380466158E+01 -0.20474136276E+02  0.24356544099E+02  0.31866162347E+02  0.00000000000E+00 0. -1.
          2    1    1    2  501    0  0.61371912995E+02 -0.46933844752E+02 -0.51494114861E+00  0.77262944884E+02  0.00000000000E+00 0. -1.
<scales pt_clust_5="13000.00000" pt_clust_6="13000.00000" pt_clust_7="13000.00000" pt_clust_8="13000.00000" pt_clust_9="20.54778" pt_clust_10="83.03369"></scales>
<clustering>
<clus scale="   20.548">  1  9  2 -1</clus>
<clus scale="   83.034">  1 10  2 -1</clus>
<clus scale="   87.307">  7  8 -1 -1</clus>
<clus scale="   90.930">  5  6 -1 -1</clus>
<clus scale="  113.909">  1  7  2 -1</clus>
<clus scale="   20.548">  1  5  2 -1</clus>
</clustering>
</event>
<event>
10    2  0.6640105E-006  0.1533708E+03  0.7546771E-02  0.1220197E+00
         21   -1    0    0  501  502  0.00000000000E+00  0.00000000000E+00  0.28962351958E+03  0.28962351958E+03  0.00000000000E+00 0. -1.
          1   -1    0    0  503    0 -0.00000000000E+00 -0.00000000000E+00 -0.32021656317E+03  0.32021656317E+03  0.00000000000E+00 0. -1.
         23    2    1    2    0    0  0.11456133259E+02 -0.11184693688E+02 -0.43406839512E+02  0.10200647813E+03  0.90911096692E+02 0.  0.
         23    2    1    2    0    0 -0.12767147459E+03  0.14101367325E+02 -0.18639373872E+03  0.24405234561E+03  0.91214404448E+02 0.  0.
        -13    1    4    4    0    0 -0.12777106537E+03 -0.14810916496E+02 -0.15254468742E+03  0.19953618733E+03  0.00000000000E+00 0. -1.
         13    1    4    4    0    0  0.99590782482E-01  0.28912283821E+02 -0.33849051301E+02  0.44516158280E+02  0.00000000000E+00 0.  1.
        -13    1    3    3    0    0 -0.26200785383E+02  0.26722489625E+02 -0.26878487598E+02  0.46076303042E+02  0.00000000000E+00 0.  1.
         13    1    3    3    0    0  0.37656918642E+02 -0.37907183312E+02 -0.16528351914E+02  0.55930175087E+02  0.00000000000E+00 0. -1.
         21    1    1    2  503  502 -0.27373617943E+02 -0.94944064951E+01  0.28891578753E+02  0.40916769628E+02  0.00000000000E+00 0.  1.
          1    1    1    2  501    0  0.14358895927E+03  0.65777328578E+01  0.17031595589E+03  0.22286448938E+03  0.00000000000E+00 0. -1.
<scales pt_clust_5="13000.00000" pt_clust_6="13000.00000" pt_clust_7="13000.00000" pt_clust_8="13000.00000" pt_clust_9="28.97341" pt_clust_10="123.29857"></scales>
<clustering>
<clus scale="   28.973">  1  9  2 -1</clus>
<clus scale="   90.911">  7  8 -1 -1</clus>
<clus scale="   91.214">  5  6 -1 -1</clus>
<clus scale="   92.112">  2  7  1 -1</clus>
<clus scale="  123.299">  1 10  2 -1</clus>
<clus scale="   28.973">  1  5  2 -1</clus>
</clustering>
</event>
<event>
10    2  0.6640105E-006  0.1042908E+03  0.7546771E-02  0.1273386E+00
          1   -1    0    0  503    0 -0.00000000000E+00  0.00000000000E+00  0.20915607281E+03  0.20915607281E+03  0.00000000000E+00 0. -1.
         21   -1    0    0  501  502  0.00000000000E+00 -0.00000000000E+00 -0.17340795425E+03  0.17340795425E+03  0.00000000000E+00 0. -1.
         23    2    1    2    0    0  0.19183868295E+02  0.62360150057E+01  0.10018394169E+03  0.13741555799E+03  0.91865688475E+02 0.  0.
         23    2    1    2    0    0 -0.29937072796E+02 -0.79520135941E+02 -0.45687912106E+02  0.13035761610E+03  0.87670077072E+02 0.  0.
        -11    1    3    3    0    0  0.82219820020E+01  0.39851492366E+02  0.92752221778E+02  0.10128532508E+03  0.00000000000E+00 0. -1.
         11    1    3    3    0    0  0.10961886293E+02 -0.33615477360E+02  0.74317199129E+01  0.36130232910E+02  0.00000000000E+00 0.  1.
        -13    1    4    4    0    0 -0.31217324518E+02  0.27644297075E+01  0.76883869279E+01  0.32268788561E+02  0.00000000000E+00 0.  1.
         13    1    4    4    0    0  0.12802517224E+01 -0.82284565649E+02 -0.53376299034E+02  0.98088827534E+02  0.00000000000E+00 0. -1.
         21    1    1    2  503  502  0.38571857292E+02  0.12267483331E+02  0.10214711735E+02  0.41744696167E+02  0.00000000000E+00 0. -1.
          1    1    1    2  501    0 -0.27818652791E+02  0.61016637604E+02 -0.28962622756E+02  0.73046156809E+02  0.00000000000E+00 0. -1.
<scales pt_clust_5="13000.00000" pt_clust_6="13000.00000" pt_clust_7="13000.00000" pt_clust_8="13000.00000" pt_clust_9="40.47566" pt_clust_10="66.65235"></scales>
<clustering>
<clus scale="   40.476">  1  9  2 -1</clus>
<clus scale="   66.652">  2 10  1 -1</clus>
<clus scale="   87.670">  7  8 -1 -1</clus>
<clus scale="   91.866">  5  6 -1 -1</clus>
<clus scale="  100.615">  2  7  1 -1</clus>
<clus scale="   66.652">  2  5  1 -1</clus>
</clustering>
</event>
<event>
10    2  0.6640105E-006  0.1048620E+03  0.7546771E-02  0.1271013E+00
         21   -1    0    0  503  502  0.00000000000E+00  0.00000000000E+00  0.24094125003E+03  0.24094125003E+03  0.00000000000E+00 0. -1.
          1   -1    0    0  502    0 -0.00000000000E+00 -0.00000000000E+00 -0.95644092453E+02  0.95644092453E+02  0.00000000000E+00 0. -1.
         23    2    1    2    0    0  0.52723736063E+02  0.48561785855E+02 -0.35991733941E+01  0.11597179690E+03  0.91095906808E+02 0.  0.
         23    2    1    2    0    0 -0.22875562806E+02 -0.17904739042E+01  0.71740650090E+02  0.11709397797E+03  0.89653676061E+02 0.  0.
        -11    1    3    3    0    0 -0.24209256678E+02  0.12341220933E+02  0.11679418185E+02  0.29577062940E+02  0.00000000000E+00 0.  1.
         11    1    3    3    0    0  0.76932992741E+02  0.36220564922E+02 -0.15278591579E+02  0.86394733960E+02  0.00000000000E+00 0. -1.
        -13    1    4    4    0    0 -0.62932067813E+01  0.30929637251E+02  0.73889800013E+02  0.80348923191E+02  0.00000000000E+00 0.  1.
         13    1    4    4    0    0 -0.16582356025E+02 -0.32720111155E+02 -0.21491499231E+01  0.36745054779E+02  0.00000000000E+00 0. -1.
         21    1    1    2  503  501 -0.46979429713E+01 -0.20244942083E+02  0.59302654816E+02  0.62838946652E+02  0.00000000000E+00 0. -1.
          1    1    1    2  501    0 -0.25150230286E+02 -0.26526369868E+02  0.17853026061E+02  0.40680620956E+02  0.00000000000E+00 0. -1.
<scales pt_clust_5="13000.00000" pt_clust_6="13000.00000" pt_clust_7="13000.00000" pt_clust_8="13000.00000" pt_clust_9="20.78289" pt_clust_10="39.50730"></scales>
<clustering>
<clus scale="   20.783">  1  9  2 -1</clus>
<clus scale="   39.507">  1 10  2 -1</clus>
<clus scale="   89.654">  7  8 -1 -1</clus>
<clus scale="   91.096">  5  6 -1 -1</clus>
<clus scale="  103.612">  1  7  2 -1</clus>
<clus scale="   20.783">  1  5  2 -1</clus>
</clustering>
</event>
<event>
10    2  0.1048059E-005  0.1119090E+03  0.7546771E-02  0.1257306E+00
          3   -1    0    0  503    0 -0.00000000000E+00  0.00000000000E+00  0.21721383195E+03  0.21721383195E+03  0.00000000000E+00 0. -1.
         21   -1    0    0  501  502  0.00000000000E+00 -0.00000000000E+00 -0.10773978853E+04  0.10773978853E+04  0.00000000000E+00 0. -1.
         23    2    1    2    0    0  0.56095822333E+02  0.29789494194E+02  0.18742012746E+03  0.21802718838E+03  0.91517186615E+02 0.  0.
         23    2    1    2    0    0 -0.90369737690E+02 -0.33312902708E+02 -0.52492548692E+03  0.54137311716E+03  0.90893598156E+02 0.  0.
        -13    1    3    3    0    0  0.39980639776E+02 -0.21951177416E+02  0.38958236531E+02  0.59983747303E+02  0.00000000000E+00 0.  1.
         13    1    3    3    0    0  0.16115182557E+02  0.51740671610E+02  0.14846189093E+03  0.15804344107E+03  0.00000000000E+00 0. -1.
        -13    1    4    4    0    0  0.16143916666E+02 -0.18807697073E+02 -0.10873115713E+03  0.11152049159E+03  0.00000000000E+00 0.  1.
         13    1    4    4    0    0 -0.10651365436E+03 -0.14505205635E+02 -0.41619432980E+03  0.42985262557E+03  0.00000000000E+00 0. -1.
         21    1    1    2  503  502 -0.30432853351E+02  0.20407444178E+02 -0.86569216852E+02  0.94004529930E+02  0.00000000000E+00 0. -1.
          3    1    1    2  501    0  0.64706768708E+02 -0.16884035663E+02 -0.43610947706E+03  0.44120688182E+03  0.00000000000E+00 0. -1.
<scales pt_clust_5="13000.00000" pt_clust_6="13000.00000" pt_clust_7="13000.00000" pt_clust_8="13000.00000" pt_clust_9="36.64181" pt_clust_10="51.77607"></scales>
<clustering>
<clus scale="   36.642">  2  9  1 -1</clus>
<clus scale="   51.776">  2 10  1 -1</clus>
<clus scale="   90.894">  7  8 -1 -1</clus>
<clus scale="   91.517">  5  6 -1 -1</clus>
<clus scale="  111.400">  2  7  1 -1</clus>
<clus scale="   36.642">  2  5  1 -1</clus>
</clustering>
</event>
<event>
10    2  0.6640105E-006  0.1574920E+03  0.7546771E-02  0.1191810E+00
          1   -1    0    0  503    0 -0.00000000000E+00  0.00000000000E+00  0.53136575891E+03  0.53136575891E+03  0.00000000000E+00 0. -1.
         21   -1    0    0  501  502  0.00000000000E+00 -0.00000000000E+00 -0.12759368346E+03  0.12759368346E+03  0.00000000000E+00 0.  1.
         23    2    1    2    0    0  0.12383415291E+03 -0.55130192146E+02  0.32510837777E+03  0.36362511221E+03  0.90296895947E+02 0.  0.
         23    2    1    2    0    0 -0.97830766836E+02  0.69550796918E+02  0.14773424244E+03  0.21002966699E+03  0.88763068521E+02 0.  0.
        -11    1    4    4    0    0 -0.97581372615E+02  0.20033239386E+02  0.10311879339E+03  0.14337691764E+03  0.00000000000E+00 0.  1.
         11    1    4    4    0    0 -0.24939422118E+00  0.49517557532E+02  0.44615449045E+02  0.66652749343E+02  0.00000000000E+00 0. -1.
        -11    1    3    3    0    0  0.19067493247E+02  0.17840398869E+02  0.11365798868E+03  0.11661898440E+03  0.00000000000E+00 0. -1.
         11    1    3    3    0    0  0.10476665966E+03 -0.72970591014E+02  0.21145038909E+03  0.24700612781E+03  0.00000000000E+00 0.  1.
         21    1    1    2  503  502 -0.18499893293E+02  0.97762283909E+01 -0.47969082105E+02  0.52334057089E+02  0.00000000000E+00 0.  1.
          1    1    1    2  501    0 -0.75034927789E+01 -0.24196833163E+02 -0.21101462659E+02  0.32970606081E+02  0.00000000000E+00 0. -1.
<scales pt_clust_5="13000.00000" pt_clust_6="13000.00000" pt_clust_7="13000.00000" pt_clust_8="13000.00000" pt_clust_9="20.92417" pt_clust_10="25.03809"></scales>
<clustering>
<clus scale="   20.924">  2  9  1 -1</clus>
<clus scale="   25.038">  2 10  1 -1</clus>
<clus scale="   88.763">  5  6 -1 -1</clus>
<clus scale="   90.297">  7  8 -1 -1</clus>
<clus scale="  156.618">  2  5  1 -1</clus>
<clus scale="   20.924">  2  5  1 -1</clus>
</clustering>
</event>
<event>
10    2  0.6640105E-006  0.1068355E+03  0.7546771E-02  0.1267252E+00
         21   -1    0    0  501  502  0.00000000000E+00  0.00000000000E+00  0.11739708572E+03  0.11739708572E+03  0.00000000000E+00 0.  1.
         -1   -1    0    0    0  501 -0.00000000000E+00 -0.00000000000E+00 -0.81688160467E+03  0.81688160467E+03  0.00000000000E+00 0.  1.
         23    2    1    2    0    0  0.42747871883E+02  0.39472273339E+02 -0.50994253489E+03  0.52103422264E+03  0.89720852387E+02 0.  0.
         23    2    1    2    0    0 -0.18073268572E+02 -0.51113907618E+02 -0.27450271224E+03  0.29436445628E+03  0.91429861142E+02 0.  0.
        -11    1    4    4    0    0  0.24819920547E+02  0.63141589105E+01 -0.13624019080E+03  0.13862642839E+03  0.00000000000E+00 0.  1.
         11    1    4    4    0    0 -0.42893189120E+02 -0.57428066528E+02 -0.13826252143E+03  0.15573802789E+03  0.00000000000E+00 0. -1.
        -11    1    3    3    0    0 -0.74126539070E+01  0.53853616008E+02 -0.23783930162E+03  0.24397272960E+03  0.00000000000E+00 0.  1.
         11    1    3    3    0    0  0.50160525790E+02 -0.14381342668E+02 -0.27210323328E+03  0.27706149304E+03  0.00000000000E+00 0. -1.
         21    1    1    2  503  502 -0.40339546225E+01 -0.30389050118E+02  0.55944918437E+02  0.63793424864E+02  0.00000000000E+00 0.  1.
         -1    1    1    2    0  503 -0.20640648688E+02  0.42030684396E+02  0.29015809744E+02  0.55086586608E+02  0.00000000000E+00 0.  1.
<scales pt_clust_5="13000.00000" pt_clust_6="13000.00000" pt_clust_7="13000.00000" pt_clust_8="13000.00000" pt_clust_9="30.65562" pt_clust_10="30.80874"></scales>
<clustering>
<clus scale="   30.656">  1  9  2 -1</clus>
<clus scale="   30.809">  1 10  2 -1</clus>
<clus scale="   89.721">  7  8 -1 -1</clus>
<clus scale="   91.430">  5  6 -1 -1</clus>
<clus scale="  105.377">  2  7  1 -1</clus>
<clus scale="   30.656">  1  5  2 -1</clus>
</clustering>
</event>
<event>
10    2  0.6640105E-006  0.1018873E+03  0.7546771E-02  0.1280321E+00
         21   -1    0    0  503  502  0.00000000000E+00  0.00000000000E+00  0.11141627256E+03  0.11141627256E+03  0.00000000000E+00 0.  1.
          1   -1    0    0  502    0 -0.00000000000E+00 -0.00000000000E+00 -0.23881292768E+03  0.23881292768E+03  0.00000000000E+00 0. -1.
         23    2    1    2    0    0  0.37312042580E+00  0.23750323757E+01 -0.10319725172E+03  0.14470261875E+03  0.10140707624E+03 0.  0.
         23    2    1    2    0    0  0.16083614498E+02 -0.12775492983E+02 -0.63855353273E+02  0.11546379445E+03  0.93981305641E+02 0.  0.
        -11    1    3    3    0    0 -0.42595808659E+02 -0.26033627628E+02 -0.50221939867E+02  0.70812399527E+02  0.00000000000E+00 0. -1.
         11    1    3    3    0    0  0.42968929085E+02  0.28408660004E+02 -0.52975311858E+02  0.73890219220E+02  0.00000000000E+00 0.  1.
        -11    1    4    4    0    0  0.32862884691E+02 -0.47161890580E+02 -0.32777802627E+02  0.66170971417E+02  0.00000000000E+00 0.  1.
         11    1    4    4    0    0 -0.16779270193E+02  0.34386397597E+02 -0.31077550647E+02  0.49292823028E+02  0.00000000000E+00 0. -1.
         21    1    1    2  503  501  0.22789102370E+02  0.60047673285E+01  0.44420669531E+02  0.50285149886E+02  0.00000000000E+00 0.  1.
          1    1    1    2  501    0 -0.39245837294E+02  0.43956932792E+01 -0.47647196564E+01  0.39777637156E+02  0.00000000000E+00 0. -1.
<scales pt_clust_5="13000.00000" pt_clust_6="13000.00000" pt_clust_7="13000.00000" pt_clust_8="13000.00000" pt_clust_9="23.56693" pt_clust_10="33.56560"></scales>
<clustering>
<clus scale="   23.567">  1  9  2 -1</clus>
<clus scale="   33.566">  1 10  2 -1</clus>
<clus scale="   93.981">  7  8 -1 -1</clus>
<clus scale="   94.499">  1  7  2 -1</clus>
<clus scale="  101.407">  5  6 -1 -1</clus>
<clus scale="   23.567">  1  5  2 -1</clus>
</clustering>
</event>
<event>
10    2  0.6640105E-006  0.2260217E+03  0.7546771E-02  0.1129855E+00
          1   -1    0    0  502    0 -0.00000000000E+00  0.00000000000E+00  0.15060113460E+04  0.15060113460E+04  0.00000000000E+00 0. -1.
         21   -1    0    0  503  502  0.00000000000E+00 -0.00000000000E+00 -0.24442874052E+03  0.24442874052E+03  0.00000000000E+00 0. -1.
         23    2    1    2    0    0  0.11577851282E+03 -0.17068465516E+03  0.11541321535E+04  0.11762449162E+04  0.94832271781E+02 0.  0.
         23    2    1    2    0    0  0.61997190715E+02  0.26565085176E+03  0.44934530703E+02  0.29063987392E+03  0.89657111066E+02 0.  0.
        -11    1    3    3    0    0  0.53192609709E+02 -0.15204293408E+03  0.78041931905E+03  0.79686938771E+03  0.00000000000E+00 0. -1.
         11    1    3    3    0    0  0.62585903110E+02 -0.18641721071E+02  0.37371283441E+03  0.37937552852E+03  0.00000000000E+00 0.  1.
        -13    1    4    4    0    0 -0.66944648380E+01  0.46465974137E+02  0.38729396815E+02  0.60859418249E+02  0.00000000000E+00 0.  1.
         13    1    4    4    0    0  0.68691655553E+02  0.21918487762E+03  0.62051338882E+01  0.22978045567E+03  0.00000000000E+00 0. -1.
         21    1    1    2  503  501 -0.32690190525E+02 -0.17915735127E+01 -0.62513590128E+02  0.70567749311E+02  0.00000000000E+00 0. -1.
          1    1    1    2  501    0 -0.14508551301E+03 -0.93174623089E+02  0.12502951144E+03  0.21298754706E+03  0.00000000000E+00 0. -1.
<scales pt_clust_5="13000.00000" pt_clust_6="13000.00000" pt_clust_7="13000.00000" pt_clust_8="13000.00000" pt_clust_9="32.73925" pt_clust_10="179.51189"></scales>
<clustering>
<clus scale="   32.739">  2  9  1 -1</clus>
<clus scale="   89.657">  7  8 -1 -1</clus>
<clus scale="   94.832">  5  6 -1 -1</clus>
<clus scale="  179.512">  2 10  1 -1</clus>
<clus scale="  223.900">  2  7  1 -1</clus>
<clus scale="   32.739">  2  5  1 -1</clus>
</clustering>
</event>
<event>
10    2  0.6640105E-006  0.1268730E+03  0.7546771E-02  0.1234117E+00
         21   -1    0    0  501  502  0.00000000000E+00  0.00000000000E+00  0.13006495569E+03  0.13006495569E+03  0.00000000000E+00 0. -1.
          1   -1    0    0  503    0 -0.00000000000E+00 -0.00000000000E+00 -0.51209441963E+03  0.51209441963E+03  0.00000000000E+00 0. -1.
         23    2    1    2    0    0 -0.65507518330E+02 -0.88707389414E+02 -0.37823957358E+03  0.40349653122E+03  0.87086392664E+02 0.  0.
         23    2    1    2    0    0 -0.20232127644E+01  0.34024335166E+02 -0.55195511406E+02  0.11414529331E+03  0.93919405520E+02 0.  0.
        -13    1    3    3    0    0 -0.64925449356E+02 -0.26928835532E+02 -0.13112268788E+03  0.14877377267E+03  0.00000000000E+00 0.  1.
         13    1    3    3    0    0 -0.58206897374E+00 -0.61778553882E+02 -0.24711688570E+03  0.25472275855E+03  0.00000000000E+00 0. -1.
        -13    1    4    4    0    0  0.41165103235E+02  0.27647874299E+02 -0.86619544981E+01  0.50338853119E+02  0.00000000000E+00 0.  1.
         13    1    4    4    0    0 -0.43188315999E+02  0.63764608668E+01 -0.46533556908E+02  0.63806440196E+02  0.00000000000E+00 0. -1.
         21    1    1    2  503  502  0.20874773609E+01  0.31745862988E+02  0.44674793640E+02  0.54845187258E+02  0.00000000000E+00 0. -1.
          1    1    1    2  501    0  0.65443253734E+02  0.22937191260E+02  0.67308274013E+01  0.69672363529E+02  0.00000000000E+00 0. -1.
<scales pt_clust_5="13000.00000" pt_clust_6="13000.00000" pt_clust_7="13000.00000" pt_clust_8="13000.00000" pt_clust_9="31.81442" pt_clust_10="76.55545"></scales>
<clustering>
<clus scale="   31.814">  1  9  2 -1</clus>
<clus scale="   76.555">  1 10  2 -1</clus>
<clus scale="   87.086">  5  6 -1 -1</clus>
<clus scale="   93.919">  7  8 -1 -1</clus>
<clus scale="  121.901">  2  5  1 -1</clus>
<clus scale="   31.814">  1  5  2 -1</clus>
</clustering>
</event>
<event>
10    2  0.6640105E-006  0.1158097E+03  0.7546771E-02  0.1260394E+00
          1   -1    0    0  503    0 -0.00000000000E+00  0.00000000000E+00  0.93356655953E+02  0.93356655953E+02  0.00000000000E+00 0. -1.
         21   -1    0    0  501  502  0.00000000000E+00 -0.00000000000E+00 -0.40484653375E+03  0.40484653375E+03  0.00000000000E+00 0. -1.
         23    2    1    2    0    0 -0.61809536619E+02  0.21240102767E+02 -0.19512822930E+02  0.11370466440E+03  0.90974939765E+02 0.  0.
         23    2    1    2    0    0  0.55922801313E+02 -0.61824643173E+02 -0.35183492505E+02  0.10953930614E+03  0.61736012465E+02 0.  0.
        -11    1    3    3    0    0 -0.69520582109E+02 -0.14108173901E+02 -0.28462312651E+02  0.76434646261E+02  0.00000000000E+00 0. -1.
         11    1    3    3    0    0  0.77110454898E+01  0.35348276667E+02  0.89494897213E+01  0.37270018140E+02  0.00000000000E+00 0.  1.
        -13    1    4    4    0    0  0.29576702905E+02 -0.87604049509E+01 -0.39523202264E+02  0.50135910951E+02  0.00000000000E+00 0.  1.
         13    1    4    4    0    0  0.26346098408E+02 -0.53064238223E+02  0.43397097593E+01  0.59403395191E+02  0.00000000000E+00 0. -1.
         21    1    1    2  503  502 -0.31249551885E+02 -0.81508847941E+01 -0.52151225740E+02  0.61341028376E+02  0.00000000000E+00 0. -1.
          1    1    1    2  501    0  0.37136287192E+02  0.48735425201E+02 -0.20464233662E+03  0.21361819078E+03  0.00000000000E+00 0. -1.
<scales pt_clust_5="13000.00000" pt_clust_6="13000.00000" pt_clust_7="13000.00000" pt_clust_8="13000.00000" pt_clust_9="32.29507" pt_clust_10="47.52889"></scales>
<clustering>
<clus scale="   32.295">  2  9  1 -1</clus>
<clus scale="   47.529">  2 10  1 -1</clus>
<clus scale="   61.736">  7  8 -1 -1</clus>
<clus scale="   90.975">  5  6 -1 -1</clus>
<clus scale="   94.587">  2  7  1 -1</clus>
<clus scale="   32.295">  2  5  1 -1</clus>
</clustering>
</event>
<event>
10    2  0.6640105E-006  0.1730762E+03  0.7546771E-02  0.1175045E+00
         -3   -1    0    0    0  501 -0.00000000000E+00  0.00000000000E+00  0.51322142750E+03  0.51322142750E+03  0.00000000000E+00 0.  1.
         21   -1    0    0  503  502  0.00000000000E+00 -0.00000000000E+00 -0.14838667982E+03  0.14838667982E+03  0.00000000000E+00 0. -1.
         23    2    1    2    0    0 -0.91036179086E+02  0.12089835386E+03  0.36903714553E+03  0.40915267787E+03  0.91178402922E+02 0.  0.
         23    2    1    2    0    0  0.54192310952E+02 -0.11949591877E+03  0.59362727518E+02  0.17189958717E+03  0.93858688895E+02 0.  0.
        -11    1    3    3    0    0 -0.11056725740E+02  0.45376236551E+02  0.37663502511E+02  0.59998278717E+02  0.00000000000E+00 0. -1.
         11    1    3    3    0    0 -0.79979453346E+02  0.75522117306E+02  0.33137364302E+03  0.34915439915E+03  0.00000000000E+00 0.  1.
        -13    1    4    4    0    0 -0.25760725040E+02 -0.18344755473E+02  0.18530864182E+02  0.36654303094E+02  0.00000000000E+00 0.  1.
         13    1    4    4    0    0  0.79953035992E+02 -0.10115116330E+03  0.40831863336E+02  0.13524528408E+03  0.00000000000E+00 0. -1.
         21    1    1    2  503  501  0.20425183952E+02  0.13818921122E+02 -0.45635737827E+02  0.51872644886E+02  0.00000000000E+00 0. -1.
         -3    1    1    2    0  502  0.16418684181E+02 -0.15221356206E+02 -0.17929387543E+02  0.28683197393E+02  0.00000000000E+00 0.  1.
<scales pt_clust_5="13000.00000" pt_clust_6="13000.00000" pt_clust_7="13000.00000" pt_clust_8="13000.00000" pt_clust_9="27.96002" pt_clust_10="22.38890"></scales>
<clustering>
<clus scale="   22.389">  2 10  1 -1</clus>
<clus scale="   27.960">  2  9  1 -1</clus>
<clus scale="   91.178">  5  6 -1 -1</clus>
<clus scale="   93.859">  7  8 -1 -1</clus>
<clus scale="  171.637">  1  5  2 -1</clus>
<clus scale="   22.389">  2  5  1 -1</clus>
</clustering>
</event>
<event>
10    2  0.6640105E-006  0.2161000E+03  0.7546771E-02  0.1160045E+00
         -4   -1    0    0    0  501 -0.00000000000E+00  0.00000000000E+00  0.26201981803E+03  0.26201981803E+03  0.00000000000E+00 0.  1.
         21   -1    0    0  503  502  0.00000000000E+00 -0.00000000000E+00 -0.13959957619E+04  0.13959957619E+04  0.00000000000E+00 0.  1.
         23    2    1    2    0    0  0.83857436641E+02 -0.58045379590E+01  0.62901787074E+02  0.13944962611E+03  0.91781267499E+02 0.  0.
         23    2    1    2    0    0 -0.41924473029E+02  0.18622459275E+03 -0.30884486388E+02  0.21373304046E+03  0.91053284956E+02 0.  0.
        -11    1    3    3    0    0  0.44233502880E+02  0.37848296432E+02  0.54782261234E+02  0.79938679410E+02  0.00000000000E+00 0.  1.
         11    1    3    3    0    0  0.39623933761E+02 -0.43652834391E+02  0.81195258403E+01  0.59510946698E+02  0.00000000000E+00 0. -1.
        -11    1    4    4    0    0 -0.64812018842E+02  0.17252584432E+03 -0.21939663502E+02  0.18559933615E+03  0.00000000000E+00 0.  1.
         11    1    4    4    0    0  0.22887545813E+02  0.13698748435E+02 -0.89448228855E+01  0.28133704315E+02  0.00000000000E+00 0. -1.
         21    1    1    2  503  501 -0.19645521832E+03 -0.26990187981E+03 -0.10229457290E+04  0.10760388664E+04  0.00000000000E+00 0.  1.
         -4    1    1    2    0  502  0.15452225471E+03  0.89481825017E+02 -0.14304751552E+03  0.22879404692E+03  0.00000000000E+00 0.  1.
<scales pt_clust_5="13000.00000" pt_clust_6="13000.00000" pt_clust_7="13000.00000" pt_clust_8="13000.00000" pt_clust_9="195.98086" pt_clust_10="197.52761"></scales>
<clustering>
<clus scale="   91.053">  7  8 -1 -1</clus>
<clus scale="   91.781">  5  6 -1 -1</clus>
<clus scale="  124.457">  1  5  2 -1</clus>
<clus scale="  197.528">  2 10  1 -1</clus>
<clus scale="  195.981">  2  9  1 -1</clus>
<clus scale="  197.528">  2  5  1 -1</clus>
</clustering>
</event>
<event>
10    2  0.6640105E-006  0.1177195E+03  0.7546771E-02  0.1258756E+00
         21   -1    0    0  501  502  0.00000000000E+00  0.00000000000E+00  0.69905197966E+02  0.69905197966E+02  0.00000000000E+00 0.  1.
          2   -1    0    0  503    0 -0.00000000000E+00 -0.00000000000E+00 -0.44543100628E+03  0.44543100628E+03  0.00000000000E+00 0. -1.
         23    2    1    2    0    0 -0.60298941028E+01  0.16906168021E+02 -0.22327713404E+03  0.25236935623E+03  0.11625590410E+03 0.  0.
         23    2    1    2    0    0  0.28593461240E+02  0.27830690733E+01 -0.13269317584E+03  0.16352622575E+03  0.91148319202E+02 0.  0.
        -13    1    4    4    0    0 -0.21488305391E+02  0.23093349002E+02 -0.87714772147E+02  0.93214437131E+02  0.00000000000E+00 0. -1.
         13    1    4    4    0    0  0.50081766631E+02 -0.20310279929E+02 -0.44978403693E+02  0.70311788616E+02  0.00000000000E+00 0.  1.
        -13    1    3    3    0    0 -0.36530595530E+02  0.75358929795E+01 -0.21657749923E+03  0.21976598296E+03  0.00000000000E+00 0. -1.
         13    1    3    3    0    0  0.30500701427E+02  0.93702750410E+01 -0.66996348086E+01  0.32603373268E+02  0.00000000000E+00 0.  1.
         21    1    1    2  503  502  0.48462434435E+01 -0.39003036339E+02  0.22785833907E+02  0.45430354897E+02  0.00000000000E+00 0.  1.
          2    1    1    2  501    0 -0.27409810581E+02  0.19313799245E+02 -0.42341332337E+02  0.54010267371E+02  0.00000000000E+00 0. -1.
<scales pt_clust_5="13000.00000" pt_clust_6="13000.00000" pt_clust_7="13000.00000" pt_clust_8="13000.00000" pt_clust_9="30.32964" pt_clust_10="33.53091"></scales>
<clustering>
<clus scale="   33.531">  1 10  2 -1</clus>
<clus scale="   30.330">  1  9  2 -1</clus>
<clus scale="   91.148">  5  6 -1 -1</clus>
<clus scale="   93.008">  1  5  2 -1</clus>
<clus scale="  116.256">  7  8 -1 -1</clus>
<clus scale="   33.531">  1  5  2 -1</clus>
</clustering>
</event>
<event>
10    2  0.6640105E-006  0.1096194E+03  0.7546771E-02  0.1269221E+00
          3   -1    0    0  502    0 -0.00000000000E+00  0.00000000000E+00  0.38929378270E+03  0.38929378270E+03  0.00000000000E+00 0. -1.
         21   -1    0    0  503  502  0.00000000000E+00 -0.00000000000E+00 -0.10995024149E+03  0.10995024149E+03  0.00000000000E+00 0. -1.
         23    2    1    2    0    0 -0.26916947802E+01  0.17373182576E+02  0.21594666488E+03  0.23598167308E+03  0.93516390347E+02 0.  0.
         23    2    1    2    0    0  0.21693443568E+02  0.35294533959E+02  0.10357971543E+03  0.15617441509E+03  0.10929492605E+03 0.  0.
        -11    1    3    3    0    0  0.64866035247E+01 -0.37602801864E+02  0.10709507644E+03  0.11368993856E+03  0.00000000000E+00 0.  1.
         11    1    3    3    0    0 -0.91782983049E+01  0.54975984440E+02  0.10885158844E+03  0.12229173452E+03  0.00000000000E+00 0. -1.
        -11    1    4    4    0    0  0.64283035658E+02  0.29621282777E+02  0.46326625439E+02  0.84592465925E+02  0.00000000000E+00 0. -1.
         11    1    4    4    0    0 -0.42589592089E+02  0.56732511820E+01  0.57253089991E+02  0.71581949169E+02  0.00000000000E+00 0.  1.
         21    1    1    2  503  501 -0.27391121959E+01  0.20278757958E+02 -0.22250592078E+02  0.30229449346E+02  0.00000000000E+00 0. -1.
          3    1    1    2  501    0 -0.16262636592E+02 -0.72946474493E+02 -0.17932247024E+02  0.76858486670E+02  0.00000000000E+00 0. -1.
<scales pt_clust_5="13000.00000" pt_clust_6="13000.00000" pt_clust_7="13000.00000" pt_clust_8="13000.00000" pt_clust_9="20.46291" pt_clust_10="63.99424"></scales>
<clustering>
<clus scale="   20.463">  2  9  1 -1</clus>
<clus scale="   63.994">  2 10  1 -1</clus>
<clus scale="   93.516">  5  6 -1 -1</clus>
<clus scale="   93.895">  1  5  2 -1</clus>
<clus scale="  109.295">  7  8 -1 -1</clus>
<clus scale="   20.463">  2  5  1 -1</clus>
</clustering>
</event>
<event>
10    2  0.6707310E-006  0.1416562E+03  0.7546771E-02  0.1227750E+00
          2   -1    0    0  503    0 -0.00000000000E+00  0.00000000000E+00  0.31664342168E+03  0.31664342168E+03  0.00000000000E+00 0. -1.
         21   -1    0    0  501  502  0.00000000000E+00 -0.00000000000E+00 -0.28097737348E+03  0.28097737348E+03  0.00000000000E+00 0. -1.
         23    2    1    2    0    0 -0.35529319708E+02  0.48019202639E+02 -0.15369244005E+03  0.18867683963E+03  0.91702820585E+02 0.  0.
         23    2    1    2    0    0  0.34618157117E+00 -0.11931609003E+03  0.21085145039E+03  0.26014217142E+03  0.94758461581E+02 0.  0.
        -11    1    3    3    0    0  0.23069466694E+02  0.26535383303E+02 -0.18406056588E+02  0.39687652736E+02  0.00000000000E+00 0.  1.
         11    1    3    3    0    0 -0.58598786402E+02  0.21483819336E+02 -0.13528638346E+03  0.14898918689E+03  0.00000000000E+00 0. -1.
        -13    1    4    4    0    0  0.17559387356E+02 -0.37318508733E+02  0.98872285693E+01  0.42411796321E+02  0.00000000000E+00 0.  1.
         13    1    4    4    0    0 -0.17213205785E+02 -0.81997581298E+02  0.20096422182E+03  0.21773037510E+03  0.00000000000E+00 0. -1.
         21    1    1    2  503  502  0.66051070916E+01 -0.35089957784E+02 -0.14120845240E+02  0.38397016125E+02  0.00000000000E+00 0.  1.
          2    1    1    2  501    0  0.28578031045E+02  0.10638684518E+03 -0.73721168949E+01  0.11040476798E+03  0.00000000000E+00 0. -1.
<scales pt_clust_5="13000.00000" pt_clust_6="13000.00000" pt_clust_7="13000.00000" pt_clust_8="13000.00000" pt_clust_9="35.70620" pt_clust_10="105.29632"></scales>
<clustering>
<clus scale="   35.706">  2  9  1 -1</clus>
<clus scale="   91.703">  5  6 -1 -1</clus>
<clus scale="   94.758">  7  8 -1 -1</clus>
<clus scale="   99.866">  1  5  2 -1</clus>
<clus scale="  105.296">  2 10  1 -1</clus>
<clus scale="   35.706">  2  5  1 -1</clus>
</clustering>
</event>
<event>
10    2  0.6640105E-006  0.9616686E+02  0.7546771E-02  0.1288884E+00
         21   -1    0    0  501  502  0.00000000000E+00  0.00000000000E+00  0.15695741539E+03  0.15695741539E+03  0.00000000000E+00 0.  1.
          3   -1    0    0  503    0 -0.00000000000E+00 -0.00000000000E+00 -0.13626020355E+03  0.13626020355E+03  0.00000000000E+00 0. -1.
         23    2    1    2    0    0 -0.23821486171E+02  0.41425484764E+02 -0.37238689363E+02  0.11021399562E+03  0.92069923718E+02 0.  0.
         23    2    1    2    0    0 -0.22907380778E+02 -0.95929320443E+00  0.30721496692E+02  0.99186428777E+02  0.91479336229E+02 0.  0.
        -11    1    4    4    0    0 -0.49589718222E+02 -0.25719069720E+02  0.28514516034E+02  0.62719122485E+02  0.00000000000E+00 0. -1.
         11    1    4    4    0    0  0.26682337444E+02  0.24759776516E+02  0.22069806589E+01  0.36467306292E+02  0.00000000000E+00 0.  1.
        -11    1    3    3    0    0 -0.36346565774E+02  0.15014401542E+02 -0.60977224424E+02  0.72558438487E+02  0.00000000000E+00 0. -1.
         11    1    3    3    0    0  0.12525079603E+02  0.26411083221E+02  0.23738535062E+02  0.37655557131E+02  0.00000000000E+00 0.  1.
         21    1    1    2  503  502  0.36241769931E+02 -0.97826346833E+01  0.34046892601E+02  0.50678957417E+02  0.00000000000E+00 0.  1.
          3    1    1    2  501    0  0.10487097018E+02 -0.30683556876E+02 -0.68324880925E+01  0.33138237128E+02  0.00000000000E+00 0. -1.
<scales pt_clust_5="13000.00000" pt_clust_6="13000.00000" pt_clust_7="13000.00000" pt_clust_8="13000.00000" pt_clust_9="43.60265" pt_clust_10="32.42624"></scales>
<clustering>
<clus scale="   32.426">  1 10  2 -1</clus>
<clus scale="   43.603">  1  9  2 -1</clus>
<clus scale="   91.479">  5  6 -1 -1</clus>
<clus scale="   92.070">  7  8 -1 -1</clus>
<clus scale="   95.602">  1  5  2 -1</clus>
<clus scale="   32.426">  1  5  2 -1</clus>
</clustering>
</event>
<event>
10    2  0.6640105E-006  0.1092802E+03  0.7546771E-02  0.1262355E+00
          1   -1    0    0  503    0 -0.00000000000E+00  0.00000000000E+00  0.64206061448E+03  0.64206061448E+03  0.00000000000E+00 0. -1.
         21   -1    0    0  501  502  0.00000000000E+00 -0.00000000000E+00 -0.13820539093E+03  0.13820539093E+03  0.00000000000E+00 0. -1.
         23    2    1    2    0    0 -0.62340554707E+02  0.74750237503E+01  0.47834147890E+03  0.49074602835E+03  0.89882552058E+02 0.  0.
         23    2    1    2    0    0  0.58844609330E+02 -0.48090940473E+01  0.60886374277E+02  0.12273864140E+03  0.88723210539E+02 0.  0.
        -13    1    4    4    0    0  0.70670885219E+02 -0.31408926016E+02  0.46858909814E+02  0.90424842162E+02  0.00000000000E+00 0.  1.
         13    1    4    4    0    0 -0.11826275889E+02  0.26599831968E+02  0.14027464463E+02  0.32313799241E+02  0.00000000000E+00 0. -1.
        -13    1    3    3    0    0 -0.55796252398E+01 -0.35484315554E+02  0.21369847772E+03  0.21669635034E+03  0.00000000000E+00 0.  1.
         13    1    3    3    0    0 -0.56760929467E+02  0.42959339305E+02  0.26464300117E+03  0.27404967801E+03  0.00000000000E+00 0. -1.
         21    1    1    2  503  502 -0.28780938281E+02 -0.20419256553E+02 -0.92389683894E+02  0.98899656908E+02  0.00000000000E+00 0. -1.
          1    1    1    2  501    0  0.32276883658E+02  0.17753326850E+02  0.57017054271E+02  0.67881678756E+02  0.00000000000E+00 0. -1.
<scales pt_clust_5="13000.00000" pt_clust_6="13000.00000" pt_clust_7="13000.00000" pt_clust_8="13000.00000" pt_clust_9="35.28864" pt_clust_10="32.36645"></scales>
<clustering>
<clus scale="   35.289">  2  9  1 -1</clus>
<clus scale="   32.366">  2 10  1 -1</clus>
<clus scale="   88.723">  5  6 -1 -1</clus>
<clus scale="   89.883">  7  8 -1 -1</clus>
<clus scale="  108.329">  2  5  1 -1</clus>
<clus scale="   35.289">  2  5  1 -1</clus>
</clustering>
</event>
<event>
10    2  0.6640105E-006  0.9344104E+02  0.7546771E-02  0.1295266E+00
         21   -1    0    0  501  502  0.00000000000E+00  0.00000000000E+00  0.14946644806E+03  0.14946644806E+03  0.00000000000E+00 0. -1.
         -3   -1    0    0    0  501 -0.00000000000E+00 -0.00000000000E+00 -0.21641868442E+03  0.21641868442E+03  0.00000000000E+00 0.  1.
         23    2    1    2    0    0 -0.31586866865E+01  0.72891332094E+01 -0.84524105056E+02  0.12380997478E+03  0.90119236315E+02 0.  0.
         23    2    1    2    0    0  0.24446609867E+02 -0.28004139841E+02 -0.75974316790E+02  0.12429369802E+03  0.91076659876E+02 0.  0.
        -11    1    4    4    0    0 -0.18353166617E+02 -0.44240896723E+02 -0.57738780641E+02  0.75019080624E+02  0.00000000000E+00 0.  1.
         11    1    4    4    0    0  0.42799776485E+02  0.16236756881E+02 -0.18235536148E+02  0.49274617399E+02  0.00000000000E+00 0. -1.
        -11    1    3    3    0    0 -0.31966937153E+01 -0.25038249854E+02 -0.87762985513E+02  0.91320722909E+02  0.00000000000E+00 0.  1.
         11    1    3    3    0    0  0.38007028740E-01  0.32327383063E+02  0.32388804574E+01  0.32489251867E+02  0.00000000000E+00 0. -1.
         21    1    1    2  503  502  0.20023554794E+02 -0.76656775440E+01  0.28572914895E+02  0.35722777390E+02  0.00000000000E+00 0. -1.
         -3    1    1    2    0  503 -0.41311477975E+02  0.28380684176E+02  0.64973270593E+02  0.82058682285E+02  0.00000000000E+00 0.  1.
<scales pt_clust_5="13000.00000" pt_clust_6="13000.00000" pt_clust_7="13000.00000" pt_clust_8="13000.00000" pt_clust_9="21.44074" pt_clust_10="37.19204"></scales>
<clustering>
<clus scale="   21.441">  1  9  2 -1</clus>
<clus scale="   37.192">  1 10  2 -1</clus>
<clus scale="   90.119">  7  8 -1 -1</clus>
<clus scale="   91.077">  5  6 -1 -1</clus>
<clus scale="   92.508">  2  7  1 -1</clus>
<clus scale="   21.441">  1  5  2 -1</clus>
</clustering>
</event>
<event>
10    2  0.6640105E-006  0.1113353E+03  0.7546771E-02  0.1259408E+00
          2   -1    0    0  503    0 -0.00000000000E+00  0.00000000000E+00  0.11320455234E+04  0.11320455234E+04  0.00000000000E+00 0. -1.
         21   -1    0    0  501  502  0.00000000000E+00 -0.00000000000E+00 -0.90409834278E+02  0.90409834278E+02  0.00000000000E+00 0. -1.
         23    2    1    2    0    0  0.37178663041E+01  0.63814196840E+02  0.59091982659E+03  0.60157654200E+03  0.92854833886E+02 0.  0.
         23    2    1    2    0    0  0.50297239559E+02 -0.50876468096E+02  0.45674343217E+03  0.47089315600E+03  0.89485050311E+02 0.  0.
        -11    1    3    3    0    0 -0.82786473541E+01 -0.23334564599E+02  0.12983140659E+03  0.13217122245E+03  0.00000000000E+00 0.  1.
         11    1    3    3    0    0  0.11996513658E+02  0.87148761439E+02  0.46108842001E+03  0.46940531955E+03  0.00000000000E+00 0. -1.
        -11    1    4    4    0    0 -0.10672232267E+02 -0.38089136798E+02  0.82411332523E+02  0.91412836143E+02  0.00000000000E+00 0. -1.
         11    1    4    4    0    0  0.60969471826E+02 -0.12787331299E+02  0.37433209965E+03  0.37948031986E+03  0.00000000000E+00 0.  1.
         21    1    1    2  503  502  0.10114637271E+02  0.51555229357E+02 -0.23193003351E+02  0.57429634907E+02  0.00000000000E+00 0.  1.
          2    1    1    2  501    0 -0.64129743134E+02 -0.64492958100E+02  0.17165433664E+02  0.92556024719E+02  0.00000000000E+00 0. -1.
<scales pt_clust_5="13000.00000" pt_clust_6="13000.00000" pt_clust_7="13000.00000" pt_clust_8="13000.00000" pt_clust_9="52.53806" pt_clust_10="62.08863"></scales>
<clustering>
<clus scale="   52.538">  2  9  1 -1</clus>
<clus scale="   62.089">  2 10  1 -1</clus>
<clus scale="   89.485">  7  8 -1 -1</clus>
<clus scale="   92.855">  5  6 -1 -1</clus>
<clus scale="  108.541">  2  7  1 -1</clus>
<clus scale="   52.538">  2  5  1 -1</clus>
</clustering>
</event>
<event>
10    2  0.6640105E-006  0.9605776E+02  0.7546771E-02  0.1289594E+00
         -2   -1    0    0    0  501 -0.00000000000E+00  0.00000000000E+00  0.53769931842E+03  0.53769931842E+03  0.00000000000E+00 0.  1.
         21   -1    0    0  503  502  0.00000000000E+00 -0.00000000000E+00 -0.14725929692E+03  0.14725929692E+03  0.00000000000E+00 0. -1.
         23    2    1    2    0    0 -0.18478861222E+02  0.65520598057E+00  0.29243246296E+03  0.30677888212E+03  0.90855046726E+02 0.  0.
         23    2    1    2    0    0  0.63560462552E+02 -0.26528442897E+02  0.13722856686E+03  0.17766022080E+03  0.89374402425E+02 0.  0.
        -11    1    3    3    0    0 -0.46564379294E+02 -0.15325900261E+02  0.24175909374E+03  0.24667911149E+03  0.00000000000E+00 0.  1.
         11    1    3    3    0    0  0.28085518072E+02  0.15981106242E+02  0.50673369214E+02  0.60099770628E+02  0.00000000000E+00 0. -1.
        -13    1    4    4    0    0  0.55017152098E+00 -0.20201102741E+02  0.10438424183E+03  0.10632242089E+03  0.00000000000E+00 0.  1.
         13    1    4    4    0    0  0.63010291031E+02 -0.63273401564E+01  0.32844325027E+02  0.71337799908E+02  0.00000000000E+00 0. -1.
         21    1    1    2  503  501 -0.87052634381E+02  0.69900375500E+02 -0.70582175961E+02  0.13208356147E+03  0.00000000000E+00 0. -1.
         -2    1    1    2    0  502  0.41971033050E+02 -0.44027138583E+02  0.31361167646E+02  0.68435950956E+02  0.00000000000E+00 0.  1.
<scales pt_clust_5="13000.00000" pt_clust_6="13000.00000" pt_clust_7="13000.00000" pt_clust_8="13000.00000" pt_clust_9="64.49221" pt_clust_10="60.82727"></scales>
<clustering>
<clus scale="   60.827">  2 10  1 -1</clus>
<clus scale="   64.492">  2  9  1 -1</clus>
<clus scale="   89.374">  7  8 -1 -1</clus>
<clus scale="   90.855">  5  6 -1 -1</clus>
<clus scale="   94.659">  2  7  1 -1</clus>
<clus scale="   60.827">  2  5  1 -1</clus>
</clustering>
</event>
<event>
10    2  0.6640105E-006  0.1262817E+03  0.7546771E-02  0.1234630E+00
          1   -1    0    0  502    0 -0.00000000000E+00  0.00000000000E+00  0.24933969900E+03  0.24933969900E+03  0.00000000000E+00 0. -1.
         21   -1    0    0  503  502  0.00000000000E+00 -0.00000000000E+00 -0.19031393771E+03  0.19031393771E+03  0.00000000000E+00 0.  1.
         23    2    1    2    0    0 -0.10525154874E+03  0.19354844820E+01  0.10818209825E+03  0.17893866966E+03  0.96093946247E+02 0.  0.
         23    2    1    2    0    0  0.52071024355E+02  0.41309474198E+01  0.15304601212E+02  0.10589457731E+03  0.90834874262E+02 0.  0.
        -11    1    3    3    0    0 -0.92606165459E+02  0.24470754348E+02  0.11738719638E+03  0.15150733834E+03  0.00000000000E+00 0. -1.
         11    1    3    3    0    0 -0.12645383284E+02 -0.22535269866E+02 -0.92050981244E+01  0.27431331317E+02  0.00000000000E+00 0.  1.
        -13    1    4    4    0    0  0.41526316067E+02 -0.41043643517E+02  0.91387753843E+01  0.59097654901E+02  0.00000000000E+00 0.  1.
         13    1    4    4    0    0  0.10544708288E+02  0.45174590937E+02  0.61658258279E+01  0.46796922413E+02  0.00000000000E+00 0. -1.
         21    1    1    2  503  501  0.21631660913E+02 -0.22115879485E+02 -0.99991196963E+02  0.10466747513E+03  0.00000000000E+00 0.  1.
          1    1    1    2  501    0  0.31548863475E+02  0.16049447583E+02  0.35530258786E+02  0.50152914608E+02  0.00000000000E+00 0. -1.
<scales pt_clust_5="13000.00000" pt_clust_6="13000.00000" pt_clust_7="13000.00000" pt_clust_8="13000.00000" pt_clust_9="30.93608" pt_clust_10="36.24853"></scales>
<clustering>
<clus scale="   30.936">  2  9  1 -1</clus>
<clus scale="   36.249">  2 10  1 -1</clus>
<clus scale="   90.835">  7  8 -1 -1</clus>
<clus scale="   96.094">  5  6 -1 -1</clus>
<clus scale="  122.327">  2  7  1 -1</clus>
<clus scale="   30.936">  2  5  1 -1</clus>
</clustering>
</event>
<event>
10    2  0.6640105E-006  0.1053777E+03  0.7546771E-02  0.1270057E+00
         21   -1    0    0  501  502  0.00000000000E+00  0.00000000000E+00  0.47243757956E+03  0.47243757956E+03  0.00000000000E+00 0.  1.
         -2   -1    0    0    0  501 -0.00000000000E+00 -0.00000000000E+00 -0.98413227414E+02  0.98413227414E+02  0.00000000000E+00 0.  1.
         23    2    1    2    0    0 -0.44066412332E+02  0.22011745506E+02 -0.28689156082E+02  0.10656535011E+03  0.90037439609E+02 0.  0.
         23    2    1    2    0    0  0.56372084182E+02 -0.41505026295E+02  0.22445946173E+03  0.25234382096E+03  0.91623550098E+02 0.  0.
        -11    1    3    3    0    0 -0.55959091412E+02  0.24364880140E+01  0.14340994231E+02  0.57818859389E+02  0.00000000000E+00 0. -1.
         11    1    3    3    0    0  0.11892679080E+02  0.19575257492E+02 -0.43030150314E+02  0.48746490721E+02  0.00000000000E+00 0.  1.
        -13    1    4    4    0    0  0.43758183059E+02  0.21864031199E+02  0.11904691006E+03  0.12870501638E+03  0.00000000000E+00 0. -1.
         13    1    4    4    0    0  0.12613901123E+02 -0.63369057494E+02  0.10541255166E+03  0.12363880458E+03  0.00000000000E+00 0.  1.
         21    1    1    2  503  502 -0.45062601835E+02 -0.27911955873E+02  0.11346490702E+03  0.12523577959E+03  0.00000000000E+00 0.  1.
         -2    1    1    2    0  503  0.32756929985E+02  0.47405236662E+02  0.64789139484E+02  0.86705856320E+02  0.00000000000E+00 0.  1.
<scales pt_clust_5="13000.00000" pt_clust_6="13000.00000" pt_clust_7="13000.00000" pt_clust_8="13000.00000" pt_clust_9="53.00675" pt_clust_10="47.41864"></scales>
<clustering>
<clus scale="   53.007">  1  9  2 -1</clus>
<clus scale="   47.419">  1 10  2 -1</clus>
<clus scale="   90.037">  5  6 -1 -1</clus>
<clus scale="   91.624">  7  8 -1 -1</clus>
<clus scale="  104.002">  2  5  1 -1</clus>
<clus scale="   53.007">  1  5  2 -1</clus>
</clustering>
</event>
<event>
10    2  0.6640105E-006  0.1907108E+03  0.7546771E-02  0.1184990E+00
         21   -1    0    0  503  502  0.00000000000E+00  0.00000000000E+00  0.48727317537E+02  0.48727317537E+02  0.00000000000E+00 0. -1.
          2   -1    0    0  502    0 -0.00000000000E+00 -0.00000000000E+00 -0.16202595242E+04  0.16202595242E+04  0.00000000000E+00 0. -1.
         23    2    1    2    0    0  0.54450353831E+02 -0.13354729393E+02 -0.33986593513E+03  0.35640551842E+03  0.91503277935E+02 0.  0.
         23    2    1    2    0    0 -0.11313484051E+02  0.16558181097E+03 -0.63962121403E+03  0.66611316202E+03  0.83941146782E+02 0.  0.
        -11    1    4    4    0    0 -0.25064648279E+02  0.59058595533E+02 -0.12613530761E+03  0.14151420468E+03  0.00000000000E+00 0.  1.
         11    1    4    4    0    0  0.13751164228E+02  0.10652321544E+03 -0.51348590642E+03  0.52459895734E+03  0.00000000000E+00 0. -1.
        -11    1    3    3    0    0  0.37093863703E+02  0.36977359243E+02 -0.13703162188E+03  0.14670018820E+03  0.00000000000E+00 0. -1.
         11    1    3    3    0    0  0.17356490127E+02 -0.50332088636E+02 -0.20283431324E+03  0.20970533023E+03  0.00000000000E+00 0.  1.
         21    1    1    2  503  501 -0.36703853517E+02  0.26108262697E+02 -0.23969208416E+02  0.51022908543E+02  0.00000000000E+00 0. -1.
          2    1    1    2  501    0 -0.64330162628E+01 -0.17833534427E+03 -0.56807584912E+03  0.59544525279E+03  0.00000000000E+00 0. -1.
<scales pt_clust_5="13000.00000" pt_clust_6="13000.00000" pt_clust_7="13000.00000" pt_clust_8="13000.00000" pt_clust_9="45.04236" pt_clust_10="171.24391"></scales>
<clustering>
<clus scale="   45.042">  1  9  2 -1</clus>
<clus scale="   83.941">  5  6 -1 -1</clus>
<clus scale="   91.503">  7  8 -1 -1</clus>
<clus scale="  102.592">  2  7  1 -1</clus>
<clus scale="  171.244">  1 10  2 -1</clus>
<clus scale="   45.042">  1  5  2 -1</clus>
</clustering>
</event>
<event>
10    2  0.6640105E-006  0.1585315E+03  0.7546771E-02  0.1190665E+00
          2   -1    0    0  502    0 -0.00000000000E+00  0.00000000000E+00  0.52462788809E+03  0.52462788809E+03  0.00000000000E+00 0. -1.
         21   -1    0    0  503  502  0.00000000000E+00 -0.00000000000E+00 -0.45989263861E+03  0.45989263861E+03  0.00000000000E+00 0.  1.
         23    2    1    2    0    0 -0.10390628272E-01  0.11019693707E+03  0.20353202973E+03  0.24943005780E+03  0.92987641984E+02 0.  0.
         23    2    1    2    0    0  0.60784864261E+02 -0.14441585847E+03  0.26086169497E+03  0.31767249512E+03  0.91193477573E+02 0.  0.
        -11    1    4    4    0    0  0.77110388760E+02 -0.11399093458E+03  0.24182746743E+03  0.27824533999E+03  0.00000000000E+00 0. -1.
         11    1    4    4    0    0 -0.16325524499E+02 -0.30424923884E+02  0.19034227540E+02  0.39427155129E+02  0.00000000000E+00 0.  1.
        -13    1    3    3    0    0 -0.41573557594E+02  0.36085294183E+02  0.52141253848E+02  0.75823607802E+02  0.00000000000E+00 0. -1.
         13    1    3    3    0    0  0.41563166965E+02  0.74111642890E+02  0.15139077588E+03  0.17360645000E+03  0.00000000000E+00 0.  1.
         21    1    1    2  503  501  0.12835430449E+02  0.34639814517E+02 -0.22296169845E+03  0.22600129204E+03  0.00000000000E+00 0.  1.
          2    1    1    2  501    0 -0.73609904082E+02 -0.42089312491E+00 -0.17669677677E+03  0.19141668174E+03  0.00000000000E+00 0. -1.
<scales pt_clust_5="13000.00000" pt_clust_6="13000.00000" pt_clust_7="13000.00000" pt_clust_8="13000.00000" pt_clust_9="36.94137" pt_clust_10="68.93907"></scales>
<clustering>
<clus scale="   36.941">  2  9  1 -1</clus>
<clus scale="   68.939">  2 10  1 -1</clus>
<clus scale="   91.193">  5  6 -1 -1</clus>
<clus scale="   92.988">  7  8 -1 -1</clus>
<clus scale="  157.486">  2  5  1 -1</clus>
<clus scale="   36.941">  2  5  1 -1</clus>
</clustering>
</event>
<event>
10    2  0.6640105E-006  0.3587100E+03  0.7546771E-02  0.1092104E+00
          1   -1    0    0  502    0 -0.00000000000E+00  0.00000000000E+00  0.47176006988E+03  0.47176006988E+03  0.00000000000E+00 0. -1.
         21   -1    0    0  503  502  0.00000000000E+00 -0.00000000000E+00 -0.95275103449E+03  0.95275103449E+03  0.00000000000E+00 0.  1.
         23    2    1    2    0    0  0.10135790642E+03 -0.41615297955E+02  0.33793857488E+02  0.14649974521E+03  0.91186031422E+02 0.  0.
         23    2    1    2    0    0 -0.26471674213E+03  0.31988519646E+03 -0.46108932293E+03  0.62688014069E+03  0.89296442185E+02 0.  0.
        -11    1    4    4    0    0 -0.16508119224E+03  0.23085098636E+03 -0.25660590187E+03  0.38261020218E+03  0.00000000000E+00 0.  1.
         11    1    4    4    0    0 -0.99635549893E+02  0.89034210095E+02 -0.20448342106E+03  0.24426993851E+03  0.00000000000E+00 0. -1.
        -13    1    3    3    0    0  0.95382374539E+01 -0.35540650671E+02  0.39898448327E+02  0.54277085430E+02  0.00000000000E+00 0. -1.
         13    1    3    3    0    0  0.91819668965E+02 -0.60746472843E+01 -0.61045908395E+01  0.92222659785E+02  0.00000000000E+00 0.  1.
         21    1    1    2  503  501  0.43995292761E+02 -0.41680686600E+02 -0.28988709802E+03  0.29615434324E+03  0.00000000000E+00 0.  1.
          1    1    1    2  501    0  0.11936354295E+03 -0.23658921190E+03  0.23619159886E+03  0.35497687523E+03  0.00000000000E+00 0. -1.
<scales pt_clust_5="13000.00000" pt_clust_6="13000.00000" pt_clust_7="13000.00000" pt_clust_8="13000.00000" pt_clust_9="60.60417" pt_clust_10="347.41782"></scales>
<clustering>
<clus scale="   60.604">  2  9  1 -1</clus>
<clus scale="   89.296">  5  6 -1 -1</clus>
<clus scale="   91.186">  7  8 -1 -1</clus>
<clus scale="  146.305">  1  7  2 -1</clus>
<clus scale="  347.418">  2 10  1 -1</clus>
<clus scale="   60.604">  2  5  1 -1</clus>
</clustering>
</event>
<event>
10    2  0.6640105E-006  0.1021742E+03  0.7546771E-02  0.1276084E+00
          4   -1    0    0  503    0 -0.00000000000E+00  0.00000000000E+00  0.20652003593E+03  0.20652003593E+03  0.00000000000E+00 0. -1.
         21   -1    0    0  501  502  0.00000000000E+00 -0.00000000000E+00 -0.16889725769E+03  0.16889725769E+03  0.00000000000E+00 0.  1.
         23    2    1    2    0    0 -0.63188238522E+02  0.12173217674E+01  0.90995168302E+02  0.14383371872E+03  0.91726673482E+02 0.  0.
         23    2    1    2    0    0  0.65228053811E+01 -0.20866845265E+02 -0.11591106256E+02  0.94386919359E+02  0.91085479526E+02 0.  0.
        -11    1    4    4    0    0  0.38525455105E+02 -0.25187918664E+02 -0.32113860232E+02  0.56124343708E+02  0.00000000000E+00 0.  1.
         11    1    4    4    0    0 -0.32002649724E+02  0.43210733996E+01  0.20522753976E+02  0.38262575651E+02  0.00000000000E+00 0. -1.
        -13    1    3    3    0    0 -0.57817748821E+02 -0.32756921314E+02  0.86599933528E+02  0.10915794272E+03  0.00000000000E+00 0.  1.
         13    1    3    3    0    0 -0.53704897013E+01  0.33974243081E+02  0.43952347739E+01  0.34675776001E+02  0.00000000000E+00 0. -1.
         21    1    1    2  503  502  0.10849167713E+02 -0.42412421293E+02 -0.41106521581E+02  0.60052177617E+02  0.00000000000E+00 0.  1.
          4    1    1    2  501    0  0.45816265428E+02  0.62061944791E+02 -0.67476223128E+00  0.77144477917E+02  0.00000000000E+00 0. -1.
<scales pt_clust_5="13000.00000" pt_clust_6="13000.00000" pt_clust_7="13000.00000" pt_clust_8="13000.00000" pt_clust_9="43.77805" pt_clust_10="68.94765"></scales>
<clustering>
<clus scale="   43.778">  2  9  1 -1</clus>
<clus scale="   68.948">  2 10  1 -1</clus>
<clus scale="   91.085">  5  6 -1 -1</clus>
<clus scale="   91.727">  7  8 -1 -1</clus>
<clus scale="  101.599">  2  5  1 -1</clus>
<clus scale="   43.778">  2  5  1 -1</clus>
</clustering>
</event>
<event>
10    2  0.6640105E-006  0.1598600E+03  0.7546771E-02  0.1209716E+00
          2   -1    0    0  503    0 -0.00000000000E+00  0.00000000000E+00  0.40318751115E+03  0.40318751115E+03  0.00000000000E+00 0. -1.
         21   -1    0    0  501  502  0.00000000000E+00 -0.00000000000E+00 -0.39941055138E+03  0.39941055138E+03  0.00000000000E+00 0. -1.
         23    2    1    2    0    0 -0.27334559474E+02  0.34319643671E+02  0.16544645769E+03  0.19351320778E+03  0.90276326577E+02 0.  0.
         23    2    1    2    0    0 -0.97302490593E+02 -0.35470491017E+02  0.12506921527E+03  0.18594874347E+03  0.90601855290E+02 0.  0.
        -11    1    4    4    0    0 -0.27013326490E+02 -0.56180793864E+02  0.73334654982E+02  0.96249535212E+02  0.00000000000E+00 0.  1.
         11    1    4    4    0    0 -0.70289164103E+02  0.20710302847E+02  0.51734560289E+02  0.89699208260E+02  0.00000000000E+00 0. -1.
        -13    1    3    3    0    0 -0.99065137882E+01  0.57894837301E+02  0.59588454459E+02  0.83670395639E+02  0.00000000000E+00 0.  1.
         13    1    3    3    0    0 -0.17428045685E+02 -0.23575193631E+02  0.10585800323E+03  0.10984281214E+03  0.00000000000E+00 0. -1.
         21    1    1    2  503  502 -0.92066257430E+02 -0.12867474635E+01 -0.62474051098E+02  0.11126930636E+03  0.00000000000E+00 0. -1.
          2    1    1    2  501    0  0.21670330750E+03  0.24375948097E+01 -0.22426466209E+03  0.31186680492E+03  0.00000000000E+00 0. -1.
<scales pt_clust_5="13000.00000" pt_clust_6="13000.00000" pt_clust_7="13000.00000" pt_clust_8="13000.00000" pt_clust_9="92.07525" pt_clust_10="131.70619"></scales>
<clustering>
<clus scale="   90.276">  7  8 -1 -1</clus>
<clus scale="   90.602">  5  6 -1 -1</clus>
<clus scale="   92.075">  2  9  1 -1</clus>
<clus scale="  101.558">  1  7  2 -1</clus>
<clus scale="  131.706">  2 10  1 -1</clus>
<clus scale="   92.075">  2  5  1 -1</clus>
</clustering>
</event>
<event>
10    2  0.6640105E-006  0.1077329E+03  0.7546771E-02  0.1265519E+00
          2   -1    0    0  503    0 -0.00000000000E+00  0.00000000000E+00  0.28338575993E+03  0.28338575993E+03  0.00000000000E+00 0. -1.
         21   -1    0    0  501  502  0.00000000000E+00 -0.00000000000E+00 -0.22160000286E+03  0.22160000286E+03  0.00000000000E+00 0. -1.
         23    2    1    2    0    0  0.29191091593E+02  0.47448492085E+02  0.13380333127E+03  0.17126003507E+03  0.91231512775E+02 0.  0.
         23    2    1    2    0    0  0.13093732789E+02 -0.76962849319E+02 -0.24137184833E+02  0.12120792228E+03  0.89521118836E+02 0.  0.
        -13    1    4    4    0    0 -0.40671183213E+01 -0.49352802663E+02  0.30117395494E+02  0.57959452149E+02  0.00000000000E+00 0.  1.
         13    1    4    4    0    0  0.17160851110E+02 -0.27610046657E+02 -0.54254580327E+02  0.63248470129E+02  0.00000000000E+00 0. -1.
        -13    1    3    3    0    0  0.12141273851E+02  0.61630008518E+02  0.13515843615E+03  0.14904184427E+03  0.00000000000E+00 0. -1.
         13    1    3    3    0    0  0.17049817742E+02 -0.14181516433E+02 -0.13551048746E+01  0.22218190804E+02  0.00000000000E+00 0.  1.
         21    1    1    2  503  502  0.53222484760E+02 -0.44143600911E+02 -0.59667317107E+02  0.91331698310E+02  0.00000000000E+00 0. -1.
          2    1    1    2  501    0 -0.95507309142E+02  0.73657958146E+02  0.11786927739E+02  0.12118610714E+03  0.00000000000E+00 0. -1.
<scales pt_clust_5="13000.00000" pt_clust_6="13000.00000" pt_clust_7="13000.00000" pt_clust_8="13000.00000" pt_clust_9="69.14688" pt_clust_10="94.74388"></scales>
<clustering>
<clus scale="   69.147">  2  9  1 -1</clus>
<clus scale="   89.521">  5  6 -1 -1</clus>
<clus scale="   91.232">  7  8 -1 -1</clus>
<clus scale="   94.744">  2 10  1 -1</clus>
<clus scale="  106.288">  2  5  1 -1</clus>
<clus scale="   69.147">  2  5  1 -1</clus>
</clustering>
</event>
<event>
10    2  0.6640105E-006  0.1060870E+03  0.7546771E-02  0.1268575E+00
         -4   -1    0    0    0  501 -0.00000000000E+00  0.00000000000E+00  0.37604954148E+03  0.37604954148E+03  0.00000000000E+00 0.  1.
         21   -1    0    0  503  502  0.00000000000E+00 -0.00000000000E+00 -0.15226979047E+03  0.15226979047E+03  0.00000000000E+00 0.  1.
         23    2    1    2    0    0 -0.10517863515E+02 -0.64638451299E+02  0.27994139709E+03  0.30205098077E+03  0.92622105031E+02 0.  0.
         23    2    1    2    0    0  0.38335218305E+02 -0.32636367527E+02 -0.15152374789E+02  0.10531842499E+03  0.91255984636E+02 0.  0.
        -13    1    3    3    0    0 -0.27798051918E+02 -0.80980252137E+02  0.24702007782E+03  0.26143728076E+03  0.00000000000E+00 0.  1.
         13    1    3    3    0    0  0.17280188403E+02  0.16341800838E+02  0.32921319274E+02  0.40613700011E+02  0.00000000000E+00 0. -1.
        -13    1    4    4    0    0  0.19834037116E+02 -0.63965955563E+02 -0.32984347711E+01  0.67051563527E+02  0.00000000000E+00 0.  1.
         13    1    4    4    0    0  0.18501181189E+02  0.31329588037E+02 -0.11853940018E+02  0.38266861459E+02  0.00000000000E+00 0. -1.
         21    1    1    2  503  501 -0.26024488489E+02  0.15005255619E+02 -0.19775890572E+02  0.35965504935E+02  0.00000000000E+00 0.  1.
         -4    1    1    2    0  502 -0.17928663012E+01  0.82269563206E+02 -0.21233380721E+02  0.84984421258E+02  0.00000000000E+00 0.  1.
<scales pt_clust_5="13000.00000" pt_clust_6="13000.00000" pt_clust_7="13000.00000" pt_clust_8="13000.00000" pt_clust_9="30.04050" pt_clust_10="89.60953"></scales>
<clustering>
<clus scale="   30.041">  2  9  1 -1</clus>
<clus scale="   89.610">  2 10  1 -1</clus>
<clus scale="   91.256">  7  8 -1 -1</clus>
<clus scale="   92.622">  5  6 -1 -1</clus>
<clus scale="  104.896">  2  7  1 -1</clus>
<clus scale="   30.041">  2  5  1 -1</clus>
</clustering>
</event>
<event>
10    2  0.6640105E-006  0.1019975E+03  0.7546771E-02  0.1276870E+00
          1   -1    0    0  503    0 -0.00000000000E+00  0.00000000000E+00  0.82448497855E+02  0.82448497855E+02  0.00000000000E+00 0. -1.
         21   -1    0    0  501  502  0.00000000000E+00 -0.00000000000E+00 -0.32653796463E+03  0.32653796463E+03  0.00000000000E+00 0. -1.
         23    2    1    2    0    0  0.42075281092E+02 -0.11185030869E+01  0.12698928418E+02  0.10174950904E+03  0.91761209006E+02 0.  0.
         23    2    1    2    0    0 -0.56558664164E+02 -0.38527782227E+01 -0.20469345100E+03  0.23076086719E+03  0.90207774327E+02 0.  0.
        -11    1    3    3    0    0 -0.15455670474E+01 -0.40996726268E+02  0.11611789645E+02  0.42637471793E+02  0.00000000000E+00 0.  1.
         11    1    3    3    0    0  0.43620848140E+02  0.39878223181E+02  0.10871387734E+01  0.59112037244E+02  0.00000000000E+00 0. -1.
        -11    1    4    4    0    0 -0.44493535540E+02  0.27160635574E+02 -0.18475301790E+03  0.19196627946E+03  0.00000000000E+00 0. -1.
         11    1    4    4    0    0 -0.12065128624E+02 -0.31013413796E+02 -0.19940433106E+02  0.38794587722E+02  0.00000000000E+00 0.  1.
         21    1    1    2  503  502  0.19438329239E+02  0.26010591884E+02 -0.40621287717E+02  0.52004697380E+02  0.00000000000E+00 0. -1.
          1    1    1    2  501    0 -0.49549461675E+01 -0.21039310574E+02 -0.11473656473E+02  0.24471388882E+02  0.00000000000E+00 0. -1.
<scales pt_clust_5="13000.00000" pt_clust_6="13000.00000" pt_clust_7="13000.00000" pt_clust_8="13000.00000" pt_clust_9="29.52522" pt_clust_10="21.61491"></scales>
<clustering>
<clus scale="   21.615">  2 10  1 -1</clus>
<clus scale="   29.525">  2  9  1 -1</clus>
<clus scale="   90.208">  7  8 -1 -1</clus>
<clus scale="   91.761">  5  6 -1 -1</clus>
<clus scale="  100.602">  2  7  1 -1</clus>
<clus scale="   21.615">  2  5  1 -1</clus>
</clustering>
</event>
<event>
10    2  0.6640105E-006  0.1081401E+03  0.7546771E-02  0.1264166E+00
         21   -1    0    0  501  502  0.00000000000E+00  0.00000000000E+00  0.13623149227E+03  0.13623149227E+03  0.00000000000E+00 0.  1.
         -1   -1    0    0    0  501 -0.00000000000E+00 -0.00000000000E+00 -0.44129611816E+03  0.44129611816E+03  0.00000000000E+00 0.  1.
         23    2    1    2    0    0 -0.38416824245E+02 -0.82572978520E+01 -0.17311057883E+03  0.19966121097E+03  0.91396341897E+02 0.  0.
         23    2    1    2    0    0  0.69596888241E+02  0.38663370951E+02 -0.23310051814E+03  0.26263345243E+03  0.91114739048E+02 0.  0.
        -11    1    3    3    0    0 -0.62913316181E+02 -0.10686861461E+02 -0.74833899365E+02  0.98348395284E+02  0.00000000000E+00 0. -1.
         11    1    3    3    0    0  0.24496491937E+02  0.24295636086E+01 -0.98276679461E+02  0.10131281569E+03  0.00000000000E+00 0.  1.
        -13    1    4    4    0    0  0.38893063577E+01 -0.27378585866E+02 -0.59617352083E+02  0.65718660496E+02  0.00000000000E+00 0. -1.
         13    1    4    4    0    0  0.65707581883E+02  0.66041956817E+02 -0.17348316606E+03  0.19691479194E+03  0.00000000000E+00 0.  1.
         21    1    1    2  503  502 -0.55753313377E+01 -0.23390895283E+02  0.71508231111E+02  0.75442994495E+02  0.00000000000E+00 0.  1.
         -1    1    1    2    0  503 -0.25604732659E+02 -0.70151778158E+01  0.29638239967E+02  0.39789952534E+02  0.00000000000E+00 0.  1.
<scales pt_clust_5="13000.00000" pt_clust_6="13000.00000" pt_clust_7="13000.00000" pt_clust_8="13000.00000" pt_clust_9="24.04617" pt_clust_10="34.94586"></scales>
<clustering>
<clus scale="   24.046">  1  9  2 -1</clus>
<clus scale="   34.946">  1 10  2 -1</clus>
<clus scale="   91.115">  7  8 -1 -1</clus>
<clus scale="   91.396">  5  6 -1 -1</clus>
<clus scale="  107.902">  1  7  2 -1</clus>
<clus scale="   24.046">  1  5  2 -1</clus>
</clustering>
</event>
<event>
10    2  0.6640105E-006  0.1185444E+03  0.7546771E-02  0.1245708E+00
         21   -1    0    0  503  502  0.00000000000E+00  0.00000000000E+00  0.49926155377E+03  0.49926155377E+03  0.00000000000E+00 0.  1.
         -1   -1    0    0    0  501 -0.00000000000E+00 -0.00000000000E+00 -0.39921160036E+03  0.39921160036E+03  0.00000000000E+00 0.  1.
         23    2    1    2    0    0 -0.74199144926E+02  0.40717634221E+02 -0.30457889312E+03  0.32911842026E+03  0.91581622474E+02 0.  0.
         23    2    1    2    0    0  0.30238838836E+02 -0.32342869907E+02 -0.16247840614E+02  0.10249171586E+03  0.90995114640E+02 0.  0.
        -11    1    4    4    0    0  0.17306098967E+02  0.29228400548E+02  0.82841554946E+01  0.34963233436E+02  0.00000000000E+00 0. -1.
         11    1    4    4    0    0  0.12932739869E+02 -0.61571270455E+02 -0.24531996108E+02  0.67528482428E+02  0.00000000000E+00 0.  1.
        -13    1    3    3    0    0 -0.21459565800E+02 -0.27278147308E+02 -0.54156754828E+02  0.64323902077E+02  0.00000000000E+00 0. -1.
         13    1    3    3    0    0 -0.52739579126E+02  0.67995781530E+02 -0.25042213829E+03  0.26479451818E+03  0.00000000000E+00 0.  1.
         21    1    1    2  503  501  0.63834134581E+02 -0.76287501066E+02  0.36009425056E+03  0.37358057878E+03  0.00000000000E+00 0.  1.
         -1    1    1    2    0  502 -0.19873828491E+02  0.67912736751E+02  0.60782436583E+02  0.93282439231E+02  0.00000000000E+00 0.  1.
<scales pt_clust_5="13000.00000" pt_clust_6="13000.00000" pt_clust_7="13000.00000" pt_clust_8="13000.00000" pt_clust_9="49.67169" pt_clust_10="70.76093"></scales>
<clustering>
<clus scale="   70.761">  1 10  2 -1</clus>
<clus scale="   49.672">  1  9  2 -1</clus>
<clus scale="   90.995">  5  6 -1 -1</clus>
<clus scale="   91.582">  7  8 -1 -1</clus>
<clus scale="  118.092">  1  5  2 -1</clus>
<clus scale="   70.761">  1  5  2 -1</clus>
</clustering>
</event>
<event>
10    2  0.6640105E-006  0.2225734E+03  0.7546771E-02  0.1132400E+00
          2   -1    0    0  502    0 -0.00000000000E+00  0.00000000000E+00  0.94975025883E+03  0.94975025883E+03  0.00000000000E+00 0. -1.
         21   -1    0    0  503  502  0.00000000000E+00 -0.00000000000E+00 -0.31338725758E+03  0.31338725758E+03  0.00000000000E+00 0. -1.
         23    2    1    2    0    0  0.19916817484E+03 -0.23660855562E+02 -0.33946973924E-01  0.22029299444E+03  0.91110944960E+02 0.  0.
         23    2    1    2    0    0 -0.14776317080E+03  0.21617683108E+03  0.74350389977E+03  0.79490174881E+03  0.10249080130E+03 0.  0.
        -13    1    3    3    0    0  0.50694894813E+02  0.13237993581E+02 -0.35445935731E+02  0.63258447610E+02  0.00000000000E+00 0.  1.
         13    1    3    3    0    0  0.14847328003E+03 -0.36898849143E+02  0.35411988757E+02  0.15703454683E+03  0.00000000000E+00 0. -1.
        -13    1    4    4    0    0 -0.37281885373E+02  0.52449967138E+01  0.57329198872E+02  0.68586339827E+02  0.00000000000E+00 0.  1.
         13    1    4    4    0    0 -0.11048128543E+03  0.21093183437E+03  0.68617470090E+03  0.72631540898E+03  0.00000000000E+00 0. -1.
         21    1    1    2  503  501 -0.59078512357E+02 -0.62349817771E+02 -0.12396468285E+02  0.86783885741E+02  0.00000000000E+00 0. -1.
          2    1    1    2  501    0  0.76735083126E+01 -0.13016615775E+03 -0.94710483261E+02  0.16115888741E+03  0.00000000000E+00 0. -1.
<scales pt_clust_5="13000.00000" pt_clust_6="13000.00000" pt_clust_7="13000.00000" pt_clust_8="13000.00000" pt_clust_9="82.36635" pt_clust_10="222.11124"></scales>
<clustering>
<clus scale="   82.366">  9 10 -1 -1</clus>
<clus scale="   91.111">  5  6 -1 -1</clus>
<clus scale="  102.491">  7  8 -1 -1</clus>
<clus scale="  220.293">  1  5  2 -1</clus>
<clus scale="  222.111">  2  9  1 -1</clus>
<clus scale="  222.111">  2  5  1 -1</clus>
</clustering>
</event>
<event>
10    2  0.6640105E-006  0.2069204E+03  0.7546771E-02  0.1173598E+00
         21   -1    0    0  503  502  0.00000000000E+00  0.00000000000E+00  0.42134430187E+03  0.42134430187E+03  0.00000000000E+00 0. -1.
          2   -1    0    0  502    0 -0.00000000000E+00 -0.00000000000E+00 -0.18643067765E+03  0.18643067765E+03  0.00000000000E+00 0. -1.
         23    2    1    2    0    0  0.22633124600E+02 -0.41732893757E+02 -0.29004481145E+02  0.10777211354E+03  0.92302089790E+02 0.  0.
         23    2    1    2    0    0  0.92824483386E+02  0.17876856176E+03  0.78937771184E+02  0.23482430506E+03  0.91305526325E+02 0.  0.
        -11    1    4    4    0    0  0.81458011778E+02  0.71978080822E+02  0.14719061559E+02  0.10969458772E+03  0.00000000000E+00 0. -1.
         11    1    4    4    0    0  0.11366471609E+02  0.10679048094E+03  0.64218709625E+02  0.12512971734E+03  0.00000000000E+00 0.  1.
        -13    1    3    3    0    0 -0.92734510900E+01  0.25502971623E+02 -0.17942736294E+02  0.32532141683E+02  0.00000000000E+00 0.  1.
         13    1    3    3    0    0  0.31906575690E+02 -0.67235865380E+02 -0.11061744851E+02  0.75239971856E+02  0.00000000000E+00 0. -1.
         21    1    1    2  503  501 -0.35547958159E+02 -0.48307686024E+02  0.10669144696E+03  0.12239425932E+03  0.00000000000E+00 0. -1.
          2    1    1    2  501    0 -0.79909649827E+02 -0.88727981981E+02  0.78288887214E+02  0.14278430160E+03  0.00000000000E+00 0. -1.
<scales pt_clust_5="13000.00000" pt_clust_6="13000.00000" pt_clust_7="13000.00000" pt_clust_8="13000.00000" pt_clust_9="44.78284" pt_clust_10="196.14300"></scales>
<clustering>
<clus scale="   44.783">  9 10 -1 -1</clus>
<clus scale="   91.306">  5  6 -1 -1</clus>
<clus scale="   92.302">  7  8 -1 -1</clus>
<clus scale="  103.796">  2  7  1 -1</clus>
<clus scale="  196.143">  1  9  2 -1</clus>
<clus scale="  196.143">  1  5  2 -1</clus>
</clustering>
</event>
<event>
10    2  0.6640105E-006  0.1374207E+03  0.7546771E-02  0.1218483E+00
         -2   -1    0    0    0  501 -0.00000000000E+00  0.00000000000E+00  0.35150578570E+03  0.35150578570E+03  0.00000000000E+00 0.  1.
         21   -1    0    0  503  502  0.00000000000E+00 -0.00000000000E+00 -0.28601974523E+03  0.28601974523E+03  0.00000000000E+00 0.  1.
         23    2    1    2    0    0  0.29397883246E+02  0.78953230451E+02  0.16835162139E+03  0.21184048012E+03  0.97140477933E+02 0.  0.
         23    2    1    2    0    0 -0.49870190328E+02 -0.12267436634E+03  0.49753107118E+02  0.16788485013E+03  0.90409707417E+02 0.  0.
        -13    1    3    3    0    0 -0.16773646796E+02  0.74544641156E+02  0.72376086157E+02  0.10524522127E+03  0.00000000000E+00 0.  1.
         13    1    3    3    0    0  0.46171530043E+02  0.44085892948E+01  0.95975535232E+02  0.10659525885E+03  0.00000000000E+00 0. -1.
        -13    1    4    4    0    0 -0.59433819809E+02 -0.48783736006E+02  0.52868186624E+02  0.93312791153E+02  0.00000000000E+00 0.  1.
         13    1    4    4    0    0  0.95636294803E+01 -0.73890630332E+02 -0.31150795064E+01  0.74572058976E+02  0.00000000000E+00 0. -1.
         21    1    1    2  503  501  0.43869432281E+02  0.89216909596E+02 -0.17554154839E+03  0.20173997932E+03  0.00000000000E+00 0.  1.
         -2    1    1    2    0  502 -0.23397125199E+02 -0.45495773709E+02  0.22922860344E+02  0.56060221363E+02  0.00000000000E+00 0.  1.
<scales pt_clust_5="13000.00000" pt_clust_6="13000.00000" pt_clust_7="13000.00000" pt_clust_8="13000.00000" pt_clust_9="63.61193" pt_clust_10="51.15949"></scales>
<clustering>
<clus scale="   51.159">  2 10  1 -1</clus>
<clus scale="   63.612">  2  9  1 -1</clus>
<clus scale="   90.410">  7  8 -1 -1</clus>
<clus scale="   97.140">  5  6 -1 -1</clus>
<clus scale="  132.748">  2  7  1 -1</clus>
<clus scale="   51.159">  2  5  1 -1</clus>
</clustering>
</event>
<event>
10    2  0.6640105E-006  0.1100527E+03  0.7546771E-02  0.1262308E+00
          2   -1    0    0  503    0 -0.00000000000E+00  0.00000000000E+00  0.22946852466E+03  0.22946852466E+03  0.00000000000E+00 0. -1.
         21   -1    0    0  501  502  0.00000000000E+00 -0.00000000000E+00 -0.19949470276E+03  0.19949470276E+03  0.00000000000E+00 0. -1.
         23    2    1    2    0    0  0.39614946727E+02  0.67788106609E+02  0.10251111411E+03  0.15506024354E+03  0.85852077485E+02 0.  0.
         23    2    1    2    0    0 -0.16403865946E+02 -0.43142274267E+02  0.67425506843E+02  0.12201898327E+03  0.90620586285E+02 0.  0.
        -11    1    3    3    0    0  0.36473481679E+02  0.18672479148E+02 -0.40968182409E+00  0.40977361830E+02  0.00000000000E+00 0.  1.
         11    1    3    3    0    0  0.31414650481E+01  0.49115627461E+02  0.10292079593E+03  0.11408288171E+03  0.00000000000E+00 0. -1.
        -11    1    4    4    0    0 -0.45090929494E+02 -0.24813349999E+02  0.71106151895E+02  0.87778010334E+02  0.00000000000E+00 0.  1.
         11    1    4    4    0    0  0.28687063547E+02 -0.18328924267E+02 -0.36806450519E+01  0.34240972938E+02  0.00000000000E+00 0. -1.
         21    1    1    2  503  502  0.10685288110E+02 -0.17799577829E+02 -0.29053218424E+02  0.35708400324E+02  0.00000000000E+00 0. -1.
          2    1    1    2  501    0 -0.33896368891E+02 -0.68462545137E+01 -0.11090958063E+03  0.11617560028E+03  0.00000000000E+00 0. -1.
<scales pt_clust_5="13000.00000" pt_clust_6="13000.00000" pt_clust_7="13000.00000" pt_clust_8="13000.00000" pt_clust_9="20.76055" pt_clust_10="32.68361"></scales>
<clustering>
<clus scale="   20.761">  2  9  1 -1</clus>
<clus scale="   32.684">  2 10  1 -1</clus>
<clus scale="   85.852">  5  6 -1 -1</clus>
<clus scale="   90.621">  7  8 -1 -1</clus>
<clus scale="  106.161">  1  5  2 -1</clus>
<clus scale="   20.761">  2  5  1 -1</clus>
</clustering>
</event>
<event>
10    2  0.6640105E-006  0.1062818E+03  0.7546771E-02  0.1274569E+00
          2   -1    0    0  503    0 -0.00000000000E+00  0.00000000000E+00  0.31858075457E+03  0.31858075457E+03  0.00000000000E+00 0. -1.
         21   -1    0    0  501  502  0.00000000000E+00 -0.00000000000E+00 -0.11577642651E+03  0.11577642651E+03  0.00000000000E+00 0. -1.
         23    2    1    2    0    0  0.51821952703E+02 -0.82734689983E+01  0.20260234656E+03  0.22839802853E+03  0.91454816897E+02 0.  0.
         23    2    1    2    0    0 -0.58347673096E+02 -0.39135710652E+02  0.60146140615E+02  0.11940526636E+03  0.75524860810E+02 0.  0.
        -13    1    3    3    0    0  0.73736805154E+02  0.12827343946E+02  0.14987846003E+03  0.16752674404E+03  0.00000000000E+00 0.  1.
         13    1    3    3    0    0 -0.21914852451E+02 -0.21100812945E+02  0.52723886526E+02  0.60871284489E+02  0.00000000000E+00 0. -1.
        -13    1    4    4    0    0 -0.25649468432E+02  0.17320512936E+02  0.41862737739E+00  0.30952716328E+02  0.00000000000E+00 0.  1.
         13    1    4    4    0    0 -0.32698204664E+02 -0.56456223588E+02  0.59727513237E+02  0.88452550035E+02  0.00000000000E+00 0. -1.
         21    1    1    2  503  502 -0.24385047743E+01  0.26103666347E+02 -0.57643022016E+02  0.63325079466E+02  0.00000000000E+00 0.  1.
          2    1    1    2  501    0  0.89642251675E+01  0.21305513303E+02 -0.23011370844E+01  0.23228806724E+02  0.00000000000E+00 0. -1.
<scales pt_clust_5="13000.00000" pt_clust_6="13000.00000" pt_clust_7="13000.00000" pt_clust_8="13000.00000" pt_clust_9="38.71658" pt_clust_10="23.11455"></scales>
<clustering>
<clus scale="   23.115">  2 10  1 -1</clus>
<clus scale="   38.717">  2  9  1 -1</clus>
<clus scale="   75.525">  7  8 -1 -1</clus>
<clus scale="   91.455">  5  6 -1 -1</clus>
<clus scale="   92.929">  2  7  1 -1</clus>
<clus scale="   23.115">  2  5  1 -1</clus>
</clustering>
</event>
<event>
10    2  0.6640105E-006  0.1408281E+03  0.7546771E-02  0.1225938E+00
         -3   -1    0    0    0  501 -0.00000000000E+00  0.00000000000E+00  0.27092267207E+03  0.27092267207E+03  0.00000000000E+00 0.  1.
         21   -1    0    0  503  502  0.00000000000E+00 -0.00000000000E+00 -0.42390289234E+03  0.42390289234E+03  0.00000000000E+00 0.  1.
         23    2    1    2    0    0  0.38893068876E+02 -0.34302224766E+02  0.79795130717E+02  0.13142206005E+03  0.90637638715E+02 0.  0.
         23    2    1    2    0    0  0.77620202296E+02  0.41342624319E+02  0.36200578224E+02  0.13324904479E+03  0.93331225660E+02 0.  0.
        -11    1    3    3    0    0  0.55719766613E+01 -0.53507595160E+02  0.75524990909E+02  0.92726123156E+02  0.00000000000E+00 0. -1.
         11    1    3    3    0    0  0.33321092215E+02  0.19205370394E+02  0.42701398083E+01  0.38695936897E+02  0.00000000000E+00 0.  1.
        -13    1    4    4    0    0  0.30462125821E+02 -0.28113215984E+02 -0.90506628044E+00  0.41462189613E+02  0.00000000000E+00 0. -1.
         13    1    4    4    0    0  0.47158076474E+02  0.69455840303E+02  0.37105644504E+02  0.91786855175E+02  0.00000000000E+00 0.  1.
         21    1    1    2  503  501 -0.13822969641E+03  0.22263363209E+02 -0.33033035524E+03  0.35877743784E+03  0.00000000000E+00 0.  1.
         -3    1    1    2    0  502  0.21716425241E+02 -0.29303762762E+02  0.61354426029E+02  0.71377021727E+02  0.00000000000E+00 0.  1.
<scales pt_clust_5="13000.00000" pt_clust_6="13000.00000" pt_clust_7="13000.00000" pt_clust_8="13000.00000" pt_clust_9="105.46009" pt_clust_10="36.47348"></scales>
<clustering>
<clus scale="   36.473">  2 10  1 -1</clus>
<clus scale="   90.638">  5  6 -1 -1</clus>
<clus scale="   93.331">  7  8 -1 -1</clus>
<clus scale="  105.534">  1  5  2 -1</clus>
<clus scale="  105.460">  2  9  1 -1</clus>
<clus scale="   36.473">  2  5  1 -1</clus>
</clustering>
</event>
<event>
10    2  0.6640105E-006  0.1029677E+03  0.7546771E-02  0.1274978E+00
         -3   -1    0    0    0  501 -0.00000000000E+00  0.00000000000E+00  0.44783146172E+03  0.44783146172E+03  0.00000000000E+00 0.  1.
         21   -1    0    0  503  502  0.00000000000E+00 -0.00000000000E+00 -0.11433836158E+03  0.11433836158E+03  0.00000000000E+00 0. -1.
         23    2    1    2    0    0  0.49741301802E+02 -0.17944323211E+02  0.24262895833E+03  0.26476804162E+03  0.91853734822E+02 0.  0.
         23    2    1    2    0    0 -0.23563264862E+01  0.30581248790E+02 -0.16926975952E+02  0.96659989680E+02  0.90088101534E+02 0.  0.
        -11    1    4    4    0    0 -0.44923483565E+02  0.57896492947E+01 -0.13575767974E+02  0.47285736651E+02  0.00000000000E+00 0. -1.
         11    1    4    4    0    0  0.42567157079E+02  0.24791599495E+02 -0.33512079778E+01  0.49374253029E+02  0.00000000000E+00 0.  1.
        -11    1    3    3    0    0 -0.24379995120E+02 -0.18710258294E+02  0.54585745921E+02  0.62642330618E+02  0.00000000000E+00 0. -1.
         11    1    3    3    0    0  0.74121296921E+02  0.76593508218E+00  0.18804321241E+03  0.20212571100E+03  0.00000000000E+00 0.  1.
         21    1    1    2  503  501 -0.98249196121E+02  0.14320642613E+02  0.29523911556E+02  0.10358400792E+03  0.00000000000E+00 0. -1.
         -3    1    1    2    0  502  0.50864220806E+02 -0.26957568192E+02  0.78267206203E+02  0.97157784082E+02  0.00000000000E+00 0.  1.
<scales pt_clust_5="13000.00000" pt_clust_6="13000.00000" pt_clust_7="13000.00000" pt_clust_8="13000.00000" pt_clust_9="80.43635" pt_clust_10="57.56633"></scales>
<clustering>
<clus scale="   57.566">  2 10  1 -1</clus>
<clus scale="   80.436">  2  9  1 -1</clus>
<clus scale="   90.088">  5  6 -1 -1</clus>
<clus scale="   91.854">  7  8 -1 -1</clus>
<clus scale="  101.396">  2  5  1 -1</clus>
<clus scale="   57.566">  2  5  1 -1</clus>
</clustering>
</event>
<event>
10    2  0.6640105E-006  0.1304325E+03  0.7546771E-02  0.1238181E+00
         -1   -1    0    0    0  501 -0.00000000000E+00  0.00000000000E+00  0.91550644019E+02  0.91550644019E+02  0.00000000000E+00 0.  1.
         21   -1    0    0  503  502  0.00000000000E+00 -0.00000000000E+00 -0.44220690547E+03  0.44220690547E+03  0.00000000000E+00 0. -1.
         23    2    1    2    0    0  0.43222113185E+02 -0.22998681557E+01  0.94549117857E+01  0.12887303157E+03  0.12101827320E+03 0.  0.
         23    2    1    2    0    0 -0.62727048764E+02  0.98479886446E+00 -0.13666164530E+03  0.17579860680E+03  0.91066417407E+02 0.  0.
        -11    1    4    4    0    0 -0.26756099304E+02 -0.44900599869E+02 -0.63342503641E+02  0.82123233534E+02  0.00000000000E+00 0.  1.
         11    1    4    4    0    0 -0.35970949460E+02  0.45885398733E+02 -0.73319141660E+02  0.93675373262E+02  0.00000000000E+00 0. -1.
        -13    1    3    3    0    0  0.15223202925E+02 -0.53628161099E+02  0.34180786289E+02  0.65391526374E+02  0.00000000000E+00 0.  1.
         13    1    3    3    0    0  0.27998910260E+02  0.51328292943E+02 -0.24725874503E+02  0.63481505198E+02  0.00000000000E+00 0. -1.
         21    1    1    2  503  501  0.13796507962E+02 -0.22020565138E+02 -0.10003921654E+03  0.10335905266E+03  0.00000000000E+00 0. -1.
         -1    1    1    2    0  502  0.57084276168E+01  0.23335634429E+02 -0.12341031140E+03  0.12572685847E+03  0.00000000000E+00 0.  1.
<scales pt_clust_5="13000.00000" pt_clust_6="13000.00000" pt_clust_7="13000.00000" pt_clust_8="13000.00000" pt_clust_9="21.34930" pt_clust_10="24.02370"></scales>
<clustering>
<clus scale="   24.024">  2 10  1 -1</clus>
<clus scale="   21.349">  2  9  1 -1</clus>
<clus scale="   91.066">  5  6 -1 -1</clus>
<clus scale="  103.249">  2  5  1 -1</clus>
<clus scale="  121.018">  7  8 -1 -1</clus>
<clus scale="   24.024">  2  5  1 -1</clus>
</clustering>
</event>
<event>
10    2  0.6640105E-006  0.1582455E+03  0.7546771E-02  0.1211652E+00
         21   -1    0    0  503  502  0.00000000000E+00  0.00000000000E+00  0.34287914677E+03  0.34287914677E+03  0.00000000000E+00 0. -1.
          2   -1    0    0  502    0 -0.00000000000E+00 -0.00000000000E+00 -0.29674926571E+03  0.29674926571E+03  0.00000000000E+00 0. -1.
         23    2    1    2    0    0 -0.39127180038E+02  0.81238562155E+01 -0.17433165829E+03  0.20120648401E+03  0.92171518753E+02 0.  0.
         23    2    1    2    0    0  0.57571224862E+02 -0.13514056200E+03 -0.67537928589E+01  0.17176841223E+03  0.88777003185E+02 0.  0.
        -11    1    3    3    0    0 -0.32246360415E+02 -0.31546219538E+02 -0.14370581634E+03  0.15061989701E+03  0.00000000000E+00 0. -1.
         11    1    3    3    0    0 -0.68808196235E+01  0.39670075753E+02 -0.30625841952E+02  0.50586586999E+02  0.00000000000E+00 0.  1.
        -13    1    4    4    0    0  0.77114092983E+02 -0.10857968670E+03 -0.22768776055E+02  0.13510939591E+03  0.00000000000E+00 0. -1.
         13    1    4    4    0    0 -0.19542868121E+02 -0.26560875295E+02  0.16014983196E+02  0.36659016321E+02  0.00000000000E+00 0.  1.
         21    1    1    2  503  501 -0.26345774403E+02  0.26148598767E+02  0.77844433080E+02  0.86241549197E+02  0.00000000000E+00 0. -1.
          2    1    1    2  501    0  0.79017295789E+01  0.10086810702E+03  0.14937089913E+03  0.18041196703E+03  0.00000000000E+00 0. -1.
<scales pt_clust_5="13000.00000" pt_clust_6="13000.00000" pt_clust_7="13000.00000" pt_clust_8="13000.00000" pt_clust_9="33.19704" pt_clust_10="142.00052"></scales>
<clustering>
<clus scale="   33.197">  9 10 -1 -1</clus>
<clus scale="   88.777">  7  8 -1 -1</clus>
<clus scale="   92.172">  5  6 -1 -1</clus>
<clus scale="  100.462">  2  5  1 -1</clus>
<clus scale="  142.001">  1  9  2 -1</clus>
<clus scale="  142.001">  1  5  2 -1</clus>
</clustering>
</event>
<event>
10    2  0.6640105E-006  0.1025663E+03  0.7546771E-02  0.1275802E+00
          2   -1    0    0  502    0 -0.00000000000E+00  0.00000000000E+00  0.32793524407E+03  0.32793524407E+03  0.00000000000E+00 0. -1.
         21   -1    0    0  503  502  0.00000000000E+00 -0.00000000000E+00 -0.55639555942E+03  0.55639555942E+03  0.00000000000E+00 0. -1.
         23    2    1    2    0    0 -0.59617824180E+02 -0.20632971959E+02  0.19119388567E+03  0.22098339703E+03  0.91096406916E+02 0.  0.
         23    2    1    2    0    0  0.15970488580E+02 -0.83422879949E+01  0.72986984778E+02  0.11946793881E+03  0.92848468925E+02 0.  0.
        -11    1    3    3    0    0 -0.20619851749E+02 -0.50824934250E+02  0.13771017792E+03  0.14823105387E+03  0.00000000000E+00 0.  1.
         11    1    3    3    0    0 -0.38997972431E+02  0.30191962291E+02  0.53483707743E+02  0.72752343156E+02  0.00000000000E+00 0. -1.
        -13    1    4    4    0    0  0.45373093078E+02 -0.44933692575E+01  0.77057513753E+02  0.89536408062E+02  0.00000000000E+00 0.  1.
         13    1    4    4    0    0 -0.29402604498E+02 -0.38489187375E+01 -0.40705289756E+01  0.29931530747E+02  0.00000000000E+00 0. -1.
         21    1    1    2  503  501 -0.89587810637E+02  0.17580730638E+02 -0.14432665545E+03  0.17077833990E+03  0.00000000000E+00 0. -1.
          2    1    1    2  501    0  0.13323514624E+03  0.11394529316E+02 -0.34831453033E+03  0.37310112775E+03  0.00000000000E+00 0. -1.
<scales pt_clust_5="13000.00000" pt_clust_6="13000.00000" pt_clust_7="13000.00000" pt_clust_8="13000.00000" pt_clust_9="91.29654" pt_clust_10="58.91690"></scales>
<clustering>
<clus scale="   91.096">  5  6 -1 -1</clus>
<clus scale="   91.297">  2  9  1 -1</clus>
<clus scale="   58.917">  2 10  1 -1</clus>
<clus scale="   92.848">  7  8 -1 -1</clus>
<clus scale="  100.983">  1  5  2 -1</clus>
<clus scale="   91.297">  2  5  1 -1</clus>
</clustering>
</event>
<event>
10    2  0.6640105E-006  0.1409468E+03  0.7546771E-02  0.1213549E+00
         21   -1    0    0  503  502  0.00000000000E+00  0.00000000000E+00  0.81004828002E+03  0.81004828002E+03  0.00000000000E+00 0. -1.
         -3   -1    0    0    0  501 -0.00000000000E+00 -0.00000000000E+00 -0.75037056249E+02  0.75037056249E+02  0.00000000000E+00 0.  1.
         23    2    1    2    0    0  0.10516322229E+03  0.63492680659E+01  0.66201150610E+02  0.14950462323E+03  0.82881985368E+02 0.  0.
         23    2    1    2    0    0 -0.11487557307E+03  0.84195824638E+02  0.32600295887E+03  0.36694733121E+03  0.89928196449E+02 0.  0.
        -13    1    3    3    0    0  0.37426293977E+02  0.80750240216E+01 -0.17262418466E+02  0.41999102194E+02  0.00000000000E+00 0.  1.
         13    1    3    3    0    0  0.67736928313E+02 -0.17257559557E+01  0.83463569076E+02  0.10750552104E+03  0.00000000000E+00 0. -1.
        -13    1    4    4    0    0 -0.94435921043E+02  0.98266258084E+02  0.30633312117E+03  0.33528254024E+03  0.00000000000E+00 0. -1.
         13    1    4    4    0    0 -0.20439652030E+02 -0.14070433446E+02  0.19669837701E+02  0.31664790978E+02  0.00000000000E+00 0.  1.
         21    1    1    2  503  501 -0.23765651687E+02 -0.16514609317E+02  0.21666763522E+03  0.21859186324E+03  0.00000000000E+00 0.  1.
         -3    1    1    2    0  502  0.33478002469E+02 -0.74030483386E+02  0.12613947906E+03  0.15004151858E+03  0.00000000000E+00 0.  1.
<scales pt_clust_5="13000.00000" pt_clust_6="13000.00000" pt_clust_7="13000.00000" pt_clust_8="13000.00000" pt_clust_9="28.94026" pt_clust_10="82.73959"></scales>
<clustering>
<clus scale="   28.940">  1  9  2 -1</clus>
<clus scale="   82.740">  1 10  2 -1</clus>
<clus scale="   82.882">  5  6 -1 -1</clus>
<clus scale="   89.928">  7  8 -1 -1</clus>
<clus scale="  136.559">  2  5  1 -1</clus>
<clus scale="   28.940">  1  5  2 -1</clus>
</clustering>
</event>
<event>
10    2  0.6640105E-006  0.1029242E+03  0.7546771E-02  0.1274810E+00
          1   -1    0    0  503    0 -0.00000000000E+00  0.00000000000E+00  0.33118879590E+03  0.33118879590E+03  0.00000000000E+00 0. -1.
         21   -1    0    0  501  502  0.00000000000E+00 -0.00000000000E+00 -0.16100229841E+03  0.16100229841E+03  0.00000000000E+00 0. -1.
         23    2    1    2    0    0 -0.44037942819E+01 -0.52029372512E+02  0.19460327929E+03  0.22099720359E+03  0.90790300554E+02 0.  0.
         23    2    1    2    0    0  0.15982027244E+02  0.33909845495E+02  0.86977352872E+02  0.13203427931E+03  0.91992870287E+02 0.  0.
        -11    1    4    4    0    0 -0.12308708264E+01  0.57236065779E+02  0.85641006328E+02  0.10301390311E+03  0.00000000000E+00 0.  1.
         11    1    4    4    0    0  0.17212898070E+02 -0.23326220284E+02  0.13363465438E+01  0.29020376200E+02  0.00000000000E+00 0. -1.
        -13    1    3    3    0    0  0.29483176080E+02 -0.62513800112E+02  0.12300786135E+03  0.14109630339E+03  0.00000000000E+00 0. -1.
         13    1    3    3    0    0 -0.33886970362E+02  0.10484427599E+02  0.71595417942E+02  0.79900900199E+02  0.00000000000E+00 0.  1.
         21    1    1    2  503  502 -0.36244473151E+02 -0.60065743459E+01 -0.93142192933E+02  0.10012596503E+03  0.00000000000E+00 0. -1.
          1    1    1    2  501    0  0.24666240189E+02  0.24126101363E+02 -0.18251941738E+02  0.39033646374E+02  0.00000000000E+00 0. -1.
<scales pt_clust_5="13000.00000" pt_clust_6="13000.00000" pt_clust_7="13000.00000" pt_clust_8="13000.00000" pt_clust_9="21.61680" pt_clust_10="34.50351"></scales>
<clustering>
<clus scale="   34.504">  2 10  1 -1</clus>
<clus scale="   21.617">  2  9  1 -1</clus>
<clus scale="   90.790">  7  8 -1 -1</clus>
<clus scale="   91.993">  5  6 -1 -1</clus>
<clus scale="  101.851">  1  7  2 -1</clus>
<clus scale="   34.504">  2  5  1 -1</clus>
</clustering>
</event>
<event>
10    2  0.6640105E-006  0.1150308E+03  0.7546771E-02  0.1251890E+00
         21   -1    0    0  503  502  0.00000000000E+00  0.00000000000E+00  0.22552573645E+03  0.22552573645E+03  0.00000000000E+00 0. -1.
         -3   -1    0    0    0  501 -0.00000000000E+00 -0.00000000000E+00 -0.49266118883E+03  0.49266118883E+03  0.00000000000E+00 0.  1.
         23    2    1    2    0    0  0.66422677167E+02  0.13876666710E+02 -0.36832917988E+03  0.38524449430E+03  0.90235257618E+02 0.  0.
         23    2    1    2    0    0 -0.11848647041E+03  0.72575674701E+02  0.87770209780E+02  0.18799561979E+03  0.91282370181E+02 0.  0.
        -11    1    3    3    0    0  0.37515984865E+02 -0.36975378095E+02 -0.20840094907E+03  0.21495484009E+03  0.00000000000E+00 0. -1.
         11    1    3    3    0    0  0.28906692302E+02  0.50852044805E+02 -0.15992823081E+03  0.17028965421E+03  0.00000000000E+00 0.  1.
        -13    1    4    4    0    0 -0.12427844803E+03  0.40680915512E+02  0.54882191470E+02  0.14181722206E+03  0.00000000000E+00 0. -1.
         13    1    4    4    0    0  0.57919776211E+01  0.31894759189E+02  0.32888018311E+02  0.46178397730E+02  0.00000000000E+00 0.  1.
         21    1    1    2  503  501  0.12741648163E+02  0.15682699588E+02  0.28008058856E+02  0.34536184288E+02  0.00000000000E+00 0. -1.
         -3    1    1    2    0  502  0.39322145077E+02 -0.10213504100E+03 -0.14584541137E+02  0.11041062690E+03  0.00000000000E+00 0.  1.
<scales pt_clust_5="13000.00000" pt_clust_6="13000.00000" pt_clust_7="13000.00000" pt_clust_8="13000.00000" pt_clust_9="20.20635" pt_clust_10="107.04973"></scales>
<clustering>
<clus scale="   20.206">  1  9  2 -1</clus>
<clus scale="   90.235">  5  6 -1 -1</clus>
<clus scale="   91.282">  7  8 -1 -1</clus>
<clus scale="  107.050">  1 10  2 -1</clus>
<clus scale="  114.202">  2  5  1 -1</clus>
<clus scale="   20.206">  1  5  2 -1</clus>
</clustering>
</event>
<event>
10    2  0.6640105E-006  0.1259899E+03  0.7546771E-02  0.1234838E+00
         -2   -1    0    0    0  501 -0.00000000000E+00  0.00000000000E+00  0.11336408445E+03  0.11336408445E+03  0.00000000000E+00 0.  1.
         21   -1    0    0  501  502  0.00000000000E+00 -0.00000000000E+00 -0.36852514895E+03  0.36852514895E+03  0.00000000000E+00 0.  1.
         23    2    1    2    0    0 -0.71559455785E+02  0.27946789485E+02 -0.49428688297E+02  0.12929985324E+03  0.91506710503E+02 0.  0.
         23    2    1    2    0    0  0.43927467879E+02 -0.10615178988E+03 -0.60062424005E+02  0.15604560572E+03  0.86861449216E+02 0.  0.
        -11    1    3    3    0    0 -0.90454309876E+02  0.70632328063E+01 -0.43044409899E+02  0.10042257045E+03  0.00000000000E+00 0.  1.
         11    1    3    3    0    0  0.18894854090E+02  0.20883556679E+02 -0.63842783972E+01  0.28877282790E+02  0.00000000000E+00 0. -1.
        -11    1    4    4    0    0  0.34276684108E+01 -0.24246253885E+02  0.22234683265E+02  0.33075835259E+02  0.00000000000E+00 0. -1.
         11    1    4    4    0    0  0.40499799469E+02 -0.81905535994E+02 -0.82297107270E+02  0.12296977047E+03  0.00000000000E+00 0.  1.
         21    1    1    2  503  502 -0.28116527366E+02 -0.52806242573E+01 -0.51436087660E+02  0.58856564778E+02  0.00000000000E+00 0.  1.
         -2    1    1    2    0  503  0.55748515272E+02  0.83485624651E+02 -0.94233864530E+02  0.13768720966E+03  0.00000000000E+00 0.  1.
<scales pt_clust_5="13000.00000" pt_clust_6="13000.00000" pt_clust_7="13000.00000" pt_clust_8="13000.00000" pt_clust_9="28.60811" pt_clust_10="93.29269"></scales>
<clustering>
<clus scale="   28.608">  2  9  1 -1</clus>
<clus scale="   86.861">  7  8 -1 -1</clus>
<clus scale="   91.507">  5  6 -1 -1</clus>
<clus scale="   93.293">  2 10  1 -1</clus>
<clus scale="  122.658">  2  7  1 -1</clus>
<clus scale="   28.608">  2  5  1 -1</clus>
</clustering>
</event>
<event>
10    2  0.6640105E-006  0.1077200E+03  0.7546771E-02  0.1264950E+00
         21   -1    0    0  501  502  0.00000000000E+00  0.00000000000E+00  0.12040328391E+04  0.12040328391E+04  0.00000000000E+00 0. -1.
          1   -1    0    0  503    0 -0.00000000000E+00 -0.00000000000E+00 -0.12421281811E+03  0.12421281811E+03  0.00000000000E+00 0. -1.
         23    2    1    2    0    0 -0.28918577716E+02 -0.84013957380E+02 -0.22936881324E+02  0.12840152396E+03  0.89812146495E+02 0.  0.
         23    2    1    2    0    0 -0.56360613995E+02  0.22623895323E+02  0.40209569598E+02  0.11544168177E+03  0.89563457685E+02 0.  0.
        -11    1    4    4    0    0 -0.59366769339E+02 -0.22127385391E+02  0.23048617122E+02  0.67418641616E+02  0.00000000000E+00 0.  1.
         11    1    4    4    0    0  0.30061553447E+01  0.44751280714E+02  0.17160952476E+02  0.48023040151E+02  0.00000000000E+00 0. -1.
        -11    1    3    3    0    0  0.30346153534E+02 -0.11198761855E+02 -0.36029260931E+01  0.32546618531E+02  0.00000000000E+00 0.  1.
         11    1    3    3    0    0 -0.59264731249E+02 -0.72815195526E+02 -0.19333955231E+02  0.95854905427E+02  0.00000000000E+00 0. -1.
         21    1    1    2  503  502  0.56728742837E+02 -0.49472252547E+02  0.18982640843E+03  0.20420509145E+03  0.00000000000E+00 0. -1.
          1    1    1    2  501    0  0.28550448873E+02  0.11086231460E+03  0.87272092429E+03  0.88019736005E+03  0.00000000000E+00 0. -1.
<scales pt_clust_5="13000.00000" pt_clust_6="13000.00000" pt_clust_7="13000.00000" pt_clust_8="13000.00000" pt_clust_9="75.27054" pt_clust_10="103.29377"></scales>
<clustering>
<clus scale="   75.271">  1  9  2 -1</clus>
<clus scale="   89.563">  5  6 -1 -1</clus>
<clus scale="   89.812">  7  8 -1 -1</clus>
<clus scale="  103.294">  1 10  2 -1</clus>
<clus scale="  107.513">  1  5  2 -1</clus>
<clus scale="   75.271">  1  5  2 -1</clus>
</clustering>
</event>
<event>
10    2  0.6640105E-006  0.1043713E+03  0.7546771E-02  0.1271496E+00
         21   -1    0    0  503  502  0.00000000000E+00  0.00000000000E+00  0.10206887832E+03  0.10206887832E+03  0.00000000000E+00 0. -1.
          2   -1    0    0  502    0 -0.00000000000E+00 -0.00000000000E+00 -0.73683868312E+03  0.73683868312E+03  0.00000000000E+00 0. -1.
         23    2    1    2    0    0  0.10227530070E+02 -0.42613643026E+02 -0.36719282515E+03  0.38071855799E+03  0.90529136797E+02 0.  0.
         23    2    1    2    0    0 -0.75300824332E+02  0.31381977152E+02 -0.32639774625E+03  0.34832496376E+03  0.90220557468E+02 0.  0.
        -11    1    3    3    0    0  0.18180996188E+02  0.13711505234E+02 -0.24945585187E+02  0.33776267090E+02  0.00000000000E+00 0.  1.
         11    1    3    3    0    0 -0.79534661181E+01 -0.56325148260E+02 -0.34224723996E+03  0.34694229090E+03  0.00000000000E+00 0. -1.
        -13    1    4    4    0    0 -0.52175996916E+02  0.19226258470E+02 -0.31491705047E+03  0.31978857444E+03  0.00000000000E+00 0. -1.
         13    1    4    4    0    0 -0.23124827417E+02  0.12155718682E+02 -0.11480695777E+02  0.28536389317E+02  0.00000000000E+00 0.  1.
         21    1    1    2  503  501  0.20065696783E+02  0.32069355838E+02  0.44154415808E+02  0.58143685871E+02  0.00000000000E+00 0. -1.
          2    1    1    2  501    0  0.45007597479E+02 -0.20837689963E+02  0.14666350795E+02  0.51720353822E+02  0.00000000000E+00 0. -1.
<scales pt_clust_5="13000.00000" pt_clust_6="13000.00000" pt_clust_7="13000.00000" pt_clust_8="13000.00000" pt_clust_9="37.82956" pt_clust_10="58.08796"></scales>
<clustering>
<clus scale="   37.830">  1  9  2 -1</clus>
<clus scale="   58.088">  1 10  2 -1</clus>
<clus scale="   90.221">  7  8 -1 -1</clus>
<clus scale="   90.529">  5  6 -1 -1</clus>
<clus scale="  104.104">  1  7  2 -1</clus>
<clus scale="   37.830">  1  5  2 -1</clus>
</clustering>
</event>
<event>
10    2  0.6640105E-006  0.5429826E+03  0.7546771E-02  0.1015010E+00
         21   -1    0    0  503  502  0.00000000000E+00  0.00000000000E+00  0.11019013669E+04  0.11019013669E+04  0.00000000000E+00 0.  1.
          2   -1    0    0  502    0 -0.00000000000E+00 -0.00000000000E+00 -0.59637415768E+03  0.59637415768E+03  0.00000000000E+00 0.  1.
         23    2    1    2    0    0 -0.16910925744E+03 -0.32410584154E+03 -0.12002607051E+03  0.39466107293E+03  0.87798447654E+02 0.  0.
         23    2    1    2    0    0 -0.36603713571E+03 -0.91606076390E+02  0.25257318760E+02  0.38991815864E+03  0.94991475062E+02 0.  0.
        -13    1    3    3    0    0 -0.23820250428E+01 -0.71585031070E+02 -0.83292012796E+01  0.72107324944E+02  0.00000000000E+00 0. -1.
         13    1    3    3    0    0 -0.16672723239E+03 -0.25252081047E+03 -0.11169686923E+03  0.32255374798E+03  0.00000000000E+00 0.  1.
        -13    1    4    4    0    0 -0.25169171030E+03 -0.10238943552E+03 -0.26075107383E+01  0.27173353244E+03  0.00000000000E+00 0. -1.
         13    1    4    4    0    0 -0.11434542541E+03  0.10783359133E+02  0.27864829499E+02  0.11818462620E+03  0.00000000000E+00 0.  1.
         21    1    1    2  503  501  0.11808420394E+02  0.43785474417E+02  0.55456038224E+02  0.71637830353E+02  0.00000000000E+00 0. -1.
          2    1    1    2  501    0  0.52333797275E+03  0.37192644351E+03  0.54483992270E+03  0.84205846262E+03  0.00000000000E+00 0.  1.
<scales pt_clust_5="13000.00000" pt_clust_6="13000.00000" pt_clust_7="13000.00000" pt_clust_8="13000.00000" pt_clust_9="32.86075" pt_clust_10="32.86075"></scales>
<clustering>
<clus scale="   32.861">  9 10 -1 -1</clus>
<clus scale="   87.798">  5  6 -1 -1</clus>
<clus scale="   94.991">  7  8 -1 -1</clus>
<clus scale="  375.967">  2  5  1 -1</clus>
<clus scale="  537.183">  2  7  1 -1</clus>
<clus scale="  542.983">  1  5  2 -1</clus>
</clustering>
</event>
<event>
10    2  0.6640105E-006  0.1759241E+03  0.7546771E-02  0.1175475E+00
         21   -1    0    0  501  502  0.00000000000E+00  0.00000000000E+00  0.13803569614E+03  0.13803569614E+03  0.00000000000E+00 0. -1.
          1   -1    0    0  503    0 -0.00000000000E+00 -0.00000000000E+00 -0.65865762487E+03  0.65865762487E+03  0.00000000000E+00 0. -1.
         23    2    1    2    0    0  0.20054911448E+02  0.91948879710E+02 -0.23494647547E+03  0.27760758777E+03  0.11405845211E+03 0.  0.
         23    2    1    2    0    0 -0.23054358605E+02 -0.19252044618E+03 -0.32732253597E+03  0.39114193818E+03  0.90864446280E+02 0.  0.
        -11    1    3    3    0    0 -0.44012630066E+02  0.63531594365E+02 -0.11181315025E+03  0.13592481619E+03  0.00000000000E+00 0.  1.
         11    1    3    3    0    0  0.64067541514E+02  0.28417285345E+02 -0.12313332522E+03  0.14168277158E+03  0.00000000000E+00 0. -1.
        -13    1    4    4    0    0  0.32272468136E+02 -0.10731874182E+03 -0.18465829162E+03  0.21600349351E+03  0.00000000000E+00 0.  1.
         13    1    4    4    0    0 -0.55326826742E+02 -0.85201704354E+02 -0.14266424436E+03  0.17513844467E+03  0.00000000000E+00 0. -1.
         21    1    1    2  503  502 -0.21256442841E+02  0.17971948223E+02  0.30244951712E+02  0.41104554362E+02  0.00000000000E+00 0. -1.
          1    1    1    2  501    0  0.24255889999E+02  0.82599618242E+02  0.11402131003E+02  0.86839240697E+02  0.00000000000E+00 0. -1.
<scales pt_clust_5="13000.00000" pt_clust_6="13000.00000" pt_clust_7="13000.00000" pt_clust_8="13000.00000" pt_clust_9="27.83572" pt_clust_10="92.30040"></scales>
<clustering>
<clus scale="   27.836">  1  9  2 -1</clus>
<clus scale="   90.864">  7  8 -1 -1</clus>
<clus scale="   92.300">  1 10  2 -1</clus>
<clus scale="  114.058">  5  6 -1 -1</clus>
<clus scale="  161.853">  1  7  2 -1</clus>
<clus scale="   27.836">  1  5  2 -1</clus>
</clustering>
</event>
<event>
10    2  0.6640105E-006  0.2992872E+03  0.7546771E-02  0.1085874E+00
         21   -1    0    0  503  502  0.00000000000E+00  0.00000000000E+00  0.83809310994E+03  0.83809310994E+03  0.00000000000E+00 0.  1.
         -1   -1    0    0    0  501 -0.00000000000E+00 -0.00000000000E+00 -0.50364595295E+03  0.50364595295E+03  0.00000000000E+00 0.  1.
         23    2    1    2    0    0 -0.29566748401E+03 -0.48997559100E+02 -0.38940373763E+03  0.49983462392E+03  0.91538835975E+02 0.  0.
         23    2    1    2    0    0  0.21932319311E+03 -0.10857712007E+02  0.20775037011E+03  0.31376668857E+03  0.84075951564E+02 0.  0.
        -11    1    3    3    0    0 -0.18489340024E+03  0.11126770051E+02 -0.25960119400E+03  0.31890775217E+03  0.00000000000E+00 0.  1.
         11    1    3    3    0    0 -0.11077408377E+03 -0.60124329151E+02 -0.12980254363E+03  0.18092687175E+03  0.00000000000E+00 0. -1.
        -13    1    4    4    0    0  0.19857276862E+03 -0.24151594950E+02  0.14709721097E+03  0.24829827517E+03  0.00000000000E+00 0.  1.
         13    1    4    4    0    0  0.20750424487E+02  0.13293882943E+02  0.60653159136E+02  0.65468413401E+02  0.00000000000E+00 0. -1.
         21    1    1    2  503  501  0.26592292814E+02 -0.23356916758E+01  0.21621745275E+03  0.21785911128E+03  0.00000000000E+00 0.  1.
         -1    1    1    2    0  502  0.49751998093E+02  0.62190962782E+02  0.29988307176E+03  0.31027863912E+03  0.00000000000E+00 0.  1.
<scales pt_clust_5="13000.00000" pt_clust_6="13000.00000" pt_clust_7="13000.00000" pt_clust_8="13000.00000" pt_clust_9="26.69467" pt_clust_10="87.59017"></scales>
<clustering>
<clus scale="   26.695">  1  9  2 -1</clus>
<clus scale="   84.076">  7  8 -1 -1</clus>
<clus scale="   87.590">  1 10  2 -1</clus>
<clus scale="   91.539">  5  6 -1 -1</clus>
<clus scale="  297.090">  1  7  2 -1</clus>
<clus scale="   26.695">  1  5  2 -1</clus>
</clustering>
</event>
<event>
10    2  0.6640105E-006  0.1686806E+03  0.7546771E-02  0.1179970E+00
          2   -1    0    0  503    0 -0.00000000000E+00  0.00000000000E+00  0.16176735466E+03  0.16176735466E+03  0.00000000000E+00 0. -1.
         21   -1    0    0  501  502  0.00000000000E+00 -0.00000000000E+00 -0.15347457172E+04  0.15347457172E+04  0.00000000000E+00 0. -1.
         23    2    1    2    0    0 -0.10166514323E+03  0.94655849828E+02  0.54713896197E+02  0.17616598556E+03  0.93516377042E+02 0.  0.
         23    2    1    2    0    0  0.19075609832E+03  0.40575697555E+02 -0.26337203031E+03  0.34216285578E+03  0.98368273585E+02 0.  0.
        -11    1    3    3    0    0 -0.63343640659E+02  0.56904135844E+02 -0.16686473067E+02  0.86769440885E+02  0.00000000000E+00 0.  1.
         11    1    3    3    0    0 -0.38321502575E+02  0.37751713984E+02  0.71400369264E+02  0.89396544673E+02  0.00000000000E+00 0. -1.
        -11    1    4    4    0    0 -0.57530870587E+01  0.19528478892E+02 -0.31336803336E+02  0.37369168332E+02  0.00000000000E+00 0.  1.
         11    1    4    4    0    0  0.19650918538E+03  0.21047218663E+02 -0.23203522697E+03  0.30479368745E+03  0.00000000000E+00 0. -1.
         21    1    1    2  503  502 -0.86651402192E+02 -0.99334297107E+02 -0.10523893517E+04  0.10606126134E+04  0.00000000000E+00 0. -1.
          2    1    1    2  501    0 -0.24395528918E+01 -0.35897250277E+02 -0.11193087676E+03  0.11757161719E+03  0.00000000000E+00 0. -1.
<scales pt_clust_5="13000.00000" pt_clust_6="13000.00000" pt_clust_7="13000.00000" pt_clust_8="13000.00000" pt_clust_9="153.99034" pt_clust_10="35.98005"></scales>
<clustering>
<clus scale="   35.980">  2 10  1 -1</clus>
<clus scale="   93.516">  5  6 -1 -1</clus>
<clus scale="   98.368">  7  8 -1 -1</clus>
<clus scale="  153.990">  2  9  1 -1</clus>
<clus scale="  165.898">  1  5  2 -1</clus>
<clus scale="   35.980">  2  5  1 -1</clus>
</clustering>
</event>
<event>
10    2  0.6640105E-006  0.2274607E+03  0.7546771E-02  0.1133871E+00
         21   -1    0    0  501  502  0.00000000000E+00  0.00000000000E+00  0.41968828956E+03  0.41968828956E+03  0.00000000000E+00 0. -1.
          1   -1    0    0  503    0 -0.00000000000E+00 -0.00000000000E+00 -0.97459459500E+03  0.97459459500E+03  0.00000000000E+00 0. -1.
         23    2    1    2    0    0  0.12712160156E+03 -0.12042315882E+03 -0.54303669739E+03  0.57761292913E+03  0.89923314144E+02 0.  0.
         23    2    1    2    0    0 -0.24060292038E+03 -0.61377633112E+02 -0.28002817235E+03  0.38527410479E+03  0.91451513753E+02 0.  0.
        -11    1    4    4    0    0 -0.17452093242E+02 -0.33039267940E+02 -0.59522434077E+02  0.70278652114E+02  0.00000000000E+00 0.  1.
         11    1    4    4    0    0 -0.22315082714E+03 -0.28338365172E+02 -0.22050573828E+03  0.31499545267E+03  0.00000000000E+00 0. -1.
        -13    1    3    3    0    0  0.11118946712E+03 -0.45327509254E+02 -0.33303791357E+03  0.35402250291E+03  0.00000000000E+00 0. -1.
         13    1    3    3    0    0  0.15932134443E+02 -0.75095649570E+02 -0.20999878382E+03  0.22359042622E+03  0.00000000000E+00 0.  1.
         21    1    1    2  503  502  0.28316110558E+02 -0.15919035880E+02  0.20426616057E+03  0.20683298135E+03  0.00000000000E+00 0. -1.
          1    1    1    2  501    0  0.85165208256E+02  0.19771982782E+03  0.63892403720E+02  0.22456286929E+03  0.00000000000E+00 0. -1.
<scales pt_clust_5="13000.00000" pt_clust_6="13000.00000" pt_clust_7="13000.00000" pt_clust_8="13000.00000" pt_clust_9="32.48412" pt_clust_10="208.26667"></scales>
<clustering>
<clus scale="   32.484">  1  9  2 -1</clus>
<clus scale="   89.923">  7  8 -1 -1</clus>
<clus scale="   91.452">  5  6 -1 -1</clus>
<clus scale="  199.112">  2  7  1 -1</clus>
<clus scale="  208.267">  1 10  2 -1</clus>
<clus scale="   32.484">  1  5  2 -1</clus>
</clustering>
</event>
<event>
10    2  0.6640105E-006  0.1949154E+03  0.7546771E-02  0.1154148E+00
         21   -1    0    0  501  502  0.00000000000E+00  0.00000000000E+00  0.83778766911E+03  0.83778766911E+03  0.00000000000E+00 0. -1.
          2   -1    0    0  503    0 -0.00000000000E+00 -0.00000000000E+00 -0.32539502972E+03  0.32539502972E+03  0.00000000000E+00 0. -1.
         23    2    1    2    0    0 -0.15150351717E+03 -0.74331582023E+02 -0.25160823013E+03  0.31622807962E+03  0.90636621041E+02 0.  0.
         23    2    1    2    0    0  0.16658204538E+03  0.15139473805E+03  0.36932259235E+03  0.44200322699E+03  0.91091881658E+02 0.  0.
        -11    1    4    4    0    0  0.68741539909E+02  0.47877821334E+02  0.22108452009E+03  0.23642345507E+03  0.00000000000E+00 0.  1.
         11    1    4    4    0    0  0.97840505466E+02  0.10351691672E+03  0.14823807225E+03  0.20557977192E+03  0.00000000000E+00 0. -1.
        -11    1    3    3    0    0 -0.14754606948E+02 -0.41010164970E+02 -0.27333424090E+02  0.51445584159E+02  0.00000000000E+00 0.  1.
         11    1    3    3    0    0 -0.13674891022E+03 -0.33321417053E+02 -0.22427480604E+03  0.26478249546E+03  0.00000000000E+00 0. -1.
         21    1    1    2  503  502 -0.89194365281E+01 -0.38839316348E+02  0.30041735945E+03  0.30304890480E+03  0.00000000000E+00 0. -1.
          2    1    1    2  501    0 -0.61590916820E+01 -0.38223839682E+02  0.94260917723E+02  0.10190248741E+03  0.00000000000E+00 0. -1.
<scales pt_clust_5="13000.00000" pt_clust_6="13000.00000" pt_clust_7="13000.00000" pt_clust_8="13000.00000" pt_clust_9="55.61870" pt_clust_10="38.71687"></scales>
<clustering>
<clus scale="   38.717">  1 10  2 -1</clus>
<clus scale="   55.619">  1  9  2 -1</clus>
<clus scale="   90.637">  7  8 -1 -1</clus>
<clus scale="   91.092">  5  6 -1 -1</clus>
<clus scale="  194.703">  2  7  1 -1</clus>
<clus scale="   38.717">  1  5  2 -1</clus>
</clustering>
</event>
<event>
10    2  0.6640105E-006  0.1458460E+03  0.7546771E-02  0.1207493E+00
         21   -1    0    0  501  502  0.00000000000E+00  0.00000000000E+00  0.19222951177E+03  0.19222951177E+03  0.00000000000E+00 0.  1.
          1   -1    0    0  503    0 -0.00000000000E+00 -0.00000000000E+00 -0.80629788428E+03  0.80629788428E+03  0.00000000000E+00 0. -1.
         23    2    1    2    0    0 -0.10462789346E+03 -0.54487703231E+01 -0.40647310983E+03  0.43157473350E+03  0.10029793811E+03 0.  0.
         23    2    1    2    0    0  0.96770023283E+02  0.62159447617E+02 -0.36347884864E+03  0.39217907140E+03  0.91974541582E+02 0.  0.
        -13    1    3    3    0    0 -0.57907462137E+01 -0.35905539913E+02 -0.16367285979E+03  0.16766498015E+03  0.00000000000E+00 0.  1.
         13    1    3    3    0    0 -0.98837147245E+02  0.30456769589E+02 -0.24280025004E+03  0.26390975334E+03  0.00000000000E+00 0. -1.
        -13    1    4    4    0    0  0.74669244578E+02  0.77532815190E+02 -0.20612627707E+03  0.23254005164E+03  0.00000000000E+00 0.  1.
         13    1    4    4    0    0  0.22100778704E+02 -0.15373367573E+02 -0.15735257157E+03  0.15963901976E+03  0.00000000000E+00 0. -1.
         21    1    1    2  503  502  0.28860257366E+02 -0.42226324984E+02  0.82358510247E+02  0.96947930287E+02  0.00000000000E+00 0.  1.
          1    1    1    2  501    0 -0.21002387190E+02 -0.14484352310E+02  0.73525075720E+02  0.77825660865E+02  0.00000000000E+00 0. -1.
<scales pt_clust_5="13000.00000" pt_clust_6="13000.00000" pt_clust_7="13000.00000" pt_clust_8="13000.00000" pt_clust_9="54.85919" pt_clust_10="25.51268"></scales>
<clustering>
<clus scale="   25.513">  1 10  2 -1</clus>
<clus scale="   54.859">  1  9  2 -1</clus>
<clus scale="   91.975">  7  8 -1 -1</clus>
<clus scale="  100.298">  5  6 -1 -1</clus>
<clus scale="  140.252">  1  7  2 -1</clus>
<clus scale="   25.513">  1  5  2 -1</clus>
</clustering>
</event>
<event>
10    2  0.6640105E-006  0.9929130E+02  0.7546771E-02  0.1282980E+00
         21   -1    0    0  503  502  0.00000000000E+00  0.00000000000E+00  0.43582608130E+03  0.43582608130E+03  0.00000000000E+00 0. -1.
         -2   -1    0    0    0  501 -0.00000000000E+00 -0.00000000000E+00 -0.57764797721E+02  0.57764797721E+02  0.00000000000E+00 0.  1.
         23    2    1    2    0    0  0.21733524707E+02 -0.39386351681E+01  0.61368061082E+02  0.11146411629E+03  0.90389995891E+02 0.  0.
         23    2    1    2    0    0 -0.23701659677E+02  0.61628921458E+02  0.10109613899E+03  0.15226386317E+03  0.92757544583E+02 0.  0.
        -11    1    3    3    0    0 -0.31257621888E+01 -0.28116737886E+02 -0.11677147992E+02  0.30605181324E+02  0.00000000000E+00 0.  1.
         11    1    3    3    0    0  0.24859286896E+02  0.24178102718E+02  0.73045209074E+02  0.80858934971E+02  0.00000000000E+00 0. -1.
        -13    1    4    4    0    0 -0.58084330954E+02  0.23963982470E+02  0.57453937814E+02  0.85141158840E+02  0.00000000000E+00 0. -1.
         13    1    4    4    0    0  0.34382671277E+02  0.37664938988E+02  0.43642201172E+02  0.67122704328E+02  0.00000000000E+00 0.  1.
         21    1    1    2  503  501 -0.24552111459E+02 -0.33806813259E+02  0.88793561521E+02  0.98132580560E+02  0.00000000000E+00 0. -1.
         -2    1    1    2    0  502  0.26520246428E+02 -0.23883473032E+02  0.12680352199E+03  0.13173031900E+03  0.00000000000E+00 0.  1.
<scales pt_clust_5="13000.00000" pt_clust_6="13000.00000" pt_clust_7="13000.00000" pt_clust_8="13000.00000" pt_clust_9="44.26516" pt_clust_10="35.68955"></scales>
<clustering>
<clus scale="   35.690">  1 10  2 -1</clus>
<clus scale="   44.265">  1  9  2 -1</clus>
<clus scale="   90.390">  5  6 -1 -1</clus>
<clus scale="   92.758">  7  8 -1 -1</clus>
<clus scale="   97.083">  2  5  1 -1</clus>
<clus scale="   35.690">  1  5  2 -1</clus>
</clustering>
</event>
<event>
10    2  0.6640105E-006  0.1510712E+03  0.7546771E-02  0.1200838E+00
          1   -1    0    0  503    0 -0.00000000000E+00  0.00000000000E+00  0.73103406583E+03  0.73103406583E+03  0.00000000000E+00 0. -1.
         21   -1    0    0  501  502  0.00000000000E+00 -0.00000000000E+00 -0.17479637477E+03  0.17479637477E+03  0.00000000000E+00 0. -1.
         23    2    1    2    0    0 -0.10955944016E+03 -0.71002996920E+02  0.40891105011E+03  0.43977893512E+03  0.95669056491E+02 0.  0.
         23    2    1    2    0    0  0.30024902376E+02 -0.95740214401E+02  0.96658825861E+02  0.16565115452E+03  0.89608554055E+02 0.  0.
        -11    1    4    4    0    0 -0.43312160195E+01 -0.99713238258E+02  0.68503236969E+02  0.12105446209E+03  0.00000000000E+00 0. -1.
         11    1    4    4    0    0  0.34356118395E+02  0.39730238572E+01  0.28155588893E+02  0.44596692430E+02  0.00000000000E+00 0.  1.
        -13    1    3    3    0    0 -0.11787224396E+03 -0.40007080932E+02  0.36311693000E+03  0.38385978856E+03  0.00000000000E+00 0. -1.
         13    1    3    3    0    0  0.83128037983E+01 -0.30995915988E+02  0.45794120112E+02  0.55919146558E+02  0.00000000000E+00 0.  1.
         21    1    1    2  503  502 -0.33406835520E+02  0.15091564219E+03  0.91079101586E+02  0.17940721965E+03  0.00000000000E+00 0. -1.
          1    1    1    2  501    0  0.11294137331E+03  0.15827569126E+02 -0.40411286496E+02  0.12099313131E+03  0.00000000000E+00 0. -1.
<scales pt_clust_5="13000.00000" pt_clust_6="13000.00000" pt_clust_7="13000.00000" pt_clust_8="13000.00000" pt_clust_9="116.91847" pt_clust_10="114.04502"></scales>
<clustering>
<clus scale="   89.609">  5  6 -1 -1</clus>
<clus scale="   95.669">  7  8 -1 -1</clus>
<clus scale="  114.045">  2 10  1 -1</clus>
<clus scale="  145.674">  2  5  1 -1</clus>
<clus scale="  116.918">  2  9  1 -1</clus>
<clus scale="  114.045">  2  5  1 -1</clus>
</clustering>
</event>
<event>
10    2  0.6640105E-006  0.1002080E+03  0.7546771E-02  0.1281494E+00
          2   -1    0    0  503    0 -0.00000000000E+00  0.00000000000E+00  0.79074334489E+03  0.79074334489E+03  0.00000000000E+00 0. -1.
         21   -1    0    0  501  502  0.00000000000E+00 -0.00000000000E+00 -0.42350506083E+02  0.42350506083E+02  0.00000000000E+00 0. -1.
         23    2    1    2    0    0  0.18911063490E+02 -0.27035790055E+02  0.31693610802E+03  0.33163805369E+03  0.91906146804E+02 0.  0.
         23    2    1    2    0    0 -0.52627638502E+02 -0.29889174322E+02  0.21560829239E+03  0.24331450825E+03  0.95141910331E+02 0.  0.
        -11    1    4    4    0    0  0.52635544439E+01 -0.46798619636E+02  0.58972106327E+02  0.75468702982E+02  0.00000000000E+00 0.  1.
         11    1    4    4    0    0 -0.57891192946E+02  0.16909445313E+02  0.15663618606E+03  0.16784580527E+03  0.00000000000E+00 0. -1.
        -13    1    3    3    0    0  0.81632362290E+01 -0.56966246737E+02  0.26122809717E+03  0.26749188856E+03  0.00000000000E+00 0. -1.
         13    1    3    3    0    0  0.10747827261E+02  0.29930456682E+02  0.55708010851E+02  0.64146165130E+02  0.00000000000E+00 0.  1.
         21    1    1    2  503  502 -0.35620692807E+01  0.56388179979E+02  0.21826660237E+02  0.60569945319E+02  0.00000000000E+00 0. -1.
          2    1    1    2  501    0  0.37278644292E+02  0.53678439860E+00  0.19402177817E+03  0.19757134372E+03  0.00000000000E+00 0. -1.
<scales pt_clust_5="13000.00000" pt_clust_6="13000.00000" pt_clust_7="13000.00000" pt_clust_8="13000.00000" pt_clust_9="58.40585" pt_clust_10="37.28253"></scales>
<clustering>
<clus scale="   37.283">  2 10  1 -1</clus>
<clus scale="   58.406">  2  9  1 -1</clus>
<clus scale="   91.906">  7  8 -1 -1</clus>
<clus scale="   95.142">  5  6 -1 -1</clus>
<clus scale="   97.141">  1  7  2 -1</clus>
<clus scale="   37.283">  2  5  1 -1</clus>
</clustering>
</event>
<event>
10    2  0.6640105E-006  0.9637726E+02  0.7546771E-02  0.1289877E+00
         21   -1    0    0  503  502  0.00000000000E+00  0.00000000000E+00  0.32954309154E+03  0.32954309154E+03  0.00000000000E+00 0. -1.
         -4   -1    0    0    0  501 -0.00000000000E+00 -0.00000000000E+00 -0.22176728647E+03  0.22176728647E+03  0.00000000000E+00 0.  1.
         23    2    1    2    0    0  0.11946388152E+02  0.22504351674E+02 -0.18616776514E+03  0.20955853728E+03  0.92774898204E+02 0.  0.
         23    2    1    2    0    0  0.94676692003E+01 -0.42752860908E+02  0.13943305301E+03  0.17137177437E+03  0.89494496495E+02 0.  0.
        -11    1    3    3    0    0  0.37732774791E+02  0.41947192310E+02 -0.15385498596E+03  0.16387399409E+03  0.00000000000E+00 0.  1.
         11    1    3    3    0    0 -0.25786386639E+02 -0.19442840636E+02 -0.32312779183E+02  0.45684543190E+02  0.00000000000E+00 0. -1.
        -13    1    4    4    0    0 -0.20600764177E+02  0.19581735901E+02  0.26155521898E+02  0.38625732243E+02  0.00000000000E+00 0.  1.
         13    1    4    4    0    0  0.30068433378E+02 -0.62334596809E+02  0.11327753112E+03  0.13274604213E+03  0.00000000000E+00 0. -1.
         21    1    1    2  503  501 -0.20737437445E+01 -0.20078634190E+02  0.87617882398E+02  0.89912987271E+02  0.00000000000E+00 0. -1.
         -4    1    1    2    0  502 -0.19340313608E+02  0.40327143425E+02  0.66892634795E+02  0.80467079088E+02  0.00000000000E+00 0.  1.
<scales pt_clust_5="13000.00000" pt_clust_6="13000.00000" pt_clust_7="13000.00000" pt_clust_8="13000.00000" pt_clust_9="20.18544" pt_clust_10="39.59127"></scales>
<clustering>
<clus scale="   20.185">  1  9  2 -1</clus>
<clus scale="   39.591">  1 10  2 -1</clus>
<clus scale="   89.494">  7  8 -1 -1</clus>
<clus scale="   92.775">  5  6 -1 -1</clus>
<clus scale="   93.224">  1  7  2 -1</clus>
<clus scale="   20.185">  1  5  2 -1</clus>
</clustering>
</event>
<event>
10    2  0.6640105E-006  0.3500646E+03  0.7546771E-02  0.1084466E+00
         21   -1    0    0  501  502  0.00000000000E+00  0.00000000000E+00  0.18805126301E+03  0.18805126301E+03  0.00000000000E+00 0. -1.
          1   -1    0    0  503    0 -0.00000000000E+00 -0.00000000000E+00 -0.18203623854E+04  0.18203623854E+04  0.00000000000E+00 0. -1.
         23    2    1    2    0    0  0.64244119935E+02 -0.16115306911E+03 -0.31444242280E+03  0.37004708711E+03  0.89236712106E+02 0.  0.
         23    2    1    2    0    0  0.18445027465E+03  0.36198995425E+03 -0.11606745680E+04  0.12330337230E+04  0.90266707106E+02 0.  0.
        -11    1    3    3    0    0  0.50914302460E+02 -0.27271914937E+02 -0.67562013384E+02  0.88885596087E+02  0.00000000000E+00 0. -1.
         11    1    3    3    0    0  0.13329817475E+02 -0.13388115418E+03 -0.24688040942E+03  0.28116149102E+03  0.00000000000E+00 0.  1.
        -11    1    4    4    0    0  0.22067322471E+02  0.71006606661E+02 -0.12919802483E+03  0.14906721481E+03  0.00000000000E+00 0.  1.
         11    1    4    4    0    0  0.16238295218E+03  0.29098334758E+03 -0.10314765432E+04  0.10839665082E+04  0.00000000000E+00 0. -1.
         21    1    1    2  503  502  0.13706248074E+02  0.24011161867E+02 -0.16739852489E+02  0.32320578458E+02  0.00000000000E+00 0. -1.
          1    1    1    2  501    0 -0.26240064266E+03 -0.22484804700E+03 -0.14045427911E+03  0.37301225989E+03  0.00000000000E+00 0. -1.
<scales pt_clust_5="13000.00000" pt_clust_6="13000.00000" pt_clust_7="13000.00000" pt_clust_8="13000.00000" pt_clust_9="27.64773" pt_clust_10="338.22647"></scales>
<clustering>
<clus scale="   27.648">  1  9  2 -1</clus>
<clus scale="   89.237">  5  6 -1 -1</clus>
<clus scale="   90.267">  7  8 -1 -1</clus>
<clus scale="  192.762">  2  5  1 -1</clus>
<clus scale="  338.226">  1 10  2 -1</clus>
<clus scale="   27.648">  1  5  2 -1</clus>
</clustering>
</event>
<event>
10    2  0.6640105E-006  0.1538577E+03  0.7546771E-02  0.1196051E+00
          1   -1    0    0  502    0 -0.00000000000E+00  0.00000000000E+00  0.97660407311E+03  0.97660407311E+03  0.00000000000E+00 0. -1.
         21   -1    0    0  503  502  0.00000000000E+00 -0.00000000000E+00 -0.90336937040E+02  0.90336937040E+02  0.00000000000E+00 0.  1.
         23    2    1    2    0    0 -0.87323749862E+02 -0.43262356482E+02  0.35062860228E+03  0.37526577451E+03  0.91580107006E+02 0.  0.
         23    2    1    2    0    0  0.18633657509E+03  0.41381922801E+02  0.33897087464E+03  0.39934307279E+03  0.90221134859E+02 0.  0.
        -11    1    4    4    0    0  0.97521905812E+02  0.54911113450E+02  0.12793100071E+03  0.16997674381E+03  0.00000000000E+00 0.  1.
         11    1    4    4    0    0  0.88814669278E+02 -0.13529190649E+02  0.21103987393E+03  0.22936632898E+03  0.00000000000E+00 0. -1.
        -13    1    3    3    0    0  0.10659375226E+02 -0.33395915578E+02  0.83338923196E+02  0.90411755746E+02  0.00000000000E+00 0. -1.
         13    1    3    3    0    0 -0.97983125089E+02 -0.98664409039E+01  0.26728967909E+03  0.28485401876E+03  0.00000000000E+00 0.  1.
         21    1    1    2  503  501  0.62937911263E+01 -0.74822453586E+02  0.30168236499E+02  0.80920540413E+02  0.00000000000E+00 0.  1.
          1    1    1    2  501    0 -0.10530661635E+03  0.76702887267E+02  0.16649942264E+03  0.21141162244E+03  0.00000000000E+00 0. -1.
<scales pt_clust_5="13000.00000" pt_clust_6="13000.00000" pt_clust_7="13000.00000" pt_clust_8="13000.00000" pt_clust_9="75.08669" pt_clust_10="114.98028"></scales>
<clustering>
<clus scale="   75.087">  2  9  1 -1</clus>
<clus scale="   90.221">  5  6 -1 -1</clus>
<clus scale="   91.580">  7  8 -1 -1</clus>
<clus scale="  114.980">  2 10  1 -1</clus>
<clus scale="  153.053">  2  5  1 -1</clus>
<clus scale="   75.087">  2  5  1 -1</clus>
</clustering>
</event>
<event>
10    2  0.6640105E-006  0.3401758E+03  0.7546771E-02  0.1084806E+00
          1   -1    0    0  502    0 -0.00000000000E+00  0.00000000000E+00  0.32064863431E+03  0.32064863431E+03  0.00000000000E+00 0. -1.
         21   -1    0    0  503  502  0.00000000000E+00 -0.00000000000E+00 -0.67570855795E+03  0.67570855795E+03  0.00000000000E+00 0.  1.
         23    2    1    2    0    0 -0.17736943014E+03 -0.49627947697E+02 -0.10393220292E+03  0.23267174270E+03  0.97012314219E+02 0.  0.
         23    2    1    2    0    0  0.37531951636E+03 -0.95654816544E+02 -0.30211573428E+03  0.49959667551E+03  0.91150084971E+02 0.  0.
        -11    1    4    4    0    0  0.38814112646E+02  0.17716830643E+02 -0.36617879026E+02  0.56225354538E+02  0.00000000000E+00 0. -1.
         11    1    4    4    0    0  0.33650540372E+03 -0.11337164719E+03 -0.26549785526E+03  0.44337132097E+03  0.00000000000E+00 0.  1.
        -11    1    3    3    0    0 -0.10535353646E+03 -0.73615355906E+02 -0.86101321002E+02  0.15469979233E+03  0.00000000000E+00 0.  1.
         11    1    3    3    0    0 -0.72015893676E+02  0.23987408209E+02 -0.17830881914E+02  0.77971950370E+02  0.00000000000E+00 0. -1.
         21    1    1    2  503  501 -0.33250715531E+02 -0.31622573378E+01 -0.86128030744E+01  0.34493337495E+02  0.00000000000E+00 0. -1.
          1    1    1    2  501    0 -0.16469937070E+03  0.14844502158E+03  0.59600816629E+02  0.22959543654E+03  0.00000000000E+00 0. -1.
<scales pt_clust_5="13000.00000" pt_clust_6="13000.00000" pt_clust_7="13000.00000" pt_clust_8="13000.00000" pt_clust_9="32.12721" pt_clust_10="338.02829"></scales>
<clustering>
<clus scale="   32.127">  9 10 -1 -1</clus>
<clus scale="   91.150">  5  6 -1 -1</clus>
<clus scale="   97.012">  7  8 -1 -1</clus>
<clus scale="  208.169">  1  7  2 -1</clus>
<clus scale="  338.028">  2  9  1 -1</clus>
<clus scale="  338.028">  2  5  1 -1</clus>
</clustering>
</event>
<event>
10    2  0.6640105E-006  0.3307970E+03  0.7546771E-02  0.1111759E+00
          1   -1    0    0  502    0 -0.00000000000E+00  0.00000000000E+00  0.13002487334E+04  0.13002487334E+04  0.00000000000E+00 0. -1.
         21   -1    0    0  503  502  0.00000000000E+00 -0.00000000000E+00 -0.50436940198E+03  0.50436940198E+03  0.00000000000E+00 0. -1.
         23    2    1    2    0    0  0.12055655999E+02  0.65367460925E+02  0.63178398971E+02  0.12983458964E+03  0.91909013594E+02 0.  0.
         23    2    1    2    0    0 -0.29205728767E+03 -0.22122216638E+03  0.10949453501E+04  0.11581483026E+04  0.90362961887E+02 0.  0.
        -11    1    4    4    0    0 -0.10902412236E+03 -0.31566398413E+02  0.35066039801E+03  0.36857212523E+03  0.00000000000E+00 0.  1.
         11    1    4    4    0    0 -0.18303316531E+03 -0.18965576797E+03  0.74428495213E+03  0.78957617738E+03  0.00000000000E+00 0. -1.
        -11    1    3    3    0    0  0.30563704061E+02  0.55759729616E+02  0.29904196534E+00  0.63587552861E+02  0.00000000000E+00 0.  1.
         11    1    3    3    0    0 -0.18508048062E+02  0.96077313094E+01  0.62879357005E+02  0.66247036774E+02  0.00000000000E+00 0. -1.
         21    1    1    2  503  501  0.64183222458E+02 -0.40428259686E+02 -0.88826279148E+02  0.11680769707E+03  0.00000000000E+00 0. -1.
          1    1    1    2  501    0  0.21581840922E+03  0.19628296514E+03 -0.27341813850E+03  0.39982754610E+03  0.00000000000E+00 0. -1.
<scales pt_clust_5="13000.00000" pt_clust_6="13000.00000" pt_clust_7="13000.00000" pt_clust_8="13000.00000" pt_clust_9="75.85467" pt_clust_10="318.21559"></scales>
<clustering>
<clus scale="   75.855">  2  9  1 -1</clus>
<clus scale="   90.363">  5  6 -1 -1</clus>
<clus scale="   91.909">  7  8 -1 -1</clus>
<clus scale="  112.227">  1  7  2 -1</clus>
<clus scale="  318.216">  2 10  1 -1</clus>
<clus scale="   75.855">  2  5  1 -1</clus>
</clustering>
</event>
<event>
10    2  0.6640105E-006  0.1802113E+03  0.7546771E-02  0.1196001E+00
          2   -1    0    0  503    0 -0.00000000000E+00  0.00000000000E+00  0.11515390062E+04  0.11515390062E+04  0.00000000000E+00 0. -1.
         21   -1    0    0  501  502  0.00000000000E+00 -0.00000000000E+00 -0.25494262509E+03  0.25494262509E+03  0.00000000000E+00 0. -1.
         23    2    1    2    0    0  0.30813085319E+02  0.12390701396E+02  0.99359217607E+02  0.13771033093E+03  0.89380676963E+02 0.  0.
         23    2    1    2    0    0  0.11245428977E+03 -0.71466610490E+02  0.81364227089E+03  0.82852443642E+03  0.81765231335E+02 0.  0.
        -11    1    3    3    0    0 -0.16155130030E+02  0.26365566318E+02  0.49143327789E+01  0.31309455125E+02  0.00000000000E+00 0. -1.
         11    1    3    3    0    0  0.46968215349E+02 -0.13974864922E+02  0.94444884828E+02  0.10640087581E+03  0.00000000000E+00 0.  1.
        -13    1    4    4    0    0  0.18422740618E+02 -0.55503162986E+02  0.24101690905E+03  0.24801038067E+03  0.00000000000E+00 0.  1.
         13    1    4    4    0    0  0.94031549154E+02 -0.15963447504E+02  0.57262536185E+03  0.58051405575E+03  0.00000000000E+00 0. -1.
         21    1    1    2  503  502 -0.19881042971E+03  0.15713900343E+03 -0.12603122024E+03  0.28302318250E+03  0.00000000000E+00 0. -1.
          2    1    1    2  501    0  0.55543054620E+02 -0.98063094331E+02  0.10962611283E+03  0.15722368142E+03  0.00000000000E+00 0. -1.
<scales pt_clust_5="13000.00000" pt_clust_6="13000.00000" pt_clust_7="13000.00000" pt_clust_8="13000.00000" pt_clust_9="160.59436" pt_clust_10="113.34921"></scales>
<clustering>
<clus scale="   81.765">  7  8 -1 -1</clus>
<clus scale="   89.381">  5  6 -1 -1</clus>
<clus scale="   95.351">  1  5  2 -1</clus>
<clus scale="  113.349">  2 10  1 -1</clus>
<clus scale="  160.594">  2  9  1 -1</clus>
<clus scale="  113.349">  2  5  1 -1</clus>
</clustering>
</event>
<event>
10    2  0.6640105E-006  0.1057904E+03  0.7546771E-02  0.1270787E+00
          1   -1    0    0  503    0 -0.00000000000E+00  0.00000000000E+00  0.97212840440E+02  0.97212840440E+02  0.00000000000E+00 0. -1.
         21   -1    0    0  501  502  0.00000000000E+00 -0.00000000000E+00 -0.34427281951E+03  0.34427281951E+03  0.00000000000E+00 0. -1.
         23    2    1    2    0    0 -0.41473722491E+02 -0.81256161922E+01  0.11106143817E+02  0.10231976553E+03  0.92519688131E+02 0.  0.
         23    2    1    2    0    0  0.12102839320E+02 -0.34921105273E+01 -0.10024586399E+03  0.14031337782E+03  0.97364969030E+02 0.  0.
        -11    1    3    3    0    0  0.13006512357E+02 -0.35635934393E+02 -0.71764642114E+01  0.38608170409E+02  0.00000000000E+00 0.  1.
         11    1    3    3    0    0 -0.54480234848E+02  0.27510318201E+02  0.18282608029E+02  0.63711595122E+02  0.00000000000E+00 0. -1.
        -13    1    4    4    0    0  0.10910254573E+02 -0.47475741972E+02 -0.29344784010E+02  0.56869113579E+02  0.00000000000E+00 0.  1.
         13    1    4    4    0    0  0.11925847471E+01  0.43983631445E+02 -0.70901079977E+02  0.83444264245E+02  0.00000000000E+00 0. -1.
         21    1    1    2  503  502 -0.34097123208E+02  0.28960797045E+02 -0.26797745624E+02  0.52148449134E+02  0.00000000000E+00 0. -1.
          1    1    1    2  501    0  0.63468006379E+02 -0.17343070325E+02 -0.13112251327E+03  0.14670406746E+03  0.00000000000E+00 0. -1.
<scales pt_clust_5="13000.00000" pt_clust_6="13000.00000" pt_clust_7="13000.00000" pt_clust_8="13000.00000" pt_clust_9="44.73636" pt_clust_10="62.08477"></scales>
<clustering>
<clus scale="   44.736">  1  9  2 -1</clus>
<clus scale="   62.085">  2 10  1 -1</clus>
<clus scale="   92.520">  5  6 -1 -1</clus>
<clus scale="   97.365">  7  8 -1 -1</clus>
<clus scale="  101.349">  1  5  2 -1</clus>
<clus scale="   62.085">  2  5  1 -1</clus>
</clustering>
</event>
<event>
10    2  0.6640105E-006  0.1220579E+03  0.7546771E-02  0.1239889E+00
          1   -1    0    0  503    0 -0.00000000000E+00  0.00000000000E+00  0.55689375571E+03  0.55689375571E+03  0.00000000000E+00 0. -1.
         21   -1    0    0  501  502  0.00000000000E+00 -0.00000000000E+00 -0.13802571595E+03  0.13802571595E+03  0.00000000000E+00 0.  1.
         23    2    1    2    0    0 -0.46305671516E+02 -0.74553757788E+02  0.31511199068E+03  0.33961944555E+03  0.91341792785E+02 0.  0.
         23    2    1    2    0    0  0.42320526146E+02  0.57227510172E+02  0.20066771643E+03  0.23187660772E+03  0.91832532010E+02 0.  0.
        -11    1    4    4    0    0  0.11864519983E+02  0.37838945811E+02  0.14473190039E+02  0.42214048425E+02  0.00000000000E+00 0.  1.
         11    1    4    4    0    0  0.30456006163E+02  0.19388564361E+02  0.18619452639E+03  0.18966255929E+03  0.00000000000E+00 0. -1.
        -11    1    3    3    0    0 -0.70558889498E+02 -0.63864091170E+02  0.19990244218E+03  0.22140046391E+03  0.00000000000E+00 0.  1.
         11    1    3    3    0    0  0.24253217982E+02 -0.10689666618E+02  0.11520954850E+03  0.11821898164E+03  0.00000000000E+00 0. -1.
         21    1    1    2  503  502 -0.93631803499E+01 -0.26890628127E+02 -0.50321291431E+02  0.57818746083E+02  0.00000000000E+00 0.  1.
          1    1    1    2  501    0  0.13348325720E+02  0.44216875743E+02 -0.46590375919E+02  0.65604672305E+02  0.00000000000E+00 0. -1.
<scales pt_clust_5="13000.00000" pt_clust_6="13000.00000" pt_clust_7="13000.00000" pt_clust_8="13000.00000" pt_clust_9="28.47411" pt_clust_10="27.19029"></scales>
<clustering>
<clus scale="   28.474">  2  9  1 -1</clus>
<clus scale="   27.190">  2 10  1 -1</clus>
<clus scale="   91.342">  7  8 -1 -1</clus>
<clus scale="   91.833">  5  6 -1 -1</clus>
<clus scale="  121.689">  1  7  2 -1</clus>
<clus scale="   28.474">  2  5  1 -1</clus>
</clustering>
</event>
<event>
10    2  0.6640105E-006  0.1282540E+03  0.7546771E-02  0.1235359E+00
         21   -1    0    0  501  502  0.00000000000E+00  0.00000000000E+00  0.13912245418E+03  0.13912245418E+03  0.00000000000E+00 0. -1.
          2   -1    0    0  503    0 -0.00000000000E+00 -0.00000000000E+00 -0.52885428197E+03  0.52885428197E+03  0.00000000000E+00 0. -1.
         23    2    1    2    0    0 -0.23189595695E+02  0.44363836884E+02 -0.24279041800E+03  0.26459530289E+03  0.92507188192E+02 0.  0.
         23    2    1    2    0    0  0.42961889140E+02 -0.10724975262E+03 -0.19756536463E+03  0.25328311994E+03  0.10849899627E+03 0.  0.
        -11    1    4    4    0    0  0.64413856724E+02 -0.68474519807E+02 -0.67107994945E+02  0.11550492538E+03  0.00000000000E+00 0.  1.
         11    1    4    4    0    0 -0.21451967584E+02 -0.38775232809E+02 -0.13045736969E+03  0.13777819457E+03  0.00000000000E+00 0. -1.
        -11    1    3    3    0    0  0.32822525379E+02 -0.13699856741E+01 -0.73434882161E+02  0.80447976674E+02  0.00000000000E+00 0.  1.
         11    1    3    3    0    0 -0.56012121074E+02  0.45733822558E+02 -0.16935553584E+03  0.18414732621E+03  0.00000000000E+00 0. -1.
         21    1    1    2  503  502 -0.29699254220E+02  0.25601856857E+02  0.88024763329E+02  0.96363165862E+02  0.00000000000E+00 0. -1.
          2    1    1    2  501    0  0.99269607749E+01  0.37284058876E+02 -0.37400808491E+02  0.53735147458E+02  0.00000000000E+00 0. -1.
<scales pt_clust_5="13000.00000" pt_clust_6="13000.00000" pt_clust_7="13000.00000" pt_clust_8="13000.00000" pt_clust_9="56.60581" pt_clust_10="38.58299"></scales>
<clustering>
<clus scale="   38.583">  1 10  2 -1</clus>
<clus scale="   56.606">  1  9  2 -1</clus>
<clus scale="   92.507">  7  8 -1 -1</clus>
<clus scale="  108.499">  5  6 -1 -1</clus>
<clus scale="  115.042">  2  7  1 -1</clus>
<clus scale="   38.583">  1  5  2 -1</clus>
</clustering>
</event>
<event>
10    2  0.6640105E-006  0.9231441E+02  0.7546771E-02  0.1297915E+00
         -1   -1    0    0    0  501 -0.00000000000E+00  0.00000000000E+00  0.41866753137E+03  0.41866753137E+03  0.00000000000E+00 0.  1.
         21   -1    0    0  501  502  0.00000000000E+00 -0.00000000000E+00 -0.49696839501E+02  0.49696839501E+02  0.00000000000E+00 0. -1.
         23    2    1    2    0    0 -0.77040132166E+01  0.10465126937E+02  0.18835886258E+03  0.20938252809E+03  0.90515806659E+02 0.  0.
         23    2    1    2    0    0  0.37361580953E+01 -0.11113081581E+02  0.16829592960E+03  0.19191893562E+03  0.91498079051E+02 0.  0.
        -13    1    3    3    0    0 -0.28326069062E+02 -0.31412685599E+02  0.11390858591E+03  0.12150839045E+03  0.00000000000E+00 0.  1.
         13    1    3    3    0    0  0.20622055845E+02  0.41877812536E+02  0.74450276671E+02  0.87874137642E+02  0.00000000000E+00 0. -1.
        -13    1    4    4    0    0  0.35777115974E+02  0.12813944694E+01  0.14745126917E+03  0.15173503478E+03  0.00000000000E+00 0.  1.
         13    1    4    4    0    0 -0.32040957879E+02 -0.12394476050E+02  0.20844660428E+02  0.40183900840E+02  0.00000000000E+00 0. -1.
         21    1    1    2  503  502 -0.11801839950E+02 -0.23857304446E+02 -0.11916914240E+02  0.29162771587E+02  0.00000000000E+00 0.  1.
         -1    1    1    2    0  503  0.15769695072E+02  0.24505259090E+02  0.24232813934E+02  0.37900135579E+02  0.00000000000E+00 0.  1.
<scales pt_clust_5="13000.00000" pt_clust_6="13000.00000" pt_clust_7="13000.00000" pt_clust_8="13000.00000" pt_clust_9="26.61681" pt_clust_10="22.95263"></scales>
<clustering>
<clus scale="   26.617">  2  9  1 -1</clus>
<clus scale="   22.953">  2 10  1 -1</clus>
<clus scale="   90.516">  5  6 -1 -1</clus>
<clus scale="   91.341">  1  5  2 -1</clus>
<clus scale="   91.498">  7  8 -1 -1</clus>
<clus scale="   26.617">  2  5  1 -1</clus>
</clustering>
</event>
<event>
10    2  0.6640105E-006  0.4865664E+03  0.7546771E-02  0.1029534E+00
          1   -1    0    0  503    0 -0.00000000000E+00  0.00000000000E+00  0.92475037449E+03  0.92475037449E+03  0.00000000000E+00 0. -1.
         21   -1    0    0  501  502  0.00000000000E+00 -0.00000000000E+00 -0.87927619262E+03  0.87927619262E+03  0.00000000000E+00 0. -1.
         23    2    1    2    0    0  0.97168930958E+02 -0.31030902819E+03 -0.99358425942E+02  0.34977484629E+03  0.82078329491E+02 0.  0.
         23    2    1    2    0    0  0.41141239752E+03  0.29920123342E+03  0.54644440164E+03  0.75221532383E+03  0.91895976002E+02 0.  0.
        -11    1    4    4    0    0  0.28732465063E+03  0.25788509221E+03  0.41356042282E+03  0.56576708898E+03  0.00000000000E+00 0. -1.
         11    1    4    4    0    0  0.12408774689E+03  0.41316141204E+02  0.13288397882E+03  0.18644823485E+03  0.00000000000E+00 0.  1.
        -11    1    3    3    0    0  0.85412566577E+02 -0.20487079259E+03 -0.10055289881E+03  0.24367649383E+03  0.00000000000E+00 0. -1.
         11    1    3    3    0    0  0.11756364381E+02 -0.10543823560E+03  0.11944728642E+01  0.10609835246E+03  0.00000000000E+00 0.  1.
         21    1    1    2  503  502 -0.33467292211E+02 -0.16376501902E+02 -0.16762703206E+03  0.17171799946E+03  0.00000000000E+00 0. -1.
          1    1    1    2  501    0 -0.47511403627E+03  0.27484296672E+02 -0.23398476177E+03  0.53031839754E+03  0.00000000000E+00 0. -1.
<scales pt_clust_5="13000.00000" pt_clust_6="13000.00000" pt_clust_7="13000.00000" pt_clust_8="13000.00000" pt_clust_9="37.25922" pt_clust_10="477.80954"></scales>
<clustering>
<clus scale="   37.259">  2  9  1 -1</clus>
<clus scale="   82.078">  7  8 -1 -1</clus>
<clus scale="   91.896">  5  6 -1 -1</clus>
<clus scale="  337.295">  1  7  2 -1</clus>
<clus scale="  477.810">  2 10  1 -1</clus>
<clus scale="   37.259">  2  5  1 -1</clus>
</clustering>
</event>
<event>
10    2  0.6640105E-006  0.1501721E+03  0.7546771E-02  0.1201417E+00
         21   -1    0    0  501  502  0.00000000000E+00  0.00000000000E+00  0.34274520396E+03  0.34274520396E+03  0.00000000000E+00 0. -1.
          1   -1    0    0  503    0 -0.00000000000E+00 -0.00000000000E+00 -0.36806699932E+03  0.36806699932E+03  0.00000000000E+00 0. -1.
         23    2    1    2    0    0  0.74628219011E+02  0.90875111233E+02 -0.27639294802E+03  0.31558552187E+03  0.96816852793E+02 0.  0.
         23    2    1    2    0    0 -0.94126320062E+02 -0.54898921787E+02  0.16931540207E+02  0.14293743227E+03  0.90943810939E+02 0.  0.
        -11    1    3    3    0    0  0.44692796271E+02  0.68637616352E+02 -0.26380419289E+03  0.27622675577E+03  0.00000000000E+00 0. -1.
         11    1    3    3    0    0  0.29935422740E+02  0.22237494881E+02 -0.12588755129E+02  0.39358766100E+02  0.00000000000E+00 0.  1.
        -13    1    4    4    0    0 -0.39638444407E+02 -0.63767209080E+02  0.37623504159E+02  0.83982089126E+02  0.00000000000E+00 0.  1.
         13    1    4    4    0    0 -0.54487875655E+02  0.88682872931E+01 -0.20691963952E+02  0.58955343143E+02  0.00000000000E+00 0. -1.
         21    1    1    2  503  502 -0.31487106019E+02 -0.18964342018E+01  0.62225437416E+02  0.69764169670E+02  0.00000000000E+00 0. -1.
          1    1    1    2  501    0  0.50985207071E+02 -0.34079755244E+02  0.17191417503E+03  0.18252507947E+03  0.00000000000E+00 0. -1.
<scales pt_clust_5="13000.00000" pt_clust_6="13000.00000" pt_clust_7="13000.00000" pt_clust_8="13000.00000" pt_clust_9="31.54416" pt_clust_10="46.85811"></scales>
<clustering>
<clus scale="   31.544">  1  9  2 -1</clus>
<clus scale="   46.858">  1 10  2 -1</clus>
<clus scale="   90.944">  7  8 -1 -1</clus>
<clus scale="   96.817">  5  6 -1 -1</clus>
<clus scale="  146.455">  1  7  2 -1</clus>
<clus scale="   31.544">  1  5  2 -1</clus>
</clustering>
</event>
<event>
10    2  0.6640105E-006  0.1926348E+03  0.7546771E-02  0.1156688E+00
         21   -1    0    0  501  502  0.00000000000E+00  0.00000000000E+00  0.50554939838E+03  0.50554939838E+03  0.00000000000E+00 0.  1.
          2   -1    0    0  503    0 -0.00000000000E+00 -0.00000000000E+00 -0.17037229802E+03  0.17037229802E+03  0.00000000000E+00 0. -1.
         23    2    1    2    0    0 -0.56221120256E+01 -0.18392974895E+03 -0.42040871002E+01  0.20368681765E+03  0.87228920921E+02 0.  0.
         23    2    1    2    0    0 -0.18273883403E+02  0.14461931729E+03  0.11227155863E+03  0.20605888772E+03  0.92772197253E+02 0.  0.
        -11    1    3    3    0    0  0.17848452340E+02 -0.57985976335E+02  0.34579072808E+02  0.69833036442E+02  0.00000000000E+00 0.  1.
         11    1    3    3    0    0 -0.23470564366E+02 -0.12594377261E+03 -0.38783159908E+02  0.13385378121E+03  0.00000000000E+00 0. -1.
        -13    1    4    4    0    0  0.32812075107E+02  0.35841771719E+02  0.13315691240E+02  0.50384248590E+02  0.00000000000E+00 0.  1.
         13    1    4    4    0    0 -0.51085958511E+02  0.10877754557E+03  0.98955867386E+02  0.15567463913E+03  0.00000000000E+00 0. -1.
         21    1    1    2  503  502 -0.48203764413E+02  0.44727070157E+02  0.12210964239E+03  0.13868986435E+03  0.00000000000E+00 0.  1.
          2    1    1    2  501    0  0.72099759841E+02 -0.54166385033E+01  0.10499998645E+03  0.12748612668E+03  0.00000000000E+00 0. -1.
<scales pt_clust_5="13000.00000" pt_clust_6="13000.00000" pt_clust_7="13000.00000" pt_clust_8="13000.00000" pt_clust_9="65.75799" pt_clust_10="57.78351"></scales>
<clustering>
<clus scale="   65.758">  1  9  2 -1</clus>
<clus scale="   57.784">  1 10  2 -1</clus>
<clus scale="   87.229">  5  6 -1 -1</clus>
<clus scale="   92.772">  7  8 -1 -1</clus>
<clus scale="  190.027">  2  5  1 -1</clus>
<clus scale="   65.758">  1  5  2 -1</clus>
</clustering>
</event>
<event>
10    2  0.6640105E-006  0.1740726E+03  0.7546771E-02  0.1174158E+00
         21   -1    0    0  501  502  0.00000000000E+00  0.00000000000E+00  0.83425693889E+03  0.83425693889E+03  0.00000000000E+00 0.  1.
          4   -1    0    0  503    0 -0.00000000000E+00 -0.00000000000E+00 -0.54176806936E+03  0.54176806936E+03  0.00000000000E+00 0. -1.
         23    2    1    2    0    0 -0.12981309614E+03 -0.75113183930E+02 -0.37600873630E+03  0.41486157618E+03  0.90742092154E+02 0.  0.
         23    2    1    2    0    0  0.49096447687E+02  0.17849800457E+03  0.17167551309E+02  0.20525926593E+03  0.86974953994E+02 0.  0.
        -11    1    4    4    0    0  0.18757244386E+02  0.16509893876E+03 -0.34683283013E+01  0.16619724155E+03  0.00000000000E+00 0. -1.
         11    1    4    4    0    0  0.30339203302E+02  0.13399065804E+02  0.20635879610E+02  0.39062024380E+02  0.00000000000E+00 0.  1.
        -13    1    3    3    0    0 -0.51700174818E+02 -0.46080009014E+01 -0.22432925198E+03  0.23025584692E+03  0.00000000000E+00 0. -1.
         13    1    3    3    0    0 -0.78112921325E+02 -0.70505183028E+02 -0.15167948432E+03  0.18460572926E+03  0.00000000000E+00 0.  1.
         21    1    1    2  503  502 -0.45948031486E+02 -0.98768006144E+02  0.61426197892E+03  0.62384623056E+03  0.00000000000E+00 0.  1.
          4    1    1    2  501    0  0.12666467994E+03 -0.46168144917E+01  0.37068075609E+02  0.13205793558E+03  0.00000000000E+00 0. -1.
<scales pt_clust_5="13000.00000" pt_clust_6="13000.00000" pt_clust_7="13000.00000" pt_clust_8="13000.00000" pt_clust_9="108.93273" pt_clust_10="116.96997"></scales>
<clustering>
<clus scale="   86.975">  5  6 -1 -1</clus>
<clus scale="   90.742">  7  8 -1 -1</clus>
<clus scale="  108.933">  1  9  2 -1</clus>
<clus scale="  116.970">  1 10  2 -1</clus>
<clus scale="  172.139">  1  5  2 -1</clus>
<clus scale="  108.933">  1  5  2 -1</clus>
</clustering>
</event>
<event>
10    2  0.6640105E-006  0.2190331E+03  0.7546771E-02  0.1134657E+00
          1   -1    0    0  503    0 -0.00000000000E+00  0.00000000000E+00  0.10573527355E+04  0.10573527355E+04  0.00000000000E+00 0. -1.
         21   -1    0    0  501  502  0.00000000000E+00 -0.00000000000E+00 -0.10473101175E+03  0.10473101175E+03  0.00000000000E+00 0.  1.
         23    2    1    2    0    0  0.15012468931E+03  0.11726003511E+03  0.58291744928E+03  0.61998563602E+03  0.91115849452E+02 0.  0.
         23    2    1    2    0    0 -0.18247363882E+03 -0.11375887128E+03  0.38960825833E+03  0.45410985825E+03  0.90462471440E+02 0.  0.
        -11    1    3    3    0    0  0.28105780616E+02  0.26181340803E+02  0.37377384414E+02  0.53595395100E+02  0.00000000000E+00 0.  1.
         11    1    3    3    0    0  0.12201890869E+03  0.91078694310E+02  0.54554006486E+03  0.56639024092E+03  0.00000000000E+00 0. -1.
        -13    1    4    4    0    0 -0.16235160416E+03 -0.59990265695E+02  0.32065601842E+03  0.36438600070E+03  0.00000000000E+00 0.  1.
         13    1    4    4    0    0 -0.20122034654E+02 -0.53768605588E+02  0.68952239905E+02  0.89723857549E+02  0.00000000000E+00 0. -1.
         21    1    1    2  503  502 -0.25132247893E+02  0.26183429008E+01  0.37211619497E+01  0.25540803628E+02  0.00000000000E+00 0.  1.
          1    1    1    2  501    0  0.57481197401E+02 -0.61195067311E+01 -0.23625145804E+02  0.62447449360E+02  0.00000000000E+00 0. -1.
<scales pt_clust_5="13000.00000" pt_clust_6="13000.00000" pt_clust_7="13000.00000" pt_clust_8="13000.00000" pt_clust_9="25.26827" pt_clust_10="46.21536"></scales>
<clustering>
<clus scale="   25.268">  2  9  1 -1</clus>
<clus scale="   46.215">  2 10  1 -1</clus>
<clus scale="   90.462">  7  8 -1 -1</clus>
<clus scale="   91.116">  5  6 -1 -1</clus>
<clus scale="  218.762">  2  7  1 -1</clus>
<clus scale="   25.268">  2  5  1 -1</clus>
</clustering>
</event>
<event>
10    2  0.6640105E-006  0.1168085E+03  0.7546771E-02  0.1249266E+00
         21   -1    0    0  501  502  0.00000000000E+00  0.00000000000E+00  0.11223008670E+03  0.11223008670E+03  0.00000000000E+00 0.  1.
          2   -1    0    0  503    0 -0.00000000000E+00 -0.00000000000E+00 -0.54474322259E+03  0.54474322259E+03  0.00000000000E+00 0. -1.
         23    2    1    2    0    0  0.59468485453E+02  0.90707775776E+01 -0.22068865323E+03  0.24577956335E+03  0.89918476019E+02 0.  0.
         23    2    1    2    0    0 -0.84523421595E+02 -0.15040320519E+02 -0.23814690898E+03  0.26945229866E+03  0.92304772132E+02 0.  0.
        -13    1    3    3    0    0  0.76258426377E+02 -0.56305605713E+01 -0.11739204867E+03  0.14009976408E+03  0.00000000000E+00 0. -1.
         13    1    3    3    0    0 -0.16789940924E+02  0.14701338149E+02 -0.10329660456E+03  0.10567979927E+03  0.00000000000E+00 0.  1.
        -13    1    4    4    0    0 -0.34290370910E+02  0.38650273956E+02 -0.11407043313E+03  0.12522674207E+03  0.00000000000E+00 0. -1.
         13    1    4    4    0    0 -0.50233050686E+02 -0.53690594475E+02 -0.12407647585E+03  0.14422555660E+03  0.00000000000E+00 0.  1.
         21    1    1    2  503  502  0.10819842432E+02  0.35345863619E+02  0.74720250419E+02  0.83363750443E+02  0.00000000000E+00 0.  1.
          2    1    1    2  501    0  0.14235093710E+02 -0.29376320678E+02 -0.48397824102E+02  0.58377696831E+02  0.00000000000E+00 0. -1.
<scales pt_clust_5="13000.00000" pt_clust_6="13000.00000" pt_clust_7="13000.00000" pt_clust_8="13000.00000" pt_clust_9="25.33218" pt_clust_10="32.64364"></scales>
<clustering>
<clus scale="   32.644">  1 10  2 -1</clus>
<clus scale="   25.332">  1  9  2 -1</clus>
<clus scale="   89.918">  5  6 -1 -1</clus>
<clus scale="   92.305">  7  8 -1 -1</clus>
<clus scale="  114.932">  2  5  1 -1</clus>
<clus scale="   32.644">  1  5  2 -1</clus>
</clustering>
</event>
<event>
10    2  0.9543371E-006  0.1975104E+03  0.7546771E-02  0.1163414E+00
         -2   -1    0    0    0  501 -0.00000000000E+00  0.00000000000E+00  0.69213287233E+03  0.69213287233E+03  0.00000000000E+00 0.  1.
         21   -1    0    0  501  502  0.00000000000E+00 -0.00000000000E+00 -0.19459971449E+03  0.19459971449E+03  0.00000000000E+00 0.  1.
         23    2    1    2    0    0  0.89085368824E+02  0.83696586967E+02  0.39330877990E+01  0.15079932878E+03  0.88224978171E+02 0.  0.
         23    2    1    2    0    0 -0.16550937950E+03  0.77496164034E+02  0.50800466274E+03  0.54794487632E+03  0.93679453362E+02 0.  0.
        -13    1    4    4    0    0 -0.15694206551E+03  0.33417399042E+02  0.39616944282E+03  0.42743158740E+03  0.00000000000E+00 0.  1.
         13    1    4    4    0    0 -0.85673139907E+01  0.44078764992E+02  0.11183521992E+03  0.12051328892E+03  0.00000000000E+00 0. -1.
        -13    1    3    3    0    0  0.27971082886E+02  0.84630916493E+02 -0.36569146792E+01  0.89208444271E+02  0.00000000000E+00 0.  1.
         13    1    3    3    0    0  0.61114285938E+02 -0.93432952604E+00  0.75900024782E+01  0.61590884512E+02  0.00000000000E+00 0. -1.
         21    1    1    2  503  502 -0.86292693836E+01 -0.20523452123E+02 -0.73794454747E+01  0.23454905514E+02  0.00000000000E+00 0.  1.
         -2    1    1    2    0  503  0.85053280061E+02 -0.14066929888E+03 -0.70251472180E+01  0.16453347620E+03  0.00000000000E+00 0.  1.
<scales pt_clust_5="13000.00000" pt_clust_6="13000.00000" pt_clust_7="13000.00000" pt_clust_8="13000.00000" pt_clust_9="21.16801" pt_clust_10="183.14732"></scales>
<clustering>
<clus scale="   21.168">  9 10 -1 -1</clus>
<clus scale="   88.225">  7  8 -1 -1</clus>
<clus scale="   93.679">  5  6 -1 -1</clus>
<clus scale="  150.748">  1  7  2 -1</clus>
<clus scale="  183.147">  2  9  1 -1</clus>
<clus scale="  183.147">  2  5  1 -1</clus>
</clustering>
</event>
<event>
10    2  0.6640105E-006  0.1079882E+03  0.7546771E-02  0.1268587E+00
         21   -1    0    0  501  502  0.00000000000E+00  0.00000000000E+00  0.86634455724E+02  0.86634455724E+02  0.00000000000E+00 0. -1.
          1   -1    0    0  503    0 -0.00000000000E+00 -0.00000000000E+00 -0.75454701304E+03  0.75454701304E+03  0.00000000000E+00 0. -1.
         23    2    1    2    0    0 -0.54948768443E+02 -0.86189038836E+01 -0.39117013095E+03  0.40543455519E+03  0.90936541257E+02 0.  0.
         23    2    1    2    0    0  0.17565952737E+02  0.21690513408E+02 -0.32747974555E+03  0.34360842986E+03  0.10022339178E+03 0.  0.
        -11    1    4    4    0    0 -0.35353648478E+02  0.95573302295E+01 -0.57127553581E+02  0.67858532256E+02  0.00000000000E+00 0. -1.
         11    1    4    4    0    0  0.52919601215E+02  0.12133183178E+02 -0.27035219197E+03  0.27574989760E+03  0.00000000000E+00 0.  1.
        -13    1    3    3    0    0 -0.75169218719E+02 -0.23057721377E+02 -0.24929552127E+03  0.26140070176E+03  0.00000000000E+00 0. -1.
         13    1    3    3    0    0  0.20220450277E+02  0.14438817494E+02 -0.14187460969E+03  0.14403385343E+03  0.00000000000E+00 0.  1.
         21    1    1    2  503  502 -0.16095425210E+02 -0.15060254977E+02  0.23019336717E+02  0.31871050431E+02  0.00000000000E+00 0.  1.
          1    1    1    2  501    0  0.53478240915E+02  0.19886454527E+01  0.27717982469E+02  0.60267433281E+02  0.00000000000E+00 0. -1.
<scales pt_clust_5="13000.00000" pt_clust_6="13000.00000" pt_clust_7="13000.00000" pt_clust_8="13000.00000" pt_clust_9="22.04255" pt_clust_10="42.52348"></scales>
<clustering>
<clus scale="   22.043">  1  9  2 -1</clus>
<clus scale="   42.523">  1 10  2 -1</clus>
<clus scale="   90.937">  7  8 -1 -1</clus>
<clus scale="   99.429">  2  7  1 -1</clus>
<clus scale="  100.223">  5  6 -1 -1</clus>
<clus scale="   22.043">  1  5  2 -1</clus>
</clustering>
</event>
<event>
10    2  0.6640105E-006  0.9115538E+02  0.7546771E-02  0.1302241E+00
         -1   -1    0    0    0  501 -0.00000000000E+00  0.00000000000E+00  0.38484819147E+03  0.38484819147E+03  0.00000000000E+00 0.  1.
         21   -1    0    0  503  502  0.00000000000E+00 -0.00000000000E+00 -0.62471630493E+02  0.62471630493E+02  0.00000000000E+00 0.  1.
         23    2    1    2    0    0  0.10313698104E+02  0.62482117930E+00  0.18258812804E+03  0.20416109054E+03  0.90755515629E+02 0.  0.
         23    2    1    2    0    0  0.14154944968E+02 -0.23314406725E+02  0.77185119675E+02  0.11959186081E+03  0.87182259924E+02 0.  0.
        -11    1    3    3    0    0  0.35630411939E+02 -0.32287653793E+02  0.11747840484E+03  0.12693775816E+03  0.00000000000E+00 0. -1.
         11    1    3    3    0    0 -0.25316713835E+02  0.32912474972E+02  0.65109723201E+02  0.77223332378E+02  0.00000000000E+00 0.  1.
        -13    1    4    4    0    0  0.22512393964E+02 -0.42160221647E+02  0.93591779250E+01  0.48702016208E+02  0.00000000000E+00 0. -1.
         13    1    4    4    0    0 -0.83574489956E+01  0.18845814922E+02  0.67825941750E+02  0.70889844604E+02  0.00000000000E+00 0.  1.
         21    1    1    2  503  501 -0.34116160187E+02 -0.12982788720E+02 -0.13537420026E+02  0.38932337842E+02  0.00000000000E+00 0.  1.
         -1    1    1    2    0  502  0.96475171149E+01  0.35672374265E+02  0.76140733287E+02  0.84634532773E+02  0.00000000000E+00 0.  1.
<scales pt_clust_5="13000.00000" pt_clust_6="13000.00000" pt_clust_7="13000.00000" pt_clust_8="13000.00000" pt_clust_9="36.50295" pt_clust_10="34.61491"></scales>
<clustering>
<clus scale="   36.503">  2  9  1 -1</clus>
<clus scale="   34.615">  2 10  1 -1</clus>
<clus scale="   87.182">  7  8 -1 -1</clus>
<clus scale="   87.598">  2  7  1 -1</clus>
<clus scale="   90.756">  5  6 -1 -1</clus>
<clus scale="   36.503">  2  5  1 -1</clus>
</clustering>
</event>
<event>
10    2  0.6640105E-006  0.1172493E+03  0.7546771E-02  0.1248098E+00
          1   -1    0    0  502    0 -0.00000000000E+00  0.00000000000E+00  0.70909324263E+03  0.70909324263E+03  0.00000000000E+00 0. -1.
         21   -1    0    0  503  502  0.00000000000E+00 -0.00000000000E+00 -0.41903774756E+02  0.41903774756E+02  0.00000000000E+00 0. -1.
         23    2    1    2    0    0  0.32452190135E+02 -0.10012338600E+03  0.29407618194E+03  0.32529165221E+03  0.90862649882E+02 0.  0.
         23    2    1    2    0    0  0.34744149277E+02  0.46715882983E+02  0.15752417522E+03  0.19038004122E+03  0.89672541435E+02 0.  0.
        -11    1    4    4    0    0  0.64011303887E+02  0.43660345242E+02  0.11497168101E+03  0.13864400531E+03  0.00000000000E+00 0. -1.
         11    1    4    4    0    0 -0.29267154610E+02  0.30555377411E+01  0.42552494201E+02  0.51736035919E+02  0.00000000000E+00 0.  1.
        -13    1    3    3    0    0 -0.31718904606E+02 -0.28210671244E+02  0.98441958833E+02  0.10720424497E+03  0.00000000000E+00 0.  1.
         13    1    3    3    0    0  0.64171094742E+02 -0.71912714754E+02  0.19563422311E+03  0.21808740724E+03  0.00000000000E+00 0. -1.
         21    1    1    2  503  501 -0.34540480890E+02  0.67307932763E+01  0.59016429677E+02  0.68711624708E+02  0.00000000000E+00 0. -1.
          1    1    1    2  501    0 -0.32655858523E+02  0.46676709739E+02  0.15657268104E+03  0.16661369924E+03  0.00000000000E+00 0. -1.
<scales pt_clust_5="13000.00000" pt_clust_6="13000.00000" pt_clust_7="13000.00000" pt_clust_8="13000.00000" pt_clust_9="30.75959" pt_clust_10="94.33638"></scales>
<clustering>
<clus scale="   30.760">  9 10 -1 -1</clus>
<clus scale="   89.673">  5  6 -1 -1</clus>
<clus scale="   90.863">  7  8 -1 -1</clus>
<clus scale="   94.336">  2  9  1 -1</clus>
<clus scale="  116.329">  2  5  1 -1</clus>
<clus scale="   94.336">  2  5  1 -1</clus>
</clustering>
</event>
<event>
10    2  0.6640105E-006  0.1174448E+03  0.7546771E-02  0.1249713E+00
         21   -1    0    0  501  502  0.00000000000E+00  0.00000000000E+00  0.17016396597E+03  0.17016396597E+03  0.00000000000E+00 0.  1.
         -1   -1    0    0    0  501 -0.00000000000E+00 -0.00000000000E+00 -0.38991771262E+03  0.38991771262E+03  0.00000000000E+00 0.  1.
         23    2    1    2    0    0 -0.27744332993E+02 -0.83220500592E+02 -0.28660922362E+03  0.31302324556E+03  0.90240265216E+02 0.  0.
         23    2    1    2    0    0  0.17381970426E+02 -0.46878560144E+01 -0.20052212828E+02  0.10051696107E+03  0.96837282770E+02 0.  0.
        -11    1    4    4    0    0  0.55365378474E+02 -0.16030017997E+02 -0.19577759709E+02  0.60873436619E+02  0.00000000000E+00 0.  1.
         11    1    4    4    0    0 -0.37983408048E+02  0.11342161983E+02 -0.47445311869E+00  0.39643524455E+02  0.00000000000E+00 0. -1.
        -11    1    3    3    0    0  0.21143105652E+02 -0.57915119018E+02 -0.20878393442E+03  0.21769686080E+03  0.00000000000E+00 0.  1.
         11    1    3    3    0    0 -0.48887438645E+02 -0.25305381573E+02 -0.77825289195E+02  0.95326384764E+02  0.00000000000E+00 0. -1.
         21    1    1    2  503  502  0.21556774198E+02 -0.95851736129E+00  0.39960959501E+02  0.45414662320E+02  0.00000000000E+00 0.  1.
         -1    1    1    2    0  503 -0.11194411632E+02  0.88866873967E+02  0.46946730297E+02  0.10112680963E+03  0.00000000000E+00 0.  1.
<scales pt_clust_5="13000.00000" pt_clust_6="13000.00000" pt_clust_7="13000.00000" pt_clust_8="13000.00000" pt_clust_9="21.57807" pt_clust_10="88.32012"></scales>
<clustering>
<clus scale="   21.578">  1  9  2 -1</clus>
<clus scale="   88.320">  1 10  2 -1</clus>
<clus scale="   90.240">  7  8 -1 -1</clus>
<clus scale="   96.837">  5  6 -1 -1</clus>
<clus scale="  112.067">  2  7  1 -1</clus>
<clus scale="   21.578">  1  5  2 -1</clus>
</clustering>
</event>
<event>
10    2  0.6640105E-006  0.9566897E+02  0.7546771E-02  0.1302650E+00
         21   -1    0    0  503  502  0.00000000000E+00  0.00000000000E+00  0.51870168192E+02  0.51870168192E+02  0.00000000000E+00 0. -1.
         -4   -1    0    0    0  501 -0.00000000000E+00 -0.00000000000E+00 -0.37623736819E+03  0.37623736819E+03  0.00000000000E+00 0.  1.
         23    2    1    2    0    0 -0.13095205724E+02 -0.19007476229E+02 -0.93037904064E+02  0.11580100628E+03  0.64969630569E+02 0.  0.
         23    2    1    2    0    0  0.18855991448E+02  0.54496176417E+02 -0.17360999736E+03  0.20293658323E+03  0.87848983913E+02 0.  0.
        -11    1    4    4    0    0  0.50051434077E+02  0.46229667870E+02 -0.86969763027E+02  0.11048107496E+03  0.00000000000E+00 0. -1.
         11    1    4    4    0    0 -0.31195442629E+02  0.82665085473E+01 -0.86640234328E+02  0.92455508267E+02  0.00000000000E+00 0.  1.
        -13    1    3    3    0    0  0.17688574829E+02  0.10794682700E+02 -0.53992216683E+02  0.57832260170E+02  0.00000000000E+00 0. -1.
         13    1    3    3    0    0 -0.30783780553E+02 -0.29802158929E+02 -0.39045687381E+02  0.57968746105E+02  0.00000000000E+00 0.  1.
         21    1    1    2  503  501  0.22359529162E+02  0.18900531973E+02 -0.76098409503E+01  0.30250426981E+02  0.00000000000E+00 0. -1.
         -4    1    1    2    0  502 -0.28120314886E+02 -0.54389232161E+02 -0.50109457625E+02  0.79119519891E+02  0.00000000000E+00 0.  1.
<scales pt_clust_5="13000.00000" pt_clust_6="13000.00000" pt_clust_7="13000.00000" pt_clust_8="13000.00000" pt_clust_9="29.27761" pt_clust_10="51.70454"></scales>
<clustering>
<clus scale="   29.278">  1  9  2 -1</clus>
<clus scale="   51.705">  1 10  2 -1</clus>
<clus scale="   64.970">  7  8 -1 -1</clus>
<clus scale="   75.207">  2  7  1 -1</clus>
<clus scale="   87.849">  5  6 -1 -1</clus>
<clus scale="   29.278">  1  5  2 -1</clus>
</clustering>
</event>
<event>
10    2  0.6640105E-006  0.1663414E+03  0.7546771E-02  0.1181866E+00
         21   -1    0    0  503  502  0.00000000000E+00  0.00000000000E+00  0.42926382241E+03  0.42926382241E+03  0.00000000000E+00 0.  1.
         -2   -1    0    0    0  501 -0.00000000000E+00 -0.00000000000E+00 -0.34505868036E+03  0.34505868036E+03  0.00000000000E+00 0.  1.
         23    2    1    2    0    0  0.66798187863E+02  0.13195749511E+03 -0.23672992819E+03  0.29403266207E+03  0.92408706546E+02 0.  0.
         23    2    1    2    0    0 -0.56669453246E+02 -0.99140541777E+02 -0.14996049224E+01  0.14628421863E+03  0.91414166573E+02 0.  0.
        -13    1    3    3    0    0 -0.21186174705E+02  0.93072443912E+01 -0.37751693848E+02  0.44279444274E+02  0.00000000000E+00 0. -1.
         13    1    3    3    0    0  0.87984362567E+02  0.12265025072E+03 -0.19897823434E+03  0.24975321780E+03  0.00000000000E+00 0.  1.
        -13    1    4    4    0    0 -0.68979519910E+02 -0.42985106052E+02 -0.23693929306E+02  0.84659883034E+02  0.00000000000E+00 0. -1.
         13    1    4    4    0    0  0.12310066665E+02 -0.56155435725E+02  0.22194324384E+02  0.61624335596E+02  0.00000000000E+00 0.  1.
         21    1    1    2  503  501  0.21654793470E+02  0.36400206447E+01  0.27793863310E+02  0.35421443621E+02  0.00000000000E+00 0.  1.
         -2    1    1    2    0  502 -0.31783528087E+02 -0.36456973976E+02  0.29464081186E+03  0.29858417845E+03  0.00000000000E+00 0.  1.
<scales pt_clust_5="13000.00000" pt_clust_6="13000.00000" pt_clust_7="13000.00000" pt_clust_8="13000.00000" pt_clust_9="21.95859" pt_clust_10="37.18666"></scales>
<clustering>
<clus scale="   21.959">  1  9  2 -1</clus>
<clus scale="   37.187">  1 10  2 -1</clus>
<clus scale="   91.414">  7  8 -1 -1</clus>
<clus scale="   92.409">  5  6 -1 -1</clus>
<clus scale="  165.791">  1  7  2 -1</clus>
<clus scale="   21.959">  1  5  2 -1</clus>
</clustering>
</event>
<event>
10    2  0.6640105E-006  0.1672433E+03  0.7546771E-02  0.1181096E+00
          1   -1    0    0  503    0 -0.00000000000E+00  0.00000000000E+00  0.29553791362E+03  0.29553791362E+03  0.00000000000E+00 0. -1.
         21   -1    0    0  501  502  0.00000000000E+00 -0.00000000000E+00 -0.23134534312E+03  0.23134534312E+03  0.00000000000E+00 0.  1.
         23    2    1    2    0    0  0.36556060424E+02 -0.15944372805E+03  0.16646873874E+03  0.24977976366E+03  0.88991243315E+02 0.  0.
         23    2    1    2    0    0 -0.18476536398E+02  0.97337262732E+02 -0.10418975664E+02  0.13517115744E+03  0.91360613153E+02 0.  0.
        -11    1    3    3    0    0  0.61667973051E+02 -0.72095681181E+02  0.76219379555E+02  0.12169683630E+03  0.00000000000E+00 0.  1.
         11    1    3    3    0    0 -0.25111912627E+02 -0.87348046869E+02  0.90249359185E+02  0.12808292736E+03  0.00000000000E+00 0. -1.
        -13    1    4    4    0    0 -0.39686048432E+02  0.90842076694E+02 -0.32053588803E+02  0.10418588145E+03  0.00000000000E+00 0. -1.
         13    1    4    4    0    0  0.21209512034E+02  0.64951860373E+01  0.21634613139E+02  0.30985275988E+02  0.00000000000E+00 0.  1.
         21    1    1    2  503  502 -0.87310179978E+00  0.21193711115E+02 -0.95093735915E+02  0.97430766742E+02  0.00000000000E+00 0.  1.
          1    1    1    2  501    0 -0.17206422226E+02  0.40912754203E+02  0.32365433385E+01  0.44501568906E+02  0.00000000000E+00 0. -1.
<scales pt_clust_5="13000.00000" pt_clust_6="13000.00000" pt_clust_7="13000.00000" pt_clust_8="13000.00000" pt_clust_9="21.21169" pt_clust_10="47.43289"></scales>
<clustering>
<clus scale="   21.212">  2  9  1 -1</clus>
<clus scale="   47.433">  2 10  1 -1</clus>
<clus scale="   88.991">  5  6 -1 -1</clus>
<clus scale="   91.361">  7  8 -1 -1</clus>
<clus scale="  165.961">  1  5  2 -1</clus>
<clus scale="   21.212">  2  5  1 -1</clus>
</clustering>
</event>
<event>
10    2  0.6897838E-006  0.1892693E+03  0.7546771E-02  0.1159370E+00
          2   -1    0    0  503    0 -0.00000000000E+00  0.00000000000E+00  0.19522571438E+03  0.19522571438E+03  0.00000000000E+00 0. -1.
         21   -1    0    0  501  502  0.00000000000E+00 -0.00000000000E+00 -0.10547825975E+04  0.10547825975E+04  0.00000000000E+00 0. -1.
         23    2    1    2    0    0 -0.15994186753E+03 -0.41703340648E+02  0.12834438289E+03  0.22900396617E+03  0.93005194960E+02 0.  0.
         23    2    1    2    0    0  0.15978339327E+03  0.13699092921E+02 -0.73473971258E+03  0.75749560536E+03  0.90767554734E+02 0.  0.
        -11    1    4    4    0    0  0.47042256560E+02  0.42080396496E+02 -0.18117475315E+03  0.19185417600E+03  0.00000000000E+00 0.  1.
         11    1    4    4    0    0  0.11274113671E+03 -0.28381303575E+02 -0.55356495943E+03  0.56564142936E+03  0.00000000000E+00 0. -1.
        -13    1    3    3    0    0 -0.20536918699E+02 -0.34235974366E+02  0.63657276505E+02  0.75140640285E+02  0.00000000000E+00 0.  1.
         13    1    3    3    0    0 -0.13940494884E+03 -0.74673662815E+01  0.64687106384E+02  0.15386332588E+03  0.00000000000E+00 0. -1.
         21    1    1    2  503  502 -0.20035986392E+02 -0.13523008855E+02 -0.12416749527E+03  0.12649853517E+03  0.00000000000E+00 0. -1.
          2    1    1    2  501    0  0.20194460654E+02  0.41527256582E+02 -0.12899405818E+03  0.13701020519E+03  0.00000000000E+00 0. -1.
<scales pt_clust_5="13000.00000" pt_clust_6="13000.00000" pt_clust_7="13000.00000" pt_clust_8="13000.00000" pt_clust_9="24.17256" pt_clust_10="43.21776"></scales>
<clustering>
<clus scale="   24.173">  2  9  1 -1</clus>
<clus scale="   43.218">  2 10  1 -1</clus>
<clus scale="   90.768">  5  6 -1 -1</clus>
<clus scale="   93.005">  7  8 -1 -1</clus>
<clus scale="  188.180">  2  5  1 -1</clus>
<clus scale="   24.173">  2  5  1 -1</clus>
</clustering>
</event>
<event>
10    2  0.6640105E-006  0.1643957E+03  0.7546771E-02  0.1183824E+00
          2   -1    0    0  503    0 -0.00000000000E+00  0.00000000000E+00  0.29778112956E+03  0.29778112956E+03  0.00000000000E+00 0. -1.
         21   -1    0    0  501  502  0.00000000000E+00 -0.00000000000E+00 -0.50805908771E+03  0.50805908771E+03  0.00000000000E+00 0. -1.
         23    2    1    2    0    0  0.81466978663E+02 -0.43154917379E+02  0.62909033392E+02  0.14425501765E+03  0.91393370270E+02 0.  0.
         23    2    1    2    0    0 -0.20011517758E+03  0.83855160338E+01  0.52048368735E+02  0.22623143769E+03  0.91406944664E+02 0.  0.
        -13    1    3    3    0    0 -0.20046348801E+02 -0.16134842411E+01  0.88460737573E+01  0.21970718071E+02  0.00000000000E+00 0.  1.
         13    1    3    3    0    0  0.10151332746E+03 -0.41541433137E+02  0.54062959634E+02  0.12228429958E+03  0.00000000000E+00 0. -1.
        -13    1    4    4    0    0 -0.12488122126E+03  0.49487683329E+02  0.28374877986E+02  0.13729342273E+03  0.00000000000E+00 0.  1.
         13    1    4    4    0    0 -0.75233956321E+02 -0.41102167295E+02  0.23673490749E+02  0.88938014956E+02  0.00000000000E+00 0. -1.
         21    1    1    2  503  502  0.45168183958E+02 -0.54358028830E+02  0.18226840066E+02  0.72987518379E+02  0.00000000000E+00 0. -1.
          2    1    1    2  501    0  0.73480014958E+02  0.89127430174E+02 -0.34346220034E+03  0.36236624356E+03  0.00000000000E+00 0. -1.
<scales pt_clust_5="13000.00000" pt_clust_6="13000.00000" pt_clust_7="13000.00000" pt_clust_8="13000.00000" pt_clust_9="70.67503" pt_clust_10="115.04628"></scales>
<clustering>
<clus scale="   70.675">  1  9  2 -1</clus>
<clus scale="   91.393">  5  6 -1 -1</clus>
<clus scale="   91.407">  7  8 -1 -1</clus>
<clus scale="  115.046">  2 10  1 -1</clus>
<clus scale="  164.388">  1  5  2 -1</clus>
<clus scale="  115.046">  2  5  1 -1</clus>
</clustering>
</event>
<event>
10    2  0.6640105E-006  0.1277735E+03  0.7546771E-02  0.1230826E+00
          3   -1    0    0  503    0 -0.00000000000E+00  0.00000000000E+00  0.18270867999E+03  0.18270867999E+03  0.00000000000E+00 0. -1.
         21   -1    0    0  501  502  0.00000000000E+00 -0.00000000000E+00 -0.27063718454E+03  0.27063718454E+03  0.00000000000E+00 0.  1.
         23    2    1    2    0    0  0.91854263476E+02  0.97880350891E+01  0.12066083030E+03  0.17736632477E+03  0.91470027038E+02 0.  0.
         23    2    1    2    0    0 -0.72319965176E+02  0.11286079058E+02 -0.13510156873E+03  0.17887370378E+03  0.91574096151E+02 0.  0.
        -11    1    3    3    0    0  0.93754483260E+01  0.40656135975E+02  0.43567658800E+02  0.60323803901E+02  0.00000000000E+00 0.  1.
         11    1    3    3    0    0  0.82478815150E+02 -0.30868100886E+02  0.77093171495E+02  0.11704252087E+03  0.00000000000E+00 0. -1.
        -11    1    4    4    0    0 -0.71991399622E+02  0.41529248351E+02 -0.11736304786E+03  0.14381072662E+03  0.00000000000E+00 0.  1.
         11    1    4    4    0    0 -0.32856555364E+00 -0.30243169294E+02 -0.17738520864E+02  0.35062977151E+02  0.00000000000E+00 0. -1.
         21    1    1    2  503  502 -0.52390662264E+01 -0.37022850218E+02 -0.62993933616E+02  0.73255545358E+02  0.00000000000E+00 0.  1.
          3    1    1    2  501    0 -0.14295232074E+02  0.15948736071E+02 -0.10493832496E+02  0.23850290623E+02  0.00000000000E+00 0. -1.
<scales pt_clust_5="13000.00000" pt_clust_6="13000.00000" pt_clust_7="13000.00000" pt_clust_8="13000.00000" pt_clust_9="33.97251" pt_clust_10="21.41765"></scales>
<clustering>
<clus scale="   21.418">  2 10  1 -1</clus>
<clus scale="   33.973">  2  9  1 -1</clus>
<clus scale="   91.470">  5  6 -1 -1</clus>
<clus scale="   91.574">  7  8 -1 -1</clus>
<clus scale="  127.699">  1  5  2 -1</clus>
<clus scale="   21.418">  2  5  1 -1</clus>
</clustering>
</event>
<event>
10    2  0.6640105E-006  0.1622054E+03  0.7546771E-02  0.1212039E+00
         -1   -1    0    0    0  501 -0.00000000000E+00  0.00000000000E+00  0.92709308874E+03  0.92709308874E+03  0.00000000000E+00 0.  1.
         21   -1    0    0  503  502  0.00000000000E+00 -0.00000000000E+00 -0.61105341283E+02  0.61105341283E+02  0.00000000000E+00 0.  1.
         23    2    1    2    0    0  0.33261266746E+01  0.72855319617E+01  0.35195214530E+03  0.36397131915E+03  0.92415726425E+02 0.  0.
         23    2    1    2    0    0  0.58354943359E+02 -0.11871128538E+03  0.25313589125E+03  0.29963585684E+03  0.90588070819E+02 0.  0.
        -11    1    3    3    0    0  0.46418091048E+02 -0.78620810374E+01  0.17654447368E+03  0.18271399148E+03  0.00000000000E+00 0.  1.
         11    1    3    3    0    0 -0.43091964373E+02  0.15147612999E+02  0.17540767162E+03  0.18125732767E+03  0.00000000000E+00 0. -1.
        -13    1    4    4    0    0 -0.18628872699E+02 -0.57275467861E+02  0.11718072161E+03  0.13175293406E+03  0.00000000000E+00 0. -1.
         13    1    4    4    0    0  0.76983816058E+02 -0.61435817520E+02  0.13595516964E+03  0.16788292278E+03  0.00000000000E+00 0.  1.
         21    1    1    2  503  501 -0.43426954157E+02 -0.28447664182E+02  0.64914061049E+02  0.83120426290E+02  0.00000000000E+00 0. -1.
         -1    1    1    2    0  502 -0.18254115877E+02  0.13987341760E+03  0.19598564986E+03  0.24147082774E+03  0.00000000000E+00 0.  1.
<scales pt_clust_5="13000.00000" pt_clust_6="13000.00000" pt_clust_7="13000.00000" pt_clust_8="13000.00000" pt_clust_9="51.91503" pt_clust_10="134.55255"></scales>
<clustering>
<clus scale="   51.915">  2  9  1 -1</clus>
<clus scale="   90.588">  7  8 -1 -1</clus>
<clus scale="   92.416">  5  6 -1 -1</clus>
<clus scale="   92.518">  1  5  2 -1</clus>
<clus scale="  134.553">  2 10  1 -1</clus>
<clus scale="   51.915">  2  5  1 -1</clus>
</clustering>
</event>
<event>
10    2  0.6640105E-006  0.1269664E+03  0.7546771E-02  0.1232687E+00
         -1   -1    0    0    0  501 -0.00000000000E+00  0.00000000000E+00  0.79144221480E+03  0.79144221480E+03  0.00000000000E+00 0.  1.
         21   -1    0    0  501  502  0.00000000000E+00 -0.00000000000E+00 -0.12834656587E+03  0.12834656587E+03  0.00000000000E+00 0.  1.
         23    2    1    2    0    0  0.40475954966E+02  0.65259283024E+02  0.28169703909E+03  0.30482709048E+03  0.87574290221E+02 0.  0.
         23    2    1    2    0    0  0.30245750674E+02 -0.12967439966E+03  0.28900426272E+03  0.33068784844E+03  0.90004076989E+02 0.  0.
        -13    1    3    3    0    0  0.45665867352E+02 -0.11830089304E+01  0.15605882676E+03  0.16260728262E+03  0.00000000000E+00 0.  1.
         13    1    3    3    0    0 -0.51899123856E+01  0.66442291954E+02  0.12563821233E+03  0.14221980786E+03  0.00000000000E+00 0. -1.
        -13    1    4    4    0    0  0.20750630724E+02  0.82062507771E+01  0.46126589290E+02  0.51240545146E+02  0.00000000000E+00 0. -1.
         13    1    4    4    0    0  0.94951199500E+01 -0.13788065044E+03  0.24287767343E+03  0.27944730329E+03  0.00000000000E+00 0.  1.
         21    1    1    2  503  502 -0.61739950735E+02 -0.53574946958E+02 -0.52536987847E+02  0.97171145668E+02  0.00000000000E+00 0.  1.
         -1    1    1    2    0  503 -0.89817549057E+01  0.11799006360E+03  0.14493133496E+03  0.18710269609E+03  0.00000000000E+00 0.  1.
<scales pt_clust_5="13000.00000" pt_clust_6="13000.00000" pt_clust_7="13000.00000" pt_clust_8="13000.00000" pt_clust_9="81.74409" pt_clust_10="102.44159"></scales>
<clustering>
<clus scale="   81.744">  2  9  1 -1</clus>
<clus scale="   87.574">  5  6 -1 -1</clus>
<clus scale="   90.004">  7  8 -1 -1</clus>
<clus scale="  102.442">  2 10  1 -1</clus>
<clus scale="  125.256">  1  5  2 -1</clus>
<clus scale="   81.744">  2  5  1 -1</clus>
</clustering>
</event>
<event>
10    2  0.6640105E-006  0.1975377E+03  0.7546771E-02  0.1181079E+00
          1   -1    0    0  503    0 -0.00000000000E+00  0.00000000000E+00  0.90847630183E+03  0.90847630183E+03  0.00000000000E+00 0. -1.
         21   -1    0    0  501  502  0.00000000000E+00 -0.00000000000E+00 -0.15148216946E+03  0.15148216946E+03  0.00000000000E+00 0. -1.
         23    2    1    2    0    0  0.16727221465E+02  0.47208393117E+02  0.34832015306E+03  0.36379834280E+03  0.92270650154E+02 0.  0.
         23    2    1    2    0    0 -0.11356581953E+03 -0.99611287575E+02  0.17030060689E+03  0.24486398924E+03  0.90202397635E+02 0.  0.
        -13    1    3    3    0    0 -0.28178813232E+02  0.51426627865E+02  0.16867972504E+03  0.17858217494E+03  0.00000000000E+00 0. -1.
         13    1    3    3    0    0  0.44906034697E+02 -0.42182347479E+01  0.17964042802E+03  0.18521616786E+03  0.00000000000E+00 0.  1.
        -13    1    4    4    0    0 -0.10186060308E+03 -0.31439006344E+02  0.97968102300E+02  0.14478170688E+03  0.00000000000E+00 0. -1.
         13    1    4    4    0    0 -0.11705216450E+02 -0.68172281231E+02  0.72332504592E+02  0.10008228235E+03  0.00000000000E+00 0.  1.
         21    1    1    2  503  502 -0.49951830489E+02 -0.84646715371E+02 -0.41614799268E+02  0.10673351540E+03  0.00000000000E+00 0. -1.
          1    1    1    2  501    0  0.14679042856E+03  0.13704960983E+03  0.27998817169E+03  0.34456262385E+03  0.00000000000E+00 0. -1.
<scales pt_clust_5="13000.00000" pt_clust_6="13000.00000" pt_clust_7="13000.00000" pt_clust_8="13000.00000" pt_clust_9="98.28658" pt_clust_10="175.74033"></scales>
<clustering>
<clus scale="   90.202">  7  8 -1 -1</clus>
<clus scale="   92.271">  5  6 -1 -1</clus>
<clus scale="   98.287">  2  9  1 -1</clus>
<clus scale="  100.756">  1  5  2 -1</clus>
<clus scale="  175.740">  2 10  1 -1</clus>
<clus scale="   98.287">  2  5  1 -1</clus>
</clustering>
</event>
<event>
10    2  0.6640105E-006  0.2399832E+03  0.7546771E-02  0.1145803E+00
          1   -1    0    0  502    0 -0.00000000000E+00  0.00000000000E+00  0.25563096819E+03  0.25563096819E+03  0.00000000000E+00 0. -1.
         21   -1    0    0  503  502  0.00000000000E+00 -0.00000000000E+00 -0.61763085727E+03  0.61763085727E+03  0.00000000000E+00 0. -1.
         23    2    1    2    0    0  0.89465052805E+02  0.58033294836E+01  0.13045259456E+03  0.18215204379E+03  0.90132199155E+02 0.  0.
         23    2    1    2    0    0 -0.26702659276E+03 -0.62759075408E+02 -0.29008083170E+03  0.40998635601E+03  0.93273899961E+02 0.  0.
        -11    1    4    4    0    0 -0.23415555922E+03 -0.81520603242E+02 -0.27198108007E+03  0.36803280096E+03  0.00000000000E+00 0. -1.
         11    1    4    4    0    0 -0.32871033541E+02  0.18761527835E+02 -0.18099751622E+02  0.41953555052E+02  0.00000000000E+00 0.  1.
        -13    1    3    3    0    0  0.97418211383E+02  0.26910573124E+02  0.87692699693E+02  0.13380768451E+03  0.00000000000E+00 0. -1.
         13    1    3    3    0    0 -0.79531585787E+01 -0.21107243640E+02  0.42759894862E+02  0.48344359279E+02  0.00000000000E+00 0.  1.
         21    1    1    2  503  501  0.25390590292E+02 -0.26782114260E+01 -0.56722277530E+02  0.62203469839E+02  0.00000000000E+00 0.  1.
          1    1    1    2  501    0  0.15217094966E+03  0.59633957350E+02 -0.14564937441E+03  0.21891995582E+03  0.00000000000E+00 0. -1.
<scales pt_clust_5="13000.00000" pt_clust_6="13000.00000" pt_clust_7="13000.00000" pt_clust_8="13000.00000" pt_clust_9="22.71866" pt_clust_10="228.46439"></scales>
<clustering>
<clus scale="   22.719">  9 10 -1 -1</clus>
<clus scale="   90.132">  7  8 -1 -1</clus>
<clus scale="   93.274">  5  6 -1 -1</clus>
<clus scale="  127.128">  1  7  2 -1</clus>
<clus scale="  228.464">  2  9  1 -1</clus>
<clus scale="  228.464">  2  5  1 -1</clus>
</clustering>
</event>
<event>
10    2  0.6640105E-006  0.2432241E+03  0.7546771E-02  0.1118376E+00
         21   -1    0    0  503  502  0.00000000000E+00  0.00000000000E+00  0.86458024731E+03  0.86458024731E+03  0.00000000000E+00 0. -1.
         -1   -1    0    0    0  501 -0.00000000000E+00 -0.00000000000E+00 -0.18394704473E+03  0.18394704473E+03  0.00000000000E+00 0.  1.
         23    2    1    2    0    0 -0.17961807044E+03  0.12366397478E+02  0.60196392320E+02  0.21126242858E+03  0.92696435011E+02 0.  0.
         23    2    1    2    0    0  0.29551197792E+03  0.20259154673E+02  0.15428289115E+03  0.34958870540E+03  0.10330193608E+03 0.  0.
        -11    1    4    4    0    0  0.20505556146E+03  0.53965519042E+02  0.13435613000E+03  0.25102117480E+03  0.00000000000E+00 0. -1.
         11    1    4    4    0    0  0.90456416460E+02 -0.33706364369E+02  0.19926761152E+02  0.98567530596E+02  0.00000000000E+00 0.  1.
        -13    1    3    3    0    0 -0.11204123239E+03  0.48695755960E+02  0.56096766319E+02  0.13442976455E+03  0.00000000000E+00 0.  1.
         13    1    3    3    0    0 -0.67576838052E+02 -0.36329358482E+02  0.40996260006E+01  0.76832664031E+02  0.00000000000E+00 0. -1.
         21    1    1    2  503  501 -0.74408063438E+02  0.18002806412E+02  0.28325020731E+03  0.29341325955E+03  0.00000000000E+00 0. -1.
         -1    1    1    2    0  502 -0.41485844033E+02 -0.50628358563E+02  0.18290371181E+03  0.19426289851E+03  0.00000000000E+00 0.  1.
<scales pt_clust_5="13000.00000" pt_clust_6="13000.00000" pt_clust_7="13000.00000" pt_clust_8="13000.00000" pt_clust_9="92.17295" pt_clust_10="65.45461"></scales>
<clustering>
<clus scale="   65.455">  1 10  2 -1</clus>
<clus scale="   92.173">  1  9  2 -1</clus>
<clus scale="   92.696">  7  8 -1 -1</clus>
<clus scale="  103.302">  5  6 -1 -1</clus>
<clus scale="  238.913">  2  7  1 -1</clus>
<clus scale="   65.455">  1  5  2 -1</clus>
</clustering>
</event>
<event>
10    2  0.6640105E-006  0.3477218E+03  0.7546771E-02  0.1063586E+00
         21   -1    0    0  503  502  0.00000000000E+00  0.00000000000E+00  0.27529883532E+03  0.27529883532E+03  0.00000000000E+00 0.  1.
          1   -1    0    0  502    0 -0.00000000000E+00 -0.00000000000E+00 -0.87390162128E+03  0.87390162128E+03  0.00000000000E+00 0. -1.
         23    2    1    2    0    0  0.33945832271E+03  0.12988712940E+03 -0.42019212066E+03  0.56313189462E+03  0.91942880283E+02 0.  0.
         23    2    1    2    0    0 -0.23992262541E+03 -0.20411280539E+03 -0.27039418215E+03  0.42494400616E+03  0.90771642724E+02 0.  0.
        -11    1    3    3    0    0  0.40932022598E+02 -0.10461500111E+02 -0.72096896572E+02  0.83563364903E+02  0.00000000000E+00 0.  1.
         11    1    3    3    0    0  0.29852630011E+03  0.14034862951E+03 -0.34809522409E+03  0.47956852972E+03  0.00000000000E+00 0. -1.
        -13    1    4    4    0    0 -0.22159080264E+03 -0.19250791300E+03 -0.27559365564E+03  0.40263338586E+03  0.00000000000E+00 0.  1.
         13    1    4    4    0    0 -0.18331822768E+02 -0.11604892397E+02  0.51994734908E+01  0.22310620299E+02  0.00000000000E+00 0. -1.
         21    1    1    2  503  501 -0.16364124949E+02  0.27743874464E+02  0.43761767598E+02  0.54337827146E+02  0.00000000000E+00 0.  1.
          1    1    1    2  501    0 -0.83171572354E+02  0.46481801529E+02  0.48221749247E+02  0.10678672868E+03  0.00000000000E+00 0. -1.
<scales pt_clust_5="13000.00000" pt_clust_6="13000.00000" pt_clust_7="13000.00000" pt_clust_8="13000.00000" pt_clust_9="26.53875" pt_clust_10="132.28815"></scales>
<clustering>
<clus scale="   26.539">  9 10 -1 -1</clus>
<clus scale="   90.772">  7  8 -1 -1</clus>
<clus scale="   91.943">  5  6 -1 -1</clus>
<clus scale="  132.288">  1  9  2 -1</clus>
<clus scale="  347.414">  1  7  2 -1</clus>
<clus scale="  132.288">  1  5  2 -1</clus>
</clustering>
</event>
<event>
10    2  0.6640105E-006  0.1032332E+03  0.7546771E-02  0.1273771E+00
         21   -1    0    0  501  502  0.00000000000E+00  0.00000000000E+00  0.15016680557E+03  0.15016680557E+03  0.00000000000E+00 0.  1.
          2   -1    0    0  503    0 -0.00000000000E+00 -0.00000000000E+00 -0.24341644235E+03  0.24341644235E+03  0.00000000000E+00 0. -1.
         23    2    1    2    0    0 -0.14570314083E+02 -0.48238691522E+02 -0.16855282418E+03  0.19772525796E+03  0.90254959329E+02 0.  0.
         23    2    1    2    0    0 -0.27584415989E+01  0.50766723263E+02  0.74199157752E+02  0.12721224891E+03  0.89958724266E+02 0.  0.
        -13    1    3    3    0    0 -0.49789988277E+02 -0.20491946772E+02 -0.61953494260E+02  0.82080437780E+02  0.00000000000E+00 0. -1.
         13    1    3    3    0    0  0.35219674195E+02 -0.27746744750E+02 -0.10659932992E+03  0.11564482018E+03  0.00000000000E+00 0.  1.
        -13    1    4    4    0    0  0.13885972763E+02  0.62089379014E+02  0.83549328293E+02  0.10501619629E+03  0.00000000000E+00 0.  1.
         13    1    4    4    0    0 -0.16644414362E+02 -0.11322655751E+02 -0.93501705413E+01  0.22196052619E+02  0.00000000000E+00 0. -1.
         21    1    1    2  503  502 -0.45374395520E+01  0.28988125134E+02  0.60833550147E+01  0.29965095773E+02  0.00000000000E+00 0.  1.
          2    1    1    2  501    0  0.21866195233E+02 -0.31516156875E+02 -0.49793253699E+01  0.38680645280E+02  0.00000000000E+00 0. -1.
<scales pt_clust_5="13000.00000" pt_clust_6="13000.00000" pt_clust_7="13000.00000" pt_clust_8="13000.00000" pt_clust_9="29.34109" pt_clust_10="35.02989"></scales>
<clustering>
<clus scale="   29.341">  1  9  2 -1</clus>
<clus scale="   35.030">  1 10  2 -1</clus>
<clus scale="   89.959">  7  8 -1 -1</clus>
<clus scale="   90.255">  5  6 -1 -1</clus>
<clus scale="  102.974">  1  7  2 -1</clus>
<clus scale="   29.341">  1  5  2 -1</clus>
</clustering>
</event>
<event>
10    2  0.6640105E-006  0.1149738E+03  0.7546771E-02  0.1252769E+00
         -1   -1    0    0    0  501 -0.00000000000E+00  0.00000000000E+00  0.50159870214E+03  0.50159870214E+03  0.00000000000E+00 0.  1.
         21   -1    0    0  501  502  0.00000000000E+00 -0.00000000000E+00 -0.95229762581E+02  0.95229762581E+02  0.00000000000E+00 0. -1.
         23    2    1    2    0    0  0.67628089761E+02 -0.73643268683E+01  0.35359565445E+03  0.37094438872E+03  0.89118240783E+02 0.  0.
         23    2    1    2    0    0 -0.11220138912E+03 -0.34653938160E+02  0.71795309518E+01  0.14558932912E+03  0.85759314000E+02 0.  0.
        -11    1    4    4    0    0 -0.63277413473E+02 -0.32232714274E+02  0.44678706396E+02  0.83899736177E+02  0.00000000000E+00 0.  1.
         11    1    4    4    0    0 -0.48923975648E+02 -0.24212238857E+01 -0.37499175444E+02  0.61689592942E+02  0.00000000000E+00 0. -1.
        -13    1    3    3    0    0 -0.41354603745E+01  0.30088149080E+02  0.11729125017E+03  0.12115954818E+03  0.00000000000E+00 0. -1.
         13    1    3    3    0    0  0.71763550135E+02 -0.37452475948E+02  0.23630440428E+03  0.24978484054E+03  0.00000000000E+00 0.  1.
         21    1    1    2  503  502  0.24042240055E+02  0.92927255991E+01  0.96375211821E+01  0.27518464174E+02  0.00000000000E+00 0. -1.
         -1    1    1    2    0  503  0.20531059305E+02  0.32725539429E+02  0.35956232978E+02  0.52776282714E+02  0.00000000000E+00 0.  1.
<scales pt_clust_5="13000.00000" pt_clust_6="13000.00000" pt_clust_7="13000.00000" pt_clust_8="13000.00000" pt_clust_9="20.27532" pt_clust_10="66.09430"></scales>
<clustering>
<clus scale="   20.275">  9 10 -1 -1</clus>
<clus scale="   66.094">  2  9  1 -1</clus>
<clus scale="   85.759">  5  6 -1 -1</clus>
<clus scale="   89.118">  7  8 -1 -1</clus>
<clus scale="  112.390">  2  5  1 -1</clus>
<clus scale="   66.094">  2  5  1 -1</clus>
</clustering>
</event>
<event>
10    2  0.6640105E-006  0.9795352E+02  0.7546771E-02  0.1285184E+00
         -4   -1    0    0    0  501 -0.00000000000E+00  0.00000000000E+00  0.32174188893E+03  0.32174188893E+03  0.00000000000E+00 0.  1.
         21   -1    0    0  503  502  0.00000000000E+00 -0.00000000000E+00 -0.37825884552E+03  0.37825884552E+03  0.00000000000E+00 0.  1.
         23    2    1    2    0    0  0.50386559423E+02 -0.10511382704E+02  0.20086862980E+03  0.22674596011E+03  0.91740010088E+02 0.  0.
         23    2    1    2    0    0  0.24385529155E+02 -0.53603616733E+02  0.45949529396E+02  0.11909556289E+03  0.92759862497E+02 0.  0.
        -11    1    4    4    0    0 -0.10929715925E+02 -0.35950632159E+02 -0.19746941371E+02  0.42448184135E+02  0.00000000000E+00 0. -1.
         11    1    4    4    0    0  0.35315245080E+02 -0.17652984574E+02  0.65696470767E+02  0.76647378760E+02  0.00000000000E+00 0.  1.
        -13    1    3    3    0    0 -0.19026436212E+02 -0.24195254323E+02  0.36166499291E+02  0.47491381088E+02  0.00000000000E+00 0. -1.
         13    1    3    3    0    0  0.69412995635E+02  0.13683871619E+02  0.16470213051E+03  0.17925457902E+03  0.00000000000E+00 0.  1.
         21    1    1    2  503  501 -0.84418271680E+02  0.16078510097E+02 -0.29129419683E+03  0.30370589752E+03  0.00000000000E+00 0.  1.
         -4    1    1    2    0  502  0.96461831012E+01  0.48036489339E+02 -0.12040918966E+02  0.50453313925E+02  0.00000000000E+00 0.  1.
<scales pt_clust_5="13000.00000" pt_clust_6="13000.00000" pt_clust_7="13000.00000" pt_clust_8="13000.00000" pt_clust_9="95.27549" pt_clust_10="48.99544"></scales>
<clustering>
<clus scale="   48.995">  2 10  1 -1</clus>
<clus scale="   91.740">  7  8 -1 -1</clus>
<clus scale="   92.760">  5  6 -1 -1</clus>
<clus scale="   95.275">  2  9  1 -1</clus>
<clus scale="   96.988">  1  7  2 -1</clus>
<clus scale="   48.995">  2  5  1 -1</clus>
</clustering>
</event>
<event>
10    2  0.6640105E-006  0.1488825E+03  0.7546771E-02  0.1201956E+00
          1   -1    0    0  502    0 -0.00000000000E+00  0.00000000000E+00  0.29803206563E+03  0.29803206563E+03  0.00000000000E+00 0. -1.
         21   -1    0    0  503  502  0.00000000000E+00 -0.00000000000E+00 -0.18166980704E+03  0.18166980704E+03  0.00000000000E+00 0.  1.
         23    2    1    2    0    0  0.49213646150E+02  0.10976035818E+03  0.20078414931E+03  0.25093895717E+03  0.90480751649E+02 0.  0.
         23    2    1    2    0    0 -0.46961488343E+02 -0.99527730370E+02 -0.49620625902E+02  0.15053711259E+03  0.89933671401E+02 0.  0.
        -13    1    3    3    0    0 -0.24349044560E+02  0.47566827572E+02  0.83937410398E+02  0.99503607576E+02  0.00000000000E+00 0.  1.
         13    1    3    3    0    0  0.73562690710E+02  0.62193530611E+02  0.11684673891E+03  0.15143534960E+03  0.00000000000E+00 0. -1.
        -13    1    4    4    0    0 -0.37253712311E+02 -0.25874727936E+02 -0.60330379306E+02  0.75479105015E+02  0.00000000000E+00 0.  1.
         13    1    4    4    0    0 -0.97077760324E+01 -0.73653002434E+02  0.10709753403E+02  0.75058007574E+02  0.00000000000E+00 0. -1.
         21    1    1    2  503  501 -0.26456177449E+02  0.49593215908E+01 -0.40941105037E+02  0.48996921102E+02  0.00000000000E+00 0.  1.
          1    1    1    2  501    0  0.24204019642E+02 -0.15191949404E+02  0.61398402328E+01  0.29228881806E+02  0.00000000000E+00 0. -1.
<scales pt_clust_5="13000.00000" pt_clust_6="13000.00000" pt_clust_7="13000.00000" pt_clust_8="13000.00000" pt_clust_9="26.91699" pt_clust_10="26.47482"></scales>
<clustering>
<clus scale="   26.917">  2  9  1 -1</clus>
<clus scale="   26.475">  2 10  1 -1</clus>
<clus scale="   89.934">  7  8 -1 -1</clus>
<clus scale="   90.481">  5  6 -1 -1</clus>
<clus scale="  148.551">  2  7  1 -1</clus>
<clus scale="   26.917">  2  5  1 -1</clus>
</clustering>
</event>
<event>
10    2  0.6640105E-006  0.2156211E+03  0.7546771E-02  0.1162175E+00
         21   -1    0    0  503  502  0.00000000000E+00  0.00000000000E+00  0.37363811519E+03  0.37363811519E+03  0.00000000000E+00 0. -1.
         -3   -1    0    0    0  501 -0.00000000000E+00 -0.00000000000E+00 -0.81061370005E+03  0.81061370005E+03  0.00000000000E+00 0.  1.
         23    2    1    2    0    0 -0.73846997554E+02  0.11414107673E+02 -0.75129243145E+02  0.13826816349E+03  0.88825789934E+02 0.  0.
         23    2    1    2    0    0 -0.69355688677E+02  0.11295975728E+03 -0.58390013093E+03  0.60563191751E+03  0.90997463137E+02 0.  0.
        -13    1    3    3    0    0 -0.54269390943E+02  0.34309496948E+02 -0.80154302932E+01  0.64703597249E+02  0.00000000000E+00 0.  1.
         13    1    3    3    0    0 -0.19577606612E+02 -0.22895389275E+02 -0.67113812852E+02  0.73564566241E+02  0.00000000000E+00 0. -1.
        -13    1    4    4    0    0 -0.83338860370E+02  0.72452213049E+02 -0.49186860402E+03  0.50411249979E+03  0.00000000000E+00 0.  1.
         13    1    4    4    0    0  0.13983171693E+02  0.40507544230E+02 -0.92031526911E+02  0.10151941773E+03  0.00000000000E+00 0. -1.
         21    1    1    2  503  501  0.15814355495E+03 -0.21337322517E+03  0.90033333755E+02  0.28043451710E+03  0.00000000000E+00 0. -1.
         -3    1    1    2    0  502 -0.14940868718E+02  0.88999360221E+02  0.13202045546E+03  0.15991721714E+03  0.00000000000E+00 0.  1.
<scales pt_clust_5="13000.00000" pt_clust_6="13000.00000" pt_clust_7="13000.00000" pt_clust_8="13000.00000" pt_clust_9="195.47866" pt_clust_10="90.24475"></scales>
<clustering>
<clus scale="   88.826">  5  6 -1 -1</clus>
<clus scale="   90.245">  1 10  2 -1</clus>
<clus scale="   90.997">  7  8 -1 -1</clus>
<clus scale="  119.239">  2  5  1 -1</clus>
<clus scale="  195.479">  1  9  2 -1</clus>
<clus scale="   90.245">  1  5  2 -1</clus>
</clustering>
</event>
<event>
10    2  0.6640105E-006  0.3698324E+03  0.7546771E-02  0.1054762E+00
          2   -1    0    0  503    0 -0.00000000000E+00  0.00000000000E+00  0.19420626754E+04  0.19420626754E+04  0.00000000000E+00 0. -1.
         21   -1    0    0  501  502  0.00000000000E+00 -0.00000000000E+00 -0.18833145406E+03  0.18833145406E+03  0.00000000000E+00 0.  1.
         23    2    1    2    0    0  0.32593805179E+03 -0.10580555087E+02  0.99779005120E+03  0.10537566068E+04  0.92034984538E+02 0.  0.
         23    2    1    2    0    0 -0.42824776339E+03  0.12299434762E+03  0.68430067061E+03  0.82176675748E+03  0.92246623269E+02 0.  0.
        -13    1    3    3    0    0  0.12308306508E+03 -0.40405037385E+02  0.47040417912E+03  0.48791607853E+03  0.00000000000E+00 0.  1.
         13    1    3    3    0    0  0.20285498671E+03  0.29824482297E+02  0.52738587209E+03  0.56584052829E+03  0.00000000000E+00 0. -1.
        -13    1    4    4    0    0 -0.32385864077E+03  0.61577424744E+02  0.44781794833E+03  0.55607293882E+03  0.00000000000E+00 0.  1.
         13    1    4    4    0    0 -0.10438912262E+03  0.61416922879E+02  0.23648272228E+03  0.26569381866E+03  0.00000000000E+00 0. -1.
         21    1    1    2  503  502 -0.26462561391E+02 -0.17345368733E+02 -0.46278773475E+02  0.56061161656E+02  0.00000000000E+00 0.  1.
          2    1    1    2  501    0  0.12877227300E+03 -0.95068423801E+02  0.11791927296E+03  0.19880960347E+03  0.00000000000E+00 0. -1.
<scales pt_clust_5="13000.00000" pt_clust_6="13000.00000" pt_clust_7="13000.00000" pt_clust_8="13000.00000" pt_clust_9="31.64062" pt_clust_10="157.06749"></scales>
<clustering>
<clus scale="   31.641">  2  9  1 -1</clus>
<clus scale="   92.035">  5  6 -1 -1</clus>
<clus scale="   92.247">  7  8 -1 -1</clus>
<clus scale="  157.067">  2 10  1 -1</clus>
<clus scale="  369.780">  1  5  2 -1</clus>
<clus scale="   31.641">  2  5  1 -1</clus>
</clustering>
</event>
<event>
10    2  0.6640105E-006  0.1968954E+03  0.7546771E-02  0.1152638E+00
         21   -1    0    0  501  502  0.00000000000E+00  0.00000000000E+00  0.18831171598E+03  0.18831171598E+03  0.00000000000E+00 0.  1.
          1   -1    0    0  503    0 -0.00000000000E+00 -0.00000000000E+00 -0.52974378005E+03  0.52974378005E+03  0.00000000000E+00 0. -1.
         23    2    1    2    0    0 -0.12543221649E+03 -0.11379562455E+03 -0.18872647827E+03  0.26906288092E+03  0.89969245797E+02 0.  0.
         23    2    1    2    0    0  0.10388581315E+03  0.15206153325E+03 -0.18659155298E+03  0.27634545074E+03  0.87380938617E+02 0.  0.
        -11    1    4    4    0    0  0.82027627754E+02  0.66213823361E+02 -0.58370626070E+02  0.12049868093E+03  0.00000000000E+00 0.  1.
         11    1    4    4    0    0  0.21858185399E+02  0.85847709890E+02 -0.12822092691E+03  0.15584676981E+03  0.00000000000E+00 0. -1.
        -11    1    3    3    0    0 -0.96398036349E+02 -0.11225775497E+03 -0.10779917199E+03  0.18307115132E+03  0.00000000000E+00 0.  1.
         11    1    3    3    0    0 -0.29034180144E+02 -0.15378695849E+01 -0.80927306278E+02  0.85991729608E+02  0.00000000000E+00 0. -1.
         21    1    1    2  503  502 -0.60017298828E+02  0.79280383507E+01 -0.20935710146E+02  0.64056489991E+02  0.00000000000E+00 0. -1.
          1    1    1    2  501    0  0.81563702168E+02 -0.46193947051E+02  0.54821677325E+02  0.10859067437E+03  0.00000000000E+00 0. -1.
<scales pt_clust_5="13000.00000" pt_clust_6="13000.00000" pt_clust_7="13000.00000" pt_clust_8="13000.00000" pt_clust_9="60.53866" pt_clust_10="67.15891"></scales>
<clustering>
<clus scale="   60.539">  1  9  2 -1</clus>
<clus scale="   67.159">  1 10  2 -1</clus>
<clus scale="   87.381">  5  6 -1 -1</clus>
<clus scale="   89.969">  7  8 -1 -1</clus>
<clus scale="  195.726">  1  5  2 -1</clus>
<clus scale="   60.539">  1  5  2 -1</clus>
</clustering>
</event>
<event>
10    2  0.6640105E-006  0.3075641E+03  0.7546771E-02  0.1120660E+00
         21   -1    0    0  503  502  0.00000000000E+00  0.00000000000E+00  0.14625599539E+03  0.14625599539E+03  0.00000000000E+00 0. -1.
          1   -1    0    0  502    0 -0.00000000000E+00 -0.00000000000E+00 -0.10131753444E+04  0.10131753444E+04  0.00000000000E+00 0. -1.
         23    2    1    2    0    0  0.63827048495E+02  0.29710881342E+01 -0.18762824132E+03  0.21822352326E+03  0.91293097638E+02 0.  0.
         23    2    1    2    0    0 -0.28703542725E+03 -0.17060153750E+03 -0.40385493911E+03  0.53223311264E+03  0.93161436528E+02 0.  0.
        -11    1    4    4    0    0 -0.25218947753E+03 -0.16048702505E+03 -0.30558460309E+03  0.42747814848E+03  0.00000000000E+00 0. -1.
         11    1    4    4    0    0 -0.34845949726E+02 -0.10114512442E+02 -0.98270336025E+02  0.10475496416E+03  0.00000000000E+00 0.  1.
        -11    1    3    3    0    0  0.68401023957E+02  0.23933278084E+02 -0.18221402998E+03  0.19609552417E+03  0.00000000000E+00 0. -1.
         11    1    3    3    0    0 -0.45739754628E+01 -0.20962189950E+02 -0.54142113410E+01  0.22127999084E+02  0.00000000000E+00 0.  1.
         21    1    1    2  503  501 -0.20116232795E-01  0.31694466804E+02 -0.36388980077E+01  0.31902683419E+02  0.00000000000E+00 0.  1.
          1    1    1    2  501    0  0.22322849499E+03  0.13593598256E+03 -0.27179727053E+03  0.37707202044E+03  0.00000000000E+00 0. -1.
<scales pt_clust_5="13000.00000" pt_clust_6="13000.00000" pt_clust_7="13000.00000" pt_clust_8="13000.00000" pt_clust_9="31.69447" pt_clust_10="293.11539"></scales>
<clustering>
<clus scale="   31.694">  1  9  2 -1</clus>
<clus scale="   91.293">  7  8 -1 -1</clus>
<clus scale="   93.161">  5  6 -1 -1</clus>
<clus scale="  111.589">  2  7  1 -1</clus>
<clus scale="  293.115">  1 10  2 -1</clus>
<clus scale="   31.694">  1  5  2 -1</clus>
</clustering>
</event>
<event>
10    2  0.6640105E-006  0.1436015E+03  0.7546771E-02  0.1208975E+00
          1   -1    0    0  503    0 -0.00000000000E+00  0.00000000000E+00  0.58112207737E+03  0.58112207737E+03  0.00000000000E+00 0. -1.
         21   -1    0    0  501  502  0.00000000000E+00 -0.00000000000E+00 -0.33395637387E+03  0.33395637387E+03  0.00000000000E+00 0. -1.
         23    2    1    2    0    0  0.23117474358E+02 -0.89163102505E+02  0.29089838154E+03  0.31829680712E+03  0.90589803877E+02 0.  0.
         23    2    1    2    0    0 -0.59616822282E+02  0.14941705377E+03  0.18206762486E+03  0.25999061840E+03  0.92557442586E+02 0.  0.
        -11    1    3    3    0    0 -0.17027170167E+02 -0.17207776124E+02  0.11124357197E+02  0.26641760566E+02  0.00000000000E+00 0.  1.
         11    1    3    3    0    0  0.40144644525E+02 -0.71955326381E+02  0.27977402435E+03  0.29165504655E+03  0.00000000000E+00 0. -1.
        -13    1    4    4    0    0 -0.79672556056E+02  0.11155053079E+03  0.10837903439E+03  0.17474911217E+03  0.00000000000E+00 0. -1.
         13    1    4    4    0    0  0.20055733774E+02  0.37866522984E+02  0.73688590466E+02  0.85241506233E+02  0.00000000000E+00 0.  1.
         21    1    1    2  503  502  0.43700515902E+01 -0.42583038576E+02 -0.27338568645E+03  0.27671672534E+03  0.00000000000E+00 0. -1.
          1    1    1    2  501    0  0.32129296334E+02 -0.17670912693E+02  0.47585383556E+02  0.60074300383E+02  0.00000000000E+00 0. -1.
<scales pt_clust_5="13000.00000" pt_clust_6="13000.00000" pt_clust_7="13000.00000" pt_clust_8="13000.00000" pt_clust_9="65.40934" pt_clust_10="36.66816"></scales>
<clustering>
<clus scale="   36.668">  2 10  1 -1</clus>
<clus scale="   65.409">  2  9  1 -1</clus>
<clus scale="   90.590">  5  6 -1 -1</clus>
<clus scale="   92.557">  7  8 -1 -1</clus>
<clus scale="  142.341">  1  5  2 -1</clus>
<clus scale="   36.668">  2  5  1 -1</clus>
</clustering>
</event>
<event>
10    2  0.6640105E-006  0.2091148E+03  0.7546771E-02  0.1142318E+00
          1   -1    0    0  503    0 -0.00000000000E+00  0.00000000000E+00  0.64435959414E+03  0.64435959414E+03  0.00000000000E+00 0. -1.
         21   -1    0    0  501  502  0.00000000000E+00 -0.00000000000E+00 -0.15304273585E+03  0.15304273585E+03  0.00000000000E+00 0. -1.
         23    2    1    2    0    0  0.17477613517E+03  0.25445877412E+02  0.35919852557E+03  0.41041720282E+03  0.90689081432E+02 0.  0.
         23    2    1    2    0    0 -0.20914153830E+03 -0.41990894079E+02  0.19674039838E+03  0.30386091376E+03  0.90117991141E+02 0.  0.
        -13    1    3    3    0    0  0.15817046951E+03 -0.53016862145E+00  0.33747273074E+03  0.37270098269E+03  0.00000000000E+00 0.  1.
         13    1    3    3    0    0  0.16605665668E+02  0.25976046034E+02  0.21725794833E+02  0.37716220131E+02  0.00000000000E+00 0. -1.
        -13    1    4    4    0    0 -0.45887557494E+02 -0.24502823940E+02  0.62768625379E+01  0.52397092640E+02  0.00000000000E+00 0.  1.
         13    1    4    4    0    0 -0.16325398081E+03 -0.17488070140E+02  0.19046353584E+03  0.25146382112E+03  0.00000000000E+00 0. -1.
         21    1    1    2  503  502  0.25999613847E+02 -0.68859342100E+01 -0.39322734378E+02  0.47641089924E+02  0.00000000000E+00 0. -1.
          1    1    1    2  501    0  0.83657892782E+01  0.23430950877E+02 -0.25299331287E+02  0.35483123493E+02  0.00000000000E+00 0. -1.
<scales pt_clust_5="13000.00000" pt_clust_6="13000.00000" pt_clust_7="13000.00000" pt_clust_8="13000.00000" pt_clust_9="29.00024" pt_clust_10="24.87963"></scales>
<clustering>
<clus scale="   24.880">  2 10  1 -1</clus>
<clus scale="   29.000">  2  9  1 -1</clus>
<clus scale="   90.118">  7  8 -1 -1</clus>
<clus scale="   90.689">  5  6 -1 -1</clus>
<clus scale="  208.868">  2  7  1 -1</clus>
<clus scale="   24.880">  2  5  1 -1</clus>
</clustering>
</event>
<event>
10    2  0.6640105E-006  0.1184132E+03  0.7546771E-02  0.1256035E+00
         -3   -1    0    0    0  501 -0.00000000000E+00  0.00000000000E+00  0.46228141997E+03  0.46228141997E+03  0.00000000000E+00 0.  1.
         21   -1    0    0  503  502  0.00000000000E+00 -0.00000000000E+00 -0.22260545748E+03  0.22260545748E+03  0.00000000000E+00 0. -1.
         23    2    1    2    0    0 -0.48628580039E+02 -0.22360125890E+02  0.25313972701E+03  0.27227263108E+03  0.84781779991E+02 0.  0.
         23    2    1    2    0    0  0.33031385552E+02  0.39630509358E+01  0.16886563263E+03  0.20380002461E+03  0.10914242963E+03 0.  0.
        -11    1    4    4    0    0  0.29710601915E+02 -0.44648543761E+02  0.42701207923E+02  0.68553668642E+02  0.00000000000E+00 0. -1.
         11    1    4    4    0    0  0.33207836368E+01  0.48611594697E+02  0.12616442470E+03  0.13524635597E+03  0.00000000000E+00 0.  1.
        -11    1    3    3    0    0 -0.40024108885E+02  0.25882075465E+02  0.16106787064E+03  0.16797223007E+03  0.00000000000E+00 0.  1.
         11    1    3    3    0    0 -0.86044711541E+01 -0.48242201355E+02  0.92071856371E+02  0.10430040101E+03  0.00000000000E+00 0. -1.
         21    1    1    2  503  501  0.42517424770E+02  0.31898405090E+02 -0.16652658889E+03  0.17480373127E+03  0.00000000000E+00 0. -1.
         -3    1    1    2    0  502 -0.26920230283E+02 -0.13501330136E+02 -0.15802808261E+02  0.34010490482E+02  0.00000000000E+00 0.  1.
<scales pt_clust_5="13000.00000" pt_clust_6="13000.00000" pt_clust_7="13000.00000" pt_clust_8="13000.00000" pt_clust_9="27.95430" pt_clust_10="30.11619"></scales>
<clustering>
<clus scale="   30.116">  2 10  1 -1</clus>
<clus scale="   27.954">  2  9  1 -1</clus>
<clus scale="   84.782">  7  8 -1 -1</clus>
<clus scale="   96.424">  1  7  2 -1</clus>
<clus scale="  109.142">  5  6 -1 -1</clus>
<clus scale="   30.116">  2  5  1 -1</clus>
</clustering>
</event>
<event>
10    2  0.6640105E-006  0.1072768E+03  0.7546771E-02  0.1266255E+00
         21   -1    0    0  501  502  0.00000000000E+00  0.00000000000E+00  0.50014339879E+03  0.50014339879E+03  0.00000000000E+00 0. -1.
         -2   -1    0    0    0  501 -0.00000000000E+00 -0.00000000000E+00 -0.79383751562E+02  0.79383751562E+02  0.00000000000E+00 0.  1.
         23    2    1    2    0    0 -0.43584574410E+02 -0.29825712207E+02  0.29373357402E+02  0.11065778693E+03  0.92699317414E+02 0.  0.
         23    2    1    2    0    0  0.67778712317E+02 -0.10070996274E+01  0.24829787989E+03  0.27311723418E+03  0.91357639815E+02 0.  0.
        -11    1    4    4    0    0  0.41851931663E+02  0.12664754694E+02  0.23810208714E+03  0.24208383692E+03  0.00000000000E+00 0. -1.
         11    1    4    4    0    0  0.25926780653E+02 -0.13671854322E+02  0.10195792750E+02  0.31033397259E+02  0.00000000000E+00 0.  1.
        -13    1    3    3    0    0 -0.29121347212E+02 -0.49866727621E+02 -0.15179482816E+02  0.59708961518E+02  0.00000000000E+00 0. -1.
         13    1    3    3    0    0 -0.14463227198E+02  0.20041015414E+02  0.44552840218E+02  0.50948825416E+02  0.00000000000E+00 0.  1.
         21    1    1    2  503  502  0.31603318538E+02  0.22393627803E+02  0.13287250466E+03  0.13840284246E+03  0.00000000000E+00 0. -1.
         -2    1    1    2    0  503 -0.55797456444E+02  0.84391840313E+01  0.10215905274E+02  0.57349286773E+02  0.00000000000E+00 0.  1.
<scales pt_clust_5="13000.00000" pt_clust_6="13000.00000" pt_clust_7="13000.00000" pt_clust_8="13000.00000" pt_clust_9="38.73299" pt_clust_10="53.90392"></scales>
<clustering>
<clus scale="   38.733">  1  9  2 -1</clus>
<clus scale="   53.904">  1 10  2 -1</clus>
<clus scale="   91.358">  5  6 -1 -1</clus>
<clus scale="   92.699">  7  8 -1 -1</clus>
<clus scale="  106.120">  1  5  2 -1</clus>
<clus scale="   38.733">  1  5  2 -1</clus>
</clustering>
</event>
<event>
10    2  0.6640105E-006  0.9617144E+02  0.7546771E-02  0.1289060E+00
         -1   -1    0    0    0  501 -0.00000000000E+00  0.00000000000E+00  0.33589678428E+03  0.33589678428E+03  0.00000000000E+00 0.  1.
         21   -1    0    0  503  502  0.00000000000E+00 -0.00000000000E+00 -0.11755114504E+03  0.11755114504E+03  0.00000000000E+00 0. -1.
         23    2    1    2    0    0  0.13645445864E+02  0.12130460372E+02  0.14475349987E+03  0.17176764048E+03  0.90648774555E+02 0.  0.
         23    2    1    2    0    0 -0.44882803224E+02 -0.14787373411E+02  0.11156491970E+03  0.15188615608E+03  0.91594435755E+02 0.  0.
        -13    1    4    4    0    0 -0.26613457667E+02 -0.35936724250E+02  0.11532064115E+03  0.12368740661E+03  0.00000000000E+00 0.  1.
         13    1    4    4    0    0 -0.18269345557E+02  0.21149350839E+02 -0.37557214432E+01  0.28198749468E+02  0.00000000000E+00 0. -1.
        -13    1    3    3    0    0  0.13995560042E+02 -0.37882971472E+02  0.47040990271E+02  0.61998790264E+02  0.00000000000E+00 0.  1.
         13    1    3    3    0    0 -0.35011417795E+00  0.50013431844E+02  0.97712509600E+02  0.10976885021E+03  0.00000000000E+00 0. -1.
         21    1    1    2  503  501 -0.65305843974E+01 -0.53711959331E+02 -0.28889656393E+02  0.61337063463E+02  0.00000000000E+00 0. -1.
         -1    1    1    2    0  502  0.37767941757E+02  0.56368872370E+02 -0.90831239502E+01  0.68457069303E+02  0.00000000000E+00 0.  1.
<scales pt_clust_5="13000.00000" pt_clust_6="13000.00000" pt_clust_7="13000.00000" pt_clust_8="13000.00000" pt_clust_9="54.10751" pt_clust_10="44.01755"></scales>
<clustering>
<clus scale="   54.108">  2  9  1 -1</clus>
<clus scale="   44.018">  2 10  1 -1</clus>
<clus scale="   90.649">  7  8 -1 -1</clus>
<clus scale="   91.594">  5  6 -1 -1</clus>
<clus scale="   95.271">  1  7  2 -1</clus>
<clus scale="   54.108">  2  5  1 -1</clus>
</clustering>
</event>
<event>
10    2  0.6640105E-006  0.1065566E+03  0.7546771E-02  0.1267253E+00
          4   -1    0    0  503    0 -0.00000000000E+00  0.00000000000E+00  0.55919950883E+03  0.55919950883E+03  0.00000000000E+00 0. -1.
         21   -1    0    0  501  502  0.00000000000E+00 -0.00000000000E+00 -0.91647329791E+02  0.91647329791E+02  0.00000000000E+00 0.  1.
         23    2    1    2    0    0 -0.61351746203E+02  0.49510849591E+01  0.39780888942E+03  0.41305171721E+03  0.92581091948E+02 0.  0.
         23    2    1    2    0    0  0.22769931681E+02  0.73519037993E+01  0.59475097731E+02  0.11227684767E+03  0.92175284075E+02 0.  0.
        -11    1    3    3    0    0 -0.24257171391E+02 -0.34053130104E+02  0.75718636538E+02  0.86494727891E+02  0.00000000000E+00 0.  1.
         11    1    3    3    0    0 -0.37094574812E+02  0.39004215063E+02  0.32209025288E+03  0.32655698932E+03  0.00000000000E+00 0. -1.
        -13    1    4    4    0    0  0.31406526943E+02 -0.33056208440E+02  0.80410037555E+01  0.46300546352E+02  0.00000000000E+00 0.  1.
         13    1    4    4    0    0 -0.86365952617E+01  0.40408112240E+02  0.51434093976E+02  0.65976301318E+02  0.00000000000E+00 0. -1.
         21    1    1    2  503  502  0.22454785914E+02 -0.65376920177E+02  0.11274724377E+02  0.70039121297E+02  0.00000000000E+00 0.  1.
          4    1    1    2  501    0  0.16127028609E+02  0.53073931419E+02 -0.10065324885E+01  0.55479152441E+02  0.00000000000E+00 0. -1.
<scales pt_clust_5="13000.00000" pt_clust_6="13000.00000" pt_clust_7="13000.00000" pt_clust_8="13000.00000" pt_clust_9="50.58525" pt_clust_10="55.47002"></scales>
<clustering>
<clus scale="   55.470">  2 10  1 -1</clus>
<clus scale="   50.585">  2  9  1 -1</clus>
<clus scale="   92.175">  7  8 -1 -1</clus>
<clus scale="   92.581">  5  6 -1 -1</clus>
<clus scale="  106.204">  2  7  1 -1</clus>
<clus scale="   55.470">  2  5  1 -1</clus>
</clustering>
</event>
<event>
10    2  0.6640105E-006  0.2992233E+03  0.7546771E-02  0.1085659E+00
          1   -1    0    0  502    0 -0.00000000000E+00  0.00000000000E+00  0.35298300050E+03  0.35298300050E+03  0.00000000000E+00 0. -1.
         21   -1    0    0  503  502  0.00000000000E+00 -0.00000000000E+00 -0.37821075724E+03  0.37821075724E+03  0.00000000000E+00 0. -1.
         23    2    1    2    0    0  0.15688221361E+03  0.23525150261E+03  0.90992638848E+02  0.31157672910E+03  0.94048388423E+02 0.  0.
         23    2    1    2    0    0 -0.15145863457E+03 -0.24260283601E+03 -0.16344167994E+02  0.30127389586E+03  0.93289734021E+02 0.  0.
        -11    1    3    3    0    0  0.11532869955E+03  0.22619401766E+03  0.88841951344E+02  0.26899318743E+03  0.00000000000E+00 0. -1.
         11    1    3    3    0    0  0.41553514065E+02  0.90574849517E+01  0.21506875046E+01  0.42583541674E+02  0.00000000000E+00 0.  1.
        -13    1    4    4    0    0 -0.79135336281E+02 -0.10921337776E+03  0.37966745795E+02  0.14011223043E+03  0.00000000000E+00 0.  1.
         13    1    4    4    0    0 -0.72323298288E+02 -0.13338945825E+03 -0.54310913789E+02  0.16116166543E+03  0.00000000000E+00 0. -1.
         21    1    1    2  503  501  0.20694486898E+02 -0.57851263393E+01 -0.80381165636E+02  0.83203733472E+02  0.00000000000E+00 0. -1.
          1    1    1    2  501    0 -0.26118065939E+02  0.13136459736E+02 -0.19495061960E+02  0.35139399306E+02  0.00000000000E+00 0. -1.
<scales pt_clust_5="13000.00000" pt_clust_6="13000.00000" pt_clust_7="13000.00000" pt_clust_8="13000.00000" pt_clust_9="21.48789" pt_clust_10="27.29490"></scales>
<clustering>
<clus scale="   21.488">  2  9  1 -1</clus>
<clus scale="   27.295">  2 10  1 -1</clus>
<clus scale="   93.290">  7  8 -1 -1</clus>
<clus scale="   94.048">  5  6 -1 -1</clus>
<clus scale="  298.986">  2  7  1 -1</clus>
<clus scale="   21.488">  2  5  1 -1</clus>
</clustering>
</event>
<event>
10    2  0.6640105E-006  0.9855254E+02  0.7546771E-02  0.1285757E+00
         -3   -1    0    0    0  501 -0.00000000000E+00  0.00000000000E+00  0.90136967895E+02  0.90136967895E+02  0.00000000000E+00 0.  1.
         21   -1    0    0  503  502  0.00000000000E+00 -0.00000000000E+00 -0.55787744309E+03  0.55787744309E+03  0.00000000000E+00 0.  1.
         23    2    1    2    0    0 -0.47004650990E+01 -0.30404430656E+02  0.37004383054E+02  0.10280570888E+03  0.90846935216E+02 0.  0.
         23    2    1    2    0    0  0.68199638081E+01  0.17698295179E+00 -0.11555180259E+03  0.14996573526E+03  0.95346522961E+02 0.  0.
        -11    1    3    3    0    0  0.33741095087E+02 -0.29841282691E+02  0.44853139039E+02  0.63567033374E+02  0.00000000000E+00 0.  1.
         11    1    3    3    0    0 -0.38441560186E+02 -0.56314796504E+00 -0.78487559853E+01  0.39238675509E+02  0.00000000000E+00 0. -1.
        -13    1    4    4    0    0 -0.41391932828E+02 -0.63979954315E+01 -0.77883149780E+02  0.88430828722E+02  0.00000000000E+00 0.  1.
         13    1    4    4    0    0  0.48211896636E+02  0.65749783833E+01 -0.37668652806E+02  0.61534906535E+02  0.00000000000E+00 0. -1.
         21    1    1    2  503  501  0.26410547020E+02  0.43258811332E+01 -0.10101519461E+03  0.10450023820E+03  0.00000000000E+00 0. -1.
         -3    1    1    2    0  502 -0.28530045730E+02  0.25901566571E+02 -0.28817786104E+03  0.29074272864E+03  0.00000000000E+00 0.  1.
<scales pt_clust_5="13000.00000" pt_clust_6="13000.00000" pt_clust_7="13000.00000" pt_clust_8="13000.00000" pt_clust_9="26.76248" pt_clust_10="30.96196"></scales>
<clustering>
<clus scale="   26.762">  2  9  1 -1</clus>
<clus scale="   30.962">  2 10  1 -1</clus>
<clus scale="   90.847">  5  6 -1 -1</clus>
<clus scale="   94.206">  1  5  2 -1</clus>
<clus scale="   95.347">  7  8 -1 -1</clus>
<clus scale="   26.762">  2  5  1 -1</clus>
</clustering>
</event>
<event>
10    2  0.6640105E-006  0.1599727E+03  0.7546771E-02  0.1189593E+00
         21   -1    0    0  501  502  0.00000000000E+00  0.00000000000E+00  0.22584545052E+03  0.22584545052E+03  0.00000000000E+00 0.  1.
          4   -1    0    0  503    0 -0.00000000000E+00 -0.00000000000E+00 -0.35197768385E+03  0.35197768385E+03  0.00000000000E+00 0. -1.
         23    2    1    2    0    0  0.27616898436E+02  0.11628130748E+03 -0.16875813097E+03  0.22757561322E+03  0.95012196130E+02 0.  0.
         23    2    1    2    0    0  0.20236056771E+02 -0.15135096541E+03 -0.80196010784E+02  0.19445706752E+03  0.89808341689E+02 0.  0.
        -11    1    4    4    0    0 -0.25349255179E+02 -0.57722019378E+02 -0.62601719652E+02  0.88844761031E+02  0.00000000000E+00 0.  1.
         11    1    4    4    0    0  0.45585311950E+02 -0.93628946034E+02 -0.17594291132E+02  0.10561230649E+03  0.00000000000E+00 0. -1.
        -13    1    3    3    0    0 -0.25440975622E+01  0.95536869061E+02 -0.60052421951E+02  0.11287187056E+03  0.00000000000E+00 0.  1.
         13    1    3    3    0    0  0.30160995998E+02  0.20744438419E+02 -0.10870570902E+03  0.11470374265E+03  0.00000000000E+00 0. -1.
         21    1    1    2  503  502 -0.45850226577E+02  0.56934089551E+02  0.85506077979E+02  0.11249454743E+03  0.00000000000E+00 0.  1.
          4    1    1    2  501    0 -0.20027286292E+01 -0.21864431619E+02  0.37315830443E+02  0.43295906200E+02  0.00000000000E+00 0. -1.
<scales pt_clust_5="13000.00000" pt_clust_6="13000.00000" pt_clust_7="13000.00000" pt_clust_8="13000.00000" pt_clust_9="65.19615" pt_clust_10="21.95596"></scales>
<clustering>
<clus scale="   21.956">  1 10  2 -1</clus>
<clus scale="   65.196">  1  9  2 -1</clus>
<clus scale="   89.808">  5  6 -1 -1</clus>
<clus scale="   95.012">  7  8 -1 -1</clus>
<clus scale="  156.938">  1  5  2 -1</clus>
<clus scale="   21.956">  1  5  2 -1</clus>
</clustering>
</event>
<event>
10    2  0.6640105E-006  0.9260401E+02  0.7546771E-02  0.1297223E+00
         21   -1    0    0  503  502  0.00000000000E+00  0.00000000000E+00  0.84615096896E+03  0.84615096896E+03  0.00000000000E+00 0. -1.
         -2   -1    0    0    0  501 -0.00000000000E+00 -0.00000000000E+00 -0.17578332121E+03  0.17578332121E+03  0.00000000000E+00 0.  1.
         23    2    1    2    0    0 -0.14804710597E+02  0.10310506413E+02 -0.81802284463E+02  0.12394964458E+03  0.91358714140E+02 0.  0.
         23    2    1    2    0    0  0.92674174167E+01  0.38979853400E+02 -0.34650428854E+02  0.10477151477E+03  0.90394159607E+02 0.  0.
        -11    1    3    3    0    0  0.47816111188E+01  0.20526154183E+02 -0.95605775551E+02  0.97901231499E+02  0.00000000000E+00 0.  1.
         11    1    3    3    0    0 -0.19586321715E+02 -0.10215647769E+02  0.13803491088E+02  0.26048413078E+02  0.00000000000E+00 0. -1.
        -13    1    4    4    0    0  0.34844053998E+02  0.69153503023E+01 -0.49692739981E+02  0.61084356226E+02  0.00000000000E+00 0. -1.
         13    1    4    4    0    0 -0.25576636581E+02  0.32064503098E+02  0.15042311127E+02  0.43687158545E+02  0.00000000000E+00 0.  1.
         21    1    1    2  503  501 -0.38482556929E+02 -0.40012172401E+02  0.43288202166E+03  0.43642722854E+03  0.00000000000E+00 0. -1.
         -2    1    1    2    0  502  0.44019850109E+02 -0.92781874124E+01  0.35393833941E+03  0.35678590228E+03  0.00000000000E+00 0.  1.
<scales pt_clust_5="13000.00000" pt_clust_6="13000.00000" pt_clust_7="13000.00000" pt_clust_8="13000.00000" pt_clust_9="48.23178" pt_clust_10="44.98702"></scales>
<clustering>
<clus scale="   44.987">  1 10  2 -1</clus>
<clus scale="   48.232">  1  9  2 -1</clus>
<clus scale="   90.394">  7  8 -1 -1</clus>
<clus scale="   91.359">  5  6 -1 -1</clus>
<clus scale="   91.653">  1  7  2 -1</clus>
<clus scale="   44.987">  1  5  2 -1</clus>
</clustering>
</event>
<event>
10    2  0.6640105E-006  0.8651005E+02  0.7546771E-02  0.1312616E+00
         -4   -1    0    0    0  501 -0.00000000000E+00  0.00000000000E+00  0.14680650307E+03  0.14680650307E+03  0.00000000000E+00 0.  1.
         21   -1    0    0  501  502  0.00000000000E+00 -0.00000000000E+00 -0.29283796501E+03  0.29283796501E+03  0.00000000000E+00 0.  1.
         23    2    1    2    0    0  0.45952696097E+01  0.29902794352E+02  0.51142813609E+02  0.97900254929E+02  0.77804748688E+02 0.  0.
         23    2    1    2    0    0 -0.59692676748E+02 -0.92793658406E+01  0.28119944000E+02  0.10383567580E+03  0.79635381772E+02 0.  0.
        -11    1    4    4    0    0 -0.73606572348E+02  0.11830566404E+02  0.18756030847E+02  0.76874433250E+02  0.00000000000E+00 0.  1.
         11    1    4    4    0    0  0.13913895601E+02 -0.21109932245E+02  0.93639131521E+01  0.26961242547E+02  0.00000000000E+00 0. -1.
        -13    1    3    3    0    0 -0.36592739094E+02  0.12020226357E+02  0.25479267841E+02  0.46181246039E+02  0.00000000000E+00 0.  1.
         13    1    3    3    0    0  0.41188008704E+02  0.17882567995E+02  0.25663545768E+02  0.51719008889E+02  0.00000000000E+00 0. -1.
         21    1    1    2  503  502  0.28433710096E+02  0.14802698350E+02 -0.98544544586E+02  0.10362732755E+03  0.00000000000E+00 0.  1.
         -4    1    1    2    0  503  0.26663697042E+02 -0.35426126862E+02 -0.12674967496E+03  0.13428120980E+03  0.00000000000E+00 0.  1.
<scales pt_clust_5="13000.00000" pt_clust_6="13000.00000" pt_clust_7="13000.00000" pt_clust_8="13000.00000" pt_clust_9="32.05613" pt_clust_10="52.53784"></scales>
<clustering>
<clus scale="   32.056">  2  9  1 -1</clus>
<clus scale="   52.538">  2 10  1 -1</clus>
<clus scale="   77.805">  7  8 -1 -1</clus>
<clus scale="   79.635">  5  6 -1 -1</clus>
<clus scale="   84.828">  1  7  2 -1</clus>
<clus scale="   32.056">  2  5  1 -1</clus>
</clustering>
</event>
<event>
10    2  0.6640105E-006  0.9124861E+02  0.7546771E-02  0.1300248E+00
          2   -1    0    0  503    0 -0.00000000000E+00  0.00000000000E+00  0.68871478681E+03  0.68871478681E+03  0.00000000000E+00 0. -1.
         21   -1    0    0  501  502  0.00000000000E+00 -0.00000000000E+00 -0.26670526356E+02  0.26670526356E+02  0.00000000000E+00 0.  1.
         23    2    1    2    0    0 -0.98541627815E+01 -0.82133127403E+01  0.32539169783E+03  0.33816444452E+03  0.91163981346E+02 0.  0.
         23    2    1    2    0    0 -0.56039479079E+01 -0.15997959019E+02  0.25909813498E+03  0.27497352872E+03  0.90505574527E+02 0.  0.
        -11    1    4    4    0    0 -0.29078466757E+02  0.20927421205E+02  0.18880961972E+03  0.19217852816E+03  0.00000000000E+00 0.  1.
         11    1    4    4    0    0  0.23474518849E+02 -0.36925380224E+02  0.70288515266E+02  0.82795000563E+02  0.00000000000E+00 0. -1.
        -13    1    3    3    0    0 -0.11606664097E+02  0.41105062125E+02  0.15052271382E+03  0.15646542161E+03  0.00000000000E+00 0.  1.
         13    1    3    3    0    0  0.17525013154E+01 -0.49318374865E+02  0.17486898400E+03  0.18169902291E+03  0.00000000000E+00 0. -1.
         21    1    1    2  503  502 -0.22691024795E+02  0.63227006778E+01  0.19892865575E+02  0.30831562576E+02  0.00000000000E+00 0.  1.
          2    1    1    2  501    0  0.38149135484E+02  0.17888571082E+02  0.57661562065E+02  0.71415777342E+02  0.00000000000E+00 0. -1.
<scales pt_clust_5="13000.00000" pt_clust_6="13000.00000" pt_clust_7="13000.00000" pt_clust_8="13000.00000" pt_clust_9="23.55545" pt_clust_10="36.68148"></scales>
<clustering>
<clus scale="   23.555">  2  9  1 -1</clus>
<clus scale="   36.681">  2 10  1 -1</clus>
<clus scale="   90.506">  5  6 -1 -1</clus>
<clus scale="   90.591">  2  5  1 -1</clus>
<clus scale="   91.164">  7  8 -1 -1</clus>
<clus scale="   23.555">  2  5  1 -1</clus>
</clustering>
</event>
<event>
10    2  0.6640105E-006  0.1096415E+03  0.7546771E-02  0.1261585E+00
         -3   -1    0    0    0  501 -0.00000000000E+00  0.00000000000E+00  0.29525923929E+03  0.29525923929E+03  0.00000000000E+00 0.  1.
         21   -1    0    0  503  502  0.00000000000E+00 -0.00000000000E+00 -0.78395351129E+02  0.78395351129E+02  0.00000000000E+00 0. -1.
         23    2    1    2    0    0  0.24542107452E+02 -0.48309228693E+02  0.10422304319E+03  0.14959212110E+03  0.92624312948E+02 0.  0.
         23    2    1    2    0    0 -0.32502844930E+02  0.53248372209E+02  0.48220960393E+02  0.12231089208E+03  0.93503311321E+02 0.  0.
        -13    1    4    4    0    0 -0.33125370433E+02  0.31506116390E+02  0.74985601297E+02  0.87822354433E+02  0.00000000000E+00 0.  1.
         13    1    4    4    0    0  0.62252550299E+00  0.21742255818E+02 -0.26764640904E+02  0.34488537644E+02  0.00000000000E+00 0. -1.
        -13    1    3    3    0    0 -0.17458017052E+02 -0.60306950278E+02  0.70541276389E+02  0.94434010218E+02  0.00000000000E+00 0.  1.
         13    1    3    3    0    0  0.42000124503E+02  0.11997721585E+02  0.33681766800E+02  0.55158110884E+02  0.00000000000E+00 0. -1.
         21    1    1    2  503  501  0.37146576321E+02  0.17697094854E+02  0.27255761304E+02  0.49355160043E+02  0.00000000000E+00 0. -1.
         -3    1    1    2    0  502 -0.29185838843E+02 -0.22636238369E+02  0.37164123280E+02  0.52396417202E+02  0.00000000000E+00 0.  1.
<scales pt_clust_5="13000.00000" pt_clust_6="13000.00000" pt_clust_7="13000.00000" pt_clust_8="13000.00000" pt_clust_9="35.53477" pt_clust_10="36.93527"></scales>
<clustering>
<clus scale="   36.935">  2 10  1 -1</clus>
<clus scale="   35.535">  2  9  1 -1</clus>
<clus scale="   92.624">  7  8 -1 -1</clus>
<clus scale="   93.503">  5  6 -1 -1</clus>
<clus scale="  108.893">  1  7  2 -1</clus>
<clus scale="   36.935">  2  5  1 -1</clus>
</clustering>
</event>
<event>
10    2  0.6640105E-006  0.1162226E+03  0.7546771E-02  0.1250179E+00
          1   -1    0    0  502    0 -0.00000000000E+00  0.00000000000E+00  0.19076768908E+03  0.19076768908E+03  0.00000000000E+00 0. -1.
         21   -1    0    0  503  502  0.00000000000E+00 -0.00000000000E+00 -0.41541116475E+03  0.41541116475E+03  0.00000000000E+00 0.  1.
         23    2    1    2    0    0 -0.97230477481E+02  0.44267760227E+02  0.52617171720E+02  0.14915958888E+03  0.89814340988E+02 0.  0.
         23    2    1    2    0    0 -0.91270508841E+01 -0.56078466513E+02 -0.36921939775E+02  0.11079936968E+03  0.87665119749E+02 0.  0.
        -11    1    4    4    0    0  0.92438688433E+01 -0.75799778567E+02 -0.34328248851E+02  0.83722662471E+02  0.00000000000E+00 0. -1.
         11    1    4    4    0    0 -0.18370919727E+02  0.19721312054E+02 -0.25936909238E+01  0.27076707210E+02  0.00000000000E+00 0.  1.
        -11    1    3    3    0    0  0.17090627529E+02  0.10803822735E+02  0.46548478217E+01  0.20748005766E+02  0.00000000000E+00 0.  1.
         11    1    3    3    0    0 -0.11432110501E+03  0.33463937493E+02  0.47962323898E+02  0.12841158311E+03  0.00000000000E+00 0. -1.
         21    1    1    2  503  501  0.38640269940E+02  0.12843655734E+02 -0.26944552273E+03  0.27250489844E+03  0.00000000000E+00 0.  1.
          1    1    1    2  501    0  0.67717258425E+02 -0.10329494482E+01  0.29106815114E+02  0.73714996841E+02  0.00000000000E+00 0. -1.
<scales pt_clust_5="13000.00000" pt_clust_6="13000.00000" pt_clust_7="13000.00000" pt_clust_8="13000.00000" pt_clust_9="40.71891" pt_clust_10="73.69033"></scales>
<clustering>
<clus scale="   40.719">  2  9  1 -1</clus>
<clus scale="   73.690">  2 10  1 -1</clus>
<clus scale="   87.665">  5  6 -1 -1</clus>
<clus scale="   89.814">  7  8 -1 -1</clus>
<clus scale="  114.570">  2  5  1 -1</clus>
<clus scale="   40.719">  2  5  1 -1</clus>
</clustering>
</event>
<event>
10    2  0.6640105E-006  0.1550683E+03  0.7546771E-02  0.1216887E+00
         21   -1    0    0  501  502  0.00000000000E+00  0.00000000000E+00  0.19860673840E+03  0.19860673840E+03  0.00000000000E+00 0.  1.
          1   -1    0    0  503    0 -0.00000000000E+00 -0.00000000000E+00 -0.36326064971E+03  0.36326064971E+03  0.00000000000E+00 0. -1.
         23    2    1    2    0    0  0.65010136270E+00  0.29701474094E+02 -0.19896231646E+03  0.22203707615E+03  0.93977974128E+02 0.  0.
         23    2    1    2    0    0  0.92118759556E+02 -0.88868243419E+02 -0.22628772006E+02  0.15751481675E+03  0.88968677769E+02 0.  0.
        -11    1    3    3    0    0 -0.24881013483E+02  0.55500741138E+02 -0.10554318258E+03  0.12181445106E+03  0.00000000000E+00 0. -1.
         11    1    3    3    0    0  0.25531114845E+02 -0.25799267044E+02 -0.93419133883E+02  0.10022262509E+03  0.00000000000E+00 0.  1.
        -11    1    4    4    0    0  0.49188271079E+02  0.51253424175E+00 -0.30775002506E+02  0.58024559303E+02  0.00000000000E+00 0. -1.
         11    1    4    4    0    0  0.42930488477E+02 -0.89380777661E+02  0.81462305006E+01  0.99490257450E+02  0.00000000000E+00 0.  1.
         21    1    1    2  503  502  0.56930677551E+01 -0.20660754580E+02 -0.23802614873E+02  0.32028772613E+02  0.00000000000E+00 0.  1.
          1    1    1    2  501    0 -0.98461928674E+02  0.79827523906E+02  0.80739792021E+02  0.15028672259E+03  0.00000000000E+00 0. -1.
<scales pt_clust_5="13000.00000" pt_clust_6="13000.00000" pt_clust_7="13000.00000" pt_clust_8="13000.00000" pt_clust_9="21.43077" pt_clust_10="127.00693"></scales>
<clustering>
<clus scale="   21.431">  2  9  1 -1</clus>
<clus scale="   88.969">  7  8 -1 -1</clus>
<clus scale="   93.978">  5  6 -1 -1</clus>
<clus scale="   95.549">  2  5  1 -1</clus>
<clus scale="  127.007">  1 10  2 -1</clus>
<clus scale="  127.007">  1  5  2 -1</clus>
</clustering>
</event>
<event>
10    2  0.6640105E-006  0.9197560E+02  0.7546771E-02  0.1301195E+00
          2   -1    0    0  502    0 -0.00000000000E+00  0.00000000000E+00  0.62128034271E+03  0.62128034271E+03  0.00000000000E+00 0. -1.
         21   -1    0    0  503  502  0.00000000000E+00 -0.00000000000E+00 -0.13783691304E+03  0.13783691304E+03  0.00000000000E+00 0.  1.
         23    2    1    2    0    0 -0.23528662437E+01  0.11709699201E+02  0.32920967157E+03  0.34055479681E+03  0.86347604166E+02 0.  0.
         23    2    1    2    0    0 -0.53609973153E+02  0.11636157219E+02 -0.19637150987E+02  0.10841347479E+03  0.91424473975E+02 0.  0.
        -11    1    4    4    0    0 -0.13175305899E+02 -0.39294084629E+02 -0.48797060971E+01  0.41730388255E+02  0.00000000000E+00 0.  1.
         11    1    4    4    0    0 -0.40434667254E+02  0.50930241847E+02 -0.14757444890E+02  0.66683086538E+02  0.00000000000E+00 0. -1.
        -13    1    3    3    0    0  0.30897457626E+02  0.29028898850E+02  0.10505801039E+03  0.11328952027E+03  0.00000000000E+00 0. -1.
         13    1    3    3    0    0 -0.33250323869E+02 -0.17319199649E+02  0.22415166118E+03  0.22726527654E+03  0.00000000000E+00 0.  1.
         21    1    1    2  503  501  0.23549005254E+02 -0.46500670372E+01 -0.64519341595E+02  0.68839844652E+02  0.00000000000E+00 0.  1.
          2    1    1    2  501    0  0.32413834143E+02 -0.18695789383E+02  0.23839025069E+03  0.24130913950E+03  0.00000000000E+00 0. -1.
<scales pt_clust_5="13000.00000" pt_clust_6="13000.00000" pt_clust_7="13000.00000" pt_clust_8="13000.00000" pt_clust_9="24.00372" pt_clust_10="37.88549"></scales>
<clustering>
<clus scale="   24.004">  2  9  1 -1</clus>
<clus scale="   37.885">  2 10  1 -1</clus>
<clus scale="   86.348">  7  8 -1 -1</clus>
<clus scale="   86.931">  1  7  2 -1</clus>
<clus scale="   91.424">  5  6 -1 -1</clus>
<clus scale="   24.004">  2  5  1 -1</clus>
</clustering>
</event>
<event>
10    2  0.6640105E-006  0.1052011E+03  0.7546771E-02  0.1270034E+00
         21   -1    0    0  501  502  0.00000000000E+00  0.00000000000E+00  0.83151424724E+02  0.83151424724E+02  0.00000000000E+00 0.  1.
          1   -1    0    0  503    0 -0.00000000000E+00 -0.00000000000E+00 -0.50222847219E+03  0.50222847219E+03  0.00000000000E+00 0. -1.
         23    2    1    2    0    0 -0.48881553759E+01  0.84495120109E+01 -0.10927844559E+03  0.14361389843E+03  0.92670841341E+02 0.  0.
         23    2    1    2    0    0 -0.16824453321E+02 -0.93542757567E+02 -0.21871674931E+03  0.25559038032E+03  0.91957144151E+02 0.  0.
        -11    1    3    3    0    0 -0.21820796452E+02 -0.28414814156E+02 -0.11295530224E+02  0.37565114459E+02  0.00000000000E+00 0.  1.
         11    1    3    3    0    0  0.16932641076E+02  0.36864326167E+02 -0.97982915363E+02  0.10604878397E+03  0.00000000000E+00 0. -1.
        -13    1    4    4    0    0  0.22614196328E+02 -0.67501879112E+02 -0.71184975473E+02  0.10067376169E+03  0.00000000000E+00 0. -1.
         13    1    4    4    0    0 -0.39438649649E+02 -0.26040878455E+02 -0.14753177384E+03  0.15491661863E+03  0.00000000000E+00 0.  1.
         21    1    1    2  503  502  0.22784130693E+02  0.18890260665E+02  0.33739044880E+02  0.44880749870E+02  0.00000000000E+00 0. -1.
          1    1    1    2  501    0 -0.10715219968E+01  0.66202984891E+02 -0.12482089745E+03  0.14129486830E+03  0.00000000000E+00 0. -1.
<scales pt_clust_5="13000.00000" pt_clust_6="13000.00000" pt_clust_7="13000.00000" pt_clust_8="13000.00000" pt_clust_9="29.59660" pt_clust_10="69.82592"></scales>
<clustering>
<clus scale="   29.597">  1  9  2 -1</clus>
<clus scale="   69.826">  1 10  2 -1</clus>
<clus scale="   91.957">  7  8 -1 -1</clus>
<clus scale="   92.671">  5  6 -1 -1</clus>
<clus scale="  104.573">  1  7  2 -1</clus>
<clus scale="   29.597">  1  5  2 -1</clus>
</clustering>
</event>
<event>
10    2  0.6640105E-006  0.1423582E+03  0.7546771E-02  0.1244298E+00
          1   -1    0    0  503    0 -0.00000000000E+00  0.00000000000E+00  0.69087609215E+03  0.69087609215E+03  0.00000000000E+00 0.  1.
         21   -1    0    0  501  502  0.00000000000E+00 -0.00000000000E+00 -0.90056245170E+02  0.90056245170E+02  0.00000000000E+00 0.  1.
         23    2    1    2    0    0  0.22696411995E+02  0.49996222856E+01  0.23669984328E+03  0.24648960463E+03  0.64731646386E+02 0.  0.
         23    2    1    2    0    0 -0.29151799598E+02  0.10711335364E+03  0.18305969161E+03  0.23290203699E+03  0.91702836353E+02 0.  0.
        -11    1    3    3    0    0  0.44482567476E+02 -0.50330177578E+01  0.15088874673E+03  0.15738946587E+03  0.00000000000E+00 0.  1.
         11    1    3    3    0    0 -0.21786155481E+02  0.10032640043E+02  0.85811096548E+02  0.89100138763E+02  0.00000000000E+00 0. -1.
        -11    1    4    4    0    0  0.32677598621E+02  0.47781013253E+02  0.82508861173E+02  0.10078969616E+03  0.00000000000E+00 0.  1.
         11    1    4    4    0    0 -0.61829398219E+02  0.59332340387E+02  0.10055083044E+03  0.13211234084E+03  0.00000000000E+00 0. -1.
         21    1    1    2  503  502  0.34936882465E+02 -0.10275692721E+01 -0.39625244942E+02  0.52837502702E+02  0.00000000000E+00 0.  1.
          1    1    1    2  501    0 -0.28481494862E+02 -0.11108540665E+03  0.22068555703E+03  0.24870319299E+03  0.00000000000E+00 0.  1.
<scales pt_clust_5="13000.00000" pt_clust_6="13000.00000" pt_clust_7="13000.00000" pt_clust_8="13000.00000" pt_clust_9="34.95199" pt_clust_10="108.88735"></scales>
<clustering>
<clus scale="   34.952">  2  9  1 -1</clus>
<clus scale="   64.732">  5  6 -1 -1</clus>
<clus scale="   70.154">  1  5  2 -1</clus>
<clus scale="   91.703">  7  8 -1 -1</clus>
<clus scale="  108.887">  2 10  1 -1</clus>
<clus scale="   34.952">  2  5  1 -1</clus>
</clustering>
</event>
<event>
10    2  0.6640105E-006  0.9868942E+02  0.7546771E-02  0.1283662E+00
         21   -1    0    0  501  502  0.00000000000E+00  0.00000000000E+00  0.35511849583E+03  0.35511849583E+03  0.00000000000E+00 0.  1.
          2   -1    0    0  503    0 -0.00000000000E+00 -0.00000000000E+00 -0.29862005668E+03  0.29862005668E+03  0.00000000000E+00 0. -1.
         23    2    1    2    0    0  0.44288929035E+02 -0.48126943806E+02 -0.17221120773E+03  0.20525346012E+03  0.90523869036E+02 0.  0.
         23    2    1    2    0    0 -0.16599385823E+02 -0.44477494602E+02 -0.68979641032E+02  0.12417758949E+03  0.91695669034E+02 0.  0.
        -11    1    3    3    0    0  0.63135838826E+02 -0.19135773406E+02 -0.65039794722E+02  0.92641712342E+02  0.00000000000E+00 0.  1.
         11    1    3    3    0    0 -0.18846909791E+02 -0.28991170400E+02 -0.10717141301E+03  0.11261174777E+03  0.00000000000E+00 0. -1.
        -11    1    4    4    0    0 -0.38201819899E+02 -0.24318337564E+02 -0.80581031034E+02  0.92434101650E+02  0.00000000000E+00 0.  1.
         11    1    4    4    0    0  0.21602434075E+02 -0.20159157037E+02  0.11601390002E+02  0.31743487842E+02  0.00000000000E+00 0. -1.
         21    1    1    2  503  502 -0.51882123371E+02  0.45316926401E+02  0.21727712545E+03  0.22793579752E+03  0.00000000000E+00 0.  1.
          2    1    1    2  501    0  0.24192580160E+02  0.47287512007E+02  0.80412162461E+02  0.96371705382E+02  0.00000000000E+00 0. -1.
<scales pt_clust_5="13000.00000" pt_clust_6="13000.00000" pt_clust_7="13000.00000" pt_clust_8="13000.00000" pt_clust_9="90.51190" pt_clust_10="53.11676"></scales>
<clustering>
<clus scale="   53.117">  1 10  2 -1</clus>
<clus scale="   90.512">  1  9  2 -1</clus>
<clus scale="   90.524">  5  6 -1 -1</clus>
<clus scale="   91.696">  7  8 -1 -1</clus>
<clus scale="   97.602">  2  5  1 -1</clus>
<clus scale="   53.117">  1  5  2 -1</clus>
</clustering>
</event>
<event>
10    2  0.6640105E-006  0.9771297E+02  0.7546771E-02  0.1285882E+00
         -1   -1    0    0    0  501 -0.00000000000E+00  0.00000000000E+00  0.14426476547E+03  0.14426476547E+03  0.00000000000E+00 0.  1.
         21   -1    0    0  501  502  0.00000000000E+00 -0.00000000000E+00 -0.19722499833E+03  0.19722499833E+03  0.00000000000E+00 0.  1.
         23    2    1    2    0    0  0.37502134443E+02  0.38760681282E+02  0.55662718591E+02  0.11849223631E+03  0.89628518477E+02 0.  0.
         23    2    1    2    0    0  0.20111028677E+02  0.18079153212E+02 -0.85896208967E+02  0.12803218022E+03  0.91009731353E+02 0.  0.
        -13    1    3    3    0    0 -0.22897637094E+02  0.10755900659E+01 -0.66645061387E+01  0.23872040561E+02  0.00000000000E+00 0. -1.
         13    1    3    3    0    0  0.60399771537E+02  0.37685091216E+02  0.62327224730E+02  0.94620195752E+02  0.00000000000E+00 0.  1.
        -13    1    4    4    0    0 -0.26974293630E+02  0.24090371945E+02 -0.83590204699E+01  0.37119156247E+02  0.00000000000E+00 0.  1.
         13    1    4    4    0    0  0.47085322306E+02 -0.60112187324E+01 -0.77537188497E+02  0.90913023970E+02  0.00000000000E+00 0. -1.
         21    1    1    2  503  502 -0.11661241562E+02 -0.19848237461E+02 -0.27403005093E+02  0.35789129260E+02  0.00000000000E+00 0.  1.
         -1    1    1    2    0  503 -0.45951921558E+02 -0.36991597032E+02  0.46762626169E+01  0.59176218010E+02  0.00000000000E+00 0.  1.
<scales pt_clust_5="13000.00000" pt_clust_6="13000.00000" pt_clust_7="13000.00000" pt_clust_8="13000.00000" pt_clust_9="23.02036" pt_clust_10="62.54776"></scales>
<clustering>
<clus scale="   23.020">  2  9  1 -1</clus>
<clus scale="   62.548">  2 10  1 -1</clus>
<clus scale="   89.629">  5  6 -1 -1</clus>
<clus scale="   91.010">  7  8 -1 -1</clus>
<clus scale="   96.428">  1  5  2 -1</clus>
<clus scale="   23.020">  2  5  1 -1</clus>
</clustering>
</event>
<event>
10    2  0.6640105E-006  0.9420449E+02  0.7546771E-02  0.1294264E+00
         21   -1    0    0  501  502  0.00000000000E+00  0.00000000000E+00  0.15987223997E+03  0.15987223997E+03  0.00000000000E+00 0.  1.
          3   -1    0    0  503    0 -0.00000000000E+00 -0.00000000000E+00 -0.19358617350E+03  0.19358617350E+03  0.00000000000E+00 0. -1.
         23    2    1    2    0    0 -0.15613230607E+02 -0.20823938419E+02 -0.11043680339E+03  0.14441853662E+03  0.89347729648E+02 0.  0.
         23    2    1    2    0    0  0.19095298256E+02 -0.80901949662E+01  0.22762101982E+02  0.96676286673E+02  0.91641199513E+02 0.  0.
        -13    1    4    4    0    0  0.26910930492E+02 -0.36145275360E+02 -0.16327955034E+02  0.47929961677E+02  0.00000000000E+00 0. -1.
         13    1    4    4    0    0 -0.78156322358E+01  0.28055080394E+02  0.39090057016E+02  0.48746324996E+02  0.00000000000E+00 0.  1.
        -13    1    3    3    0    0 -0.81498906140E+01  0.34728042616E+02 -0.31391974163E+02  0.47517509434E+02  0.00000000000E+00 0.  1.
         13    1    3    3    0    0 -0.74633399931E+01 -0.55551981035E+02 -0.79044829230E+02  0.96901027181E+02  0.00000000000E+00 0. -1.
         21    1    1    2  503  502 -0.27984837648E+02  0.55593985713E+02  0.31727156080E+02  0.69860252065E+02  0.00000000000E+00 0.  1.
          3    1    1    2  501    0  0.24502769999E+02 -0.26679852328E+02  0.22233611801E+02  0.42503338122E+02  0.00000000000E+00 0. -1.
<scales pt_clust_5="13000.00000" pt_clust_6="13000.00000" pt_clust_7="13000.00000" pt_clust_8="13000.00000" pt_clust_9="48.51804" pt_clust_10="36.22430"></scales>
<clustering>
<clus scale="   36.224">  1 10  2 -1</clus>
<clus scale="   48.518">  1  9  2 -1</clus>
<clus scale="   89.348">  7  8 -1 -1</clus>
<clus scale="   91.641">  5  6 -1 -1</clus>
<clus scale="   91.975">  2  7  1 -1</clus>
<clus scale="   36.224">  1  5  2 -1</clus>
</clustering>
</event>
<event>
10    2  0.6640105E-006  0.1150223E+03  0.7546771E-02  0.1252824E+00
         21   -1    0    0  503  502  0.00000000000E+00  0.00000000000E+00  0.83902030583E+03  0.83902030583E+03  0.00000000000E+00 0.  1.
         -2   -1    0    0    0  501 -0.00000000000E+00 -0.00000000000E+00 -0.34975534808E+03  0.34975534808E+03  0.00000000000E+00 0.  1.
         23    2    1    2    0    0  0.44204797011E+02  0.48232110210E+02 -0.15864041972E+03  0.19325008274E+03  0.88873005902E+02 0.  0.
         23    2    1    2    0    0 -0.83536772917E+02 -0.27103846675E+02  0.16380703660E+01  0.12756316862E+03  0.92502258242E+02 0.  0.
        -11    1    4    4    0    0 -0.19082405218E+02 -0.45197148268E+02  0.26970156163E+02  0.55984906215E+02  0.00000000000E+00 0.  1.
         11    1    4    4    0    0 -0.64454367699E+02  0.18093301594E+02 -0.25332085797E+02  0.71578262405E+02  0.00000000000E+00 0. -1.
        -13    1    3    3    0    0 -0.26781961321E+02  0.16454983570E+02 -0.33733021817E+02  0.46108097959E+02  0.00000000000E+00 0. -1.
         13    1    3    3    0    0  0.70986758332E+02  0.31777126640E+02 -0.12490739790E+03  0.14714198478E+03  0.00000000000E+00 0.  1.
         21    1    1    2  503  501  0.12746388229E+03 -0.86262330518E+02  0.71974728497E+03  0.73601928316E+03  0.00000000000E+00 0.  1.
         -2    1    1    2    0  502 -0.88131906382E+02  0.65134066983E+02 -0.73479977872E+02  0.13194311938E+03  0.00000000000E+00 0.  1.
<scales pt_clust_5="13000.00000" pt_clust_6="13000.00000" pt_clust_7="13000.00000" pt_clust_8="13000.00000" pt_clust_9="55.64050" pt_clust_10="109.58874"></scales>
<clustering>
<clus scale="   88.873">  7  8 -1 -1</clus>
<clus scale="   92.502">  5  6 -1 -1</clus>
<clus scale="  109.589">  1 10  2 -1</clus>
<clus scale="   55.640">  1  9  2 -1</clus>
<clus scale="  112.124">  2  7  1 -1</clus>
<clus scale="  109.589">  1  5  2 -1</clus>
</clustering>
</event>
<event>
10    2  0.6640105E-006  0.1625483E+03  0.7546771E-02  0.1185911E+00
         -3   -1    0    0    0  501 -0.00000000000E+00  0.00000000000E+00  0.78068641820E+03  0.78068641820E+03  0.00000000000E+00 0.  1.
         21   -1    0    0  503  502  0.00000000000E+00 -0.00000000000E+00 -0.14598502215E+03  0.14598502215E+03  0.00000000000E+00 0.  1.
         23    2    1    2    0    0 -0.11249086823E+03 -0.71090458576E+02  0.45255518104E+03  0.48162350517E+03  0.97195473757E+02 0.  0.
         23    2    1    2    0    0  0.56376845857E+02  0.12910322927E+03  0.24780829862E+03  0.30104661979E+03  0.96820048878E+02 0.  0.
        -13    1    3    3    0    0 -0.44375910033E+02  0.10832734360E+02  0.63361725486E+02  0.78110676489E+02  0.00000000000E+00 0.  1.
         13    1    3    3    0    0 -0.68114958192E+02 -0.81923192937E+02  0.38919345555E+03  0.40351282868E+03  0.00000000000E+00 0. -1.
        -13    1    4    4    0    0  0.75538137032E+02  0.55680440289E+02  0.11901400185E+03  0.15156072781E+03  0.00000000000E+00 0. -1.
         13    1    4    4    0    0 -0.19161291175E+02  0.73422788983E+02  0.12879429677E+03  0.14948589198E+03  0.00000000000E+00 0.  1.
         21    1    1    2  503  501  0.17593852863E+02 -0.52868489400E+02  0.12146330905E+02  0.57027661573E+02  0.00000000000E+00 0.  1.
         -3    1    1    2    0  502  0.38520169505E+02 -0.51442812961E+01 -0.77808414511E+02  0.86973653812E+02  0.00000000000E+00 0.  1.
<scales pt_clust_5="13000.00000" pt_clust_6="13000.00000" pt_clust_7="13000.00000" pt_clust_8="13000.00000" pt_clust_9="62.95173" pt_clust_10="38.86215"></scales>
<clustering>
<clus scale="   38.862">  2 10  1 -1</clus>
<clus scale="   62.952">  2  9  1 -1</clus>
<clus scale="   96.820">  7  8 -1 -1</clus>
<clus scale="   97.195">  5  6 -1 -1</clus>
<clus scale="  162.324">  2  7  1 -1</clus>
<clus scale="   38.862">  2  5  1 -1</clus>
</clustering>
</event>
<event>
10    2  0.6640105E-006  0.4370304E+03  0.7546771E-02  0.1031670E+00
          1   -1    0    0  503    0 -0.00000000000E+00  0.00000000000E+00  0.56538528473E+03  0.56538528473E+03  0.00000000000E+00 0. -1.
         21   -1    0    0  501  502  0.00000000000E+00 -0.00000000000E+00 -0.54475341440E+03  0.54475341440E+03  0.00000000000E+00 0.  1.
         23    2    1    2    0    0 -0.39101197101E+03 -0.16204807262E+03  0.16331849996E+03  0.46268462366E+03  0.90852568624E+02 0.  0.
         23    2    1    2    0    0  0.38832552083E+03  0.19554983965E+03 -0.22678696064E+02  0.44465535973E+03  0.90374862473E+02 0.  0.
        -11    1    3    3    0    0 -0.26063928898E+03 -0.62899962207E+02  0.11646729000E+03  0.29232494564E+03  0.00000000000E+00 0. -1.
         11    1    3    3    0    0 -0.13037268203E+03 -0.99148110412E+02  0.46851209968E+02  0.17035967802E+03  0.00000000000E+00 0.  1.
        -11    1    4    4    0    0  0.28757115180E+03  0.11365767612E+03 -0.46368510911E+02  0.31267438893E+03  0.00000000000E+00 0.  1.
         11    1    4    4    0    0  0.10075436903E+03  0.81892163527E+02  0.23689814847E+02  0.13198097080E+03  0.00000000000E+00 0. -1.
         21    1    1    2  503  502  0.62870191400E+02 -0.12019624849E+02 -0.12317917698E+03  0.13881729715E+03  0.00000000000E+00 0.  1.
          1    1    1    2  501    0 -0.60183741220E+02 -0.21482142179E+02  0.31712434098E+01  0.63981418588E+02  0.00000000000E+00 0. -1.
<scales pt_clust_5="13000.00000" pt_clust_6="13000.00000" pt_clust_7="13000.00000" pt_clust_8="13000.00000" pt_clust_9="50.65752" pt_clust_10="63.90281"></scales>
<clustering>
<clus scale="   63.903">  2 10  1 -1</clus>
<clus scale="   50.658">  2  9  1 -1</clus>
<clus scale="   90.375">  7  8 -1 -1</clus>
<clus scale="   90.853">  5  6 -1 -1</clus>
<clus scale="  436.931">  2  7  1 -1</clus>
<clus scale="   63.903">  2  5  1 -1</clus>
</clustering>
</event>
<event>
10    2  0.6640105E-006  0.9472940E+02  0.7546771E-02  0.1292747E+00
          2   -1    0    0  503    0 -0.00000000000E+00  0.00000000000E+00  0.14885230338E+03  0.14885230338E+03  0.00000000000E+00 0. -1.
         21   -1    0    0  501  502  0.00000000000E+00 -0.00000000000E+00 -0.11979864922E+03  0.11979864922E+03  0.00000000000E+00 0.  1.
         23    2    1    2    0    0  0.41402615323E+00  0.16659531530E+02  0.46774508295E+02  0.10577794364E+03  0.93399182679E+02 0.  0.
         23    2    1    2    0    0  0.28933737034E+02 -0.19859713084E+01  0.14121705212E+02  0.97200456218E+02  0.91691880284E+02 0.  0.
        -11    1    3    3    0    0 -0.45139419596E+02  0.47042202302E+01  0.34780627290E+02  0.57178570498E+02  0.00000000000E+00 0.  1.
         11    1    3    3    0    0  0.45553445749E+02  0.11955311300E+02  0.11993881005E+02  0.48599373139E+02  0.00000000000E+00 0. -1.
        -13    1    4    4    0    0 -0.72745801233E+01  0.39747177662E+02  0.10355721461E+01  0.40420663747E+02  0.00000000000E+00 0.  1.
         13    1    4    4    0    0  0.36208317157E+02 -0.41733148971E+02  0.13086133065E+02  0.56779792470E+02  0.00000000000E+00 0. -1.
         21    1    1    2  503  502 -0.97623068306E+01 -0.19410250516E+02 -0.38704765471E+02  0.44386026291E+02  0.00000000000E+00 0.  1.
          2    1    1    2  501    0 -0.19585456357E+02  0.47366902940E+01  0.68622061314E+01  0.21286526458E+02  0.00000000000E+00 0. -1.
<scales pt_clust_5="13000.00000" pt_clust_6="13000.00000" pt_clust_7="13000.00000" pt_clust_8="13000.00000" pt_clust_9="24.50720" pt_clust_10="20.15011"></scales>
<clustering>
<clus scale="   20.150">  2 10  1 -1</clus>
<clus scale="   24.507">  2  9  1 -1</clus>
<clus scale="   91.692">  7  8 -1 -1</clus>
<clus scale="   93.047">  2  7  1 -1</clus>
<clus scale="   93.399">  5  6 -1 -1</clus>
<clus scale="   20.150">  2  5  1 -1</clus>
</clustering>
</event>
<event>
10    2  0.6640105E-006  0.1326432E+03  0.7546771E-02  0.1240396E+00
          1   -1    0    0  503    0 -0.00000000000E+00  0.00000000000E+00  0.38072684510E+03  0.38072684510E+03  0.00000000000E+00 0. -1.
         21   -1    0    0  501  502  0.00000000000E+00 -0.00000000000E+00 -0.12728684571E+03  0.12728684571E+03  0.00000000000E+00 0.  1.
         23    2    1    2    0    0 -0.58430012474E+01 -0.15785652489E+02  0.10778271045E+03  0.14263829056E+03  0.91897996574E+02 0.  0.
         23    2    1    2    0    0  0.31917804388E+02 -0.82459936320E+02  0.16442166434E+03  0.20851127939E+03  0.92865938824E+02 0.  0.
        -11    1    4    4    0    0 -0.29542173369E+02 -0.69318770386E+01  0.31495034876E+02  0.43734747610E+02  0.00000000000E+00 0.  1.
         11    1    4    4    0    0  0.61459977757E+02 -0.75528059281E+02  0.13292662947E+03  0.16477653178E+03  0.00000000000E+00 0. -1.
        -13    1    3    3    0    0 -0.18716545745E+02  0.33460095613E+02  0.26050362134E+02  0.46352005894E+02  0.00000000000E+00 0. -1.
         13    1    3    3    0    0  0.12873544498E+02 -0.49245748102E+02  0.81732348311E+02  0.96286284664E+02  0.00000000000E+00 0.  1.
         21    1    1    2  503  502  0.11985325374E+02  0.94275231572E+02 -0.50075617845E+02  0.10741989953E+03  0.00000000000E+00 0.  1.
          1    1    1    2  501    0 -0.38060128515E+02  0.39703572362E+01  0.31311242450E+02  0.49444221330E+02  0.00000000000E+00 0. -1.
<scales pt_clust_5="13000.00000" pt_clust_6="13000.00000" pt_clust_7="13000.00000" pt_clust_8="13000.00000" pt_clust_9="94.71078" pt_clust_10="38.26668"></scales>
<clustering>
<clus scale="   38.267">  2 10  1 -1</clus>
<clus scale="   91.898">  7  8 -1 -1</clus>
<clus scale="   92.866">  5  6 -1 -1</clus>
<clus scale="   93.848">  1  7  2 -1</clus>
<clus scale="   94.711">  2  9  1 -1</clus>
<clus scale="   38.267">  2  5  1 -1</clus>
</clustering>
</event>
<event>
10    2  0.6640105E-006  0.5509567E+03  0.7546771E-02  0.1038895E+00
          2   -1    0    0  503    0 -0.00000000000E+00  0.00000000000E+00  0.11013406367E+04  0.11013406367E+04  0.00000000000E+00 0. -1.
         21   -1    0    0  501  502  0.00000000000E+00 -0.00000000000E+00 -0.85819402162E+03  0.85819402162E+03  0.00000000000E+00 0. -1.
         23    2    1    2    0    0  0.76883391843E+02 -0.87016396558E+02 -0.20918872294E+03  0.25720638835E+03  0.94404953227E+02 0.  0.
         23    2    1    2    0    0  0.30564837076E+03 -0.30388897796E+03  0.60430096585E+03  0.74978320708E+03  0.10595170038E+03 0.  0.
        -11    1    4    4    0    0  0.20145441906E+02 -0.75741983336E+02  0.10783844334E+03  0.13331097753E+03  0.00000000000E+00 0.  1.
         11    1    4    4    0    0  0.28550292885E+03 -0.22814699462E+03  0.49646252251E+03  0.61647222954E+03  0.00000000000E+00 0. -1.
        -11    1    3    3    0    0  0.58116208709E+02 -0.10226260514E+03 -0.13437692210E+03  0.17858412952E+03  0.00000000000E+00 0. -1.
         11    1    3    3    0    0  0.18767183134E+02  0.15246208579E+02 -0.74811800844E+02  0.78622258835E+02  0.00000000000E+00 0.  1.
         21    1    1    2  503  502  0.68999593809E+02 -0.42107850664E+02 -0.29913432981E+03  0.30986345752E+03  0.00000000000E+00 0. -1.
          2    1    1    2  501    0 -0.45153135641E+03  0.43301322518E+03  0.14716870194E+03  0.64268160533E+03  0.00000000000E+00 0. -1.
<scales pt_clust_5="13000.00000" pt_clust_6="13000.00000" pt_clust_7="13000.00000" pt_clust_8="13000.00000" pt_clust_9="80.83325" pt_clust_10="540.67317"></scales>
<clustering>
<clus scale="   80.833">  2  9  1 -1</clus>
<clus scale="   94.405">  7  8 -1 -1</clus>
<clus scale="  105.952">  5  6 -1 -1</clus>
<clus scale="  176.378">  1  7  2 -1</clus>
<clus scale="  540.673">  2 10  1 -1</clus>
<clus scale="   80.833">  2  5  1 -1</clus>
</clustering>
</event>
<event>
10    2  0.6640105E-006  0.1916971E+03  0.7546771E-02  0.1157184E+00
          2   -1    0    0  503    0 -0.00000000000E+00  0.00000000000E+00  0.41711155878E+03  0.41711155878E+03  0.00000000000E+00 0. -1.
         21   -1    0    0  501  502  0.00000000000E+00 -0.00000000000E+00 -0.25936960714E+03  0.25936960714E+03  0.00000000000E+00 0. -1.
         23    2    1    2    0    0  0.67176074619E+02 -0.16397105893E+03  0.32878659240E+03  0.38477603823E+03  0.92481582399E+02 0.  0.
         23    2    1    2    0    0 -0.32544444128E+02  0.12332065258E+03 -0.75577113459E+02  0.17353486677E+03  0.90196040427E+02 0.  0.
        -13    1    4    4    0    0 -0.42506144930E+02  0.77263162893E+02 -0.88229887885E+02  0.12474326360E+03  0.00000000000E+00 0.  1.
         13    1    4    4    0    0  0.99617008013E+01  0.46057489687E+02  0.12652774426E+02  0.48791603169E+02  0.00000000000E+00 0. -1.
        -13    1    3    3    0    0  0.89785870157E+02 -0.14132419680E+03  0.26609731820E+03  0.31439117964E+03  0.00000000000E+00 0. -1.
         13    1    3    3    0    0 -0.22609795538E+02 -0.22646862123E+02  0.62689274201E+02  0.70384858585E+02  0.00000000000E+00 0.  1.
         21    1    1    2  503  502 -0.10123528201E+02  0.28549791083E+02 -0.16260591131E+02  0.34379982810E+02  0.00000000000E+00 0. -1.
          2    1    1    2  501    0 -0.24508102290E+02  0.12100615265E+02 -0.79206936180E+02  0.83790278116E+02  0.00000000000E+00 0. -1.
<scales pt_clust_5="13000.00000" pt_clust_6="13000.00000" pt_clust_7="13000.00000" pt_clust_8="13000.00000" pt_clust_9="33.19201" pt_clust_10="27.33262"></scales>
<clustering>
<clus scale="   27.333">  2 10  1 -1</clus>
<clus scale="   33.192">  2  9  1 -1</clus>
<clus scale="   90.196">  5  6 -1 -1</clus>
<clus scale="   92.482">  7  8 -1 -1</clus>
<clus scale="  190.605">  2  5  1 -1</clus>
<clus scale="   27.333">  2  5  1 -1</clus>
</clustering>
</event>
<event>
10    2  0.6640105E-006  0.9906622E+02  0.7546771E-02  0.1285389E+00
         21   -1    0    0  503  502  0.00000000000E+00  0.00000000000E+00  0.14250301583E+03  0.14250301583E+03  0.00000000000E+00 0.  1.
         -1   -1    0    0    0  501 -0.00000000000E+00 -0.00000000000E+00 -0.24030166708E+03  0.24030166708E+03  0.00000000000E+00 0.  1.
         23    2    1    2    0    0 -0.42387531657E+02 -0.19422254425E+02 -0.12911722816E+03  0.16154085907E+03  0.85148480524E+02 0.  0.
         23    2    1    2    0    0  0.54407492982E+02  0.22545172441E+02 -0.38981000187E+02  0.10557675848E+03  0.78475941930E+02 0.  0.
        -11    1    4    4    0    0 -0.25622188051E+01  0.35347980973E+02 -0.12779661978E+00  0.35440951680E+02  0.00000000000E+00 0.  1.
         11    1    4    4    0    0  0.56969711787E+02 -0.12802808531E+02 -0.38853203568E+02  0.70135806796E+02  0.00000000000E+00 0. -1.
        -11    1    3    3    0    0  0.12722443209E+02  0.23713519181E+02 -0.31523853300E+02  0.41448098630E+02  0.00000000000E+00 0.  1.
         11    1    3    3    0    0 -0.55109974866E+02 -0.43135773606E+02 -0.97593374857E+02  0.12009276044E+03  0.00000000000E+00 0. -1.
         21    1    1    2  503  501 -0.50991453727E+02  0.73552856718E+01  0.38980119559E+02  0.64604011496E+02  0.00000000000E+00 0. -1.
         -1    1    1    2    0  502  0.38971492401E+02 -0.10478203688E+02  0.31319457538E+02  0.51083053873E+02  0.00000000000E+00 0.  1.
<scales pt_clust_5="13000.00000" pt_clust_6="13000.00000" pt_clust_7="13000.00000" pt_clust_8="13000.00000" pt_clust_9="31.13088" pt_clust_10="40.35554"></scales>
<clustering>
<clus scale="   40.356">  1 10  2 -1</clus>
<clus scale="   31.131">  1  9  2 -1</clus>
<clus scale="   78.476">  5  6 -1 -1</clus>
<clus scale="   85.148">  7  8 -1 -1</clus>
<clus scale="   93.393">  1  5  2 -1</clus>
<clus scale="   40.356">  1  5  2 -1</clus>
</clustering>
</event>
<event>
10    2  0.6640105E-006  0.3233742E+03  0.7546771E-02  0.1074150E+00
         21   -1    0    0  501  502  0.00000000000E+00  0.00000000000E+00  0.31739651708E+03  0.31739651708E+03  0.00000000000E+00 0. -1.
          2   -1    0    0  503    0 -0.00000000000E+00 -0.00000000000E+00 -0.72022680606E+03  0.72022680606E+03  0.00000000000E+00 0. -1.
         23    2    1    2    0    0  0.30480785266E+03  0.67890183678E+02 -0.28750661228E+03  0.43371760230E+03  0.89073016996E+02 0.  0.
         23    2    1    2    0    0 -0.31165724178E+03 -0.60598049129E+01 -0.22607008657E+03  0.39554132589E+03  0.90433947461E+02 0.  0.
        -11    1    3    3    0    0  0.17814786485E+03 -0.36711117921E+01 -0.14069563809E+03  0.22703612354E+03  0.00000000000E+00 0.  1.
         11    1    3    3    0    0  0.12665998781E+03  0.71561295470E+02 -0.14681097419E+03  0.20668147876E+03  0.00000000000E+00 0. -1.
        -13    1    4    4    0    0 -0.29827354292E+03  0.15154980303E+02 -0.21566142773E+03  0.36838380969E+03  0.00000000000E+00 0.  1.
         13    1    4    4    0    0 -0.13383698859E+02 -0.21214785216E+02 -0.10408658841E+02  0.27157516193E+02  0.00000000000E+00 0. -1.
         21    1    1    2  503  502 -0.59463918672E+02  0.24382066183E+02  0.61556318628E+02  0.88992264485E+02  0.00000000000E+00 0. -1.
          2    1    1    2  501    0  0.66313307795E+02 -0.86212444948E+02  0.49190091240E+02  0.11937213046E+03  0.00000000000E+00 0. -1.
<scales pt_clust_5="13000.00000" pt_clust_6="13000.00000" pt_clust_7="13000.00000" pt_clust_8="13000.00000" pt_clust_9="64.26852" pt_clust_10="90.12144"></scales>
<clustering>
<clus scale="   64.269">  1  9  2 -1</clus>
<clus scale="   89.073">  5  6 -1 -1</clus>
<clus scale="   90.121">  1 10  2 -1</clus>
<clus scale="   90.434">  7  8 -1 -1</clus>
<clus scale="  322.996">  2  5  1 -1</clus>
<clus scale="   64.269">  1  5  2 -1</clus>
</clustering>
</event>
<event>
10    2  0.6640105E-006  0.1483758E+03  0.7546771E-02  0.1204154E+00
          1   -1    0    0  502    0 -0.00000000000E+00  0.00000000000E+00  0.89813878683E+02  0.89813878683E+02  0.00000000000E+00 0. -1.
         21   -1    0    0  503  502  0.00000000000E+00 -0.00000000000E+00 -0.50364616906E+03  0.50364616906E+03  0.00000000000E+00 0. -1.
         23    2    1    2    0    0  0.27292567742E+02  0.60831300718E+02 -0.16391423117E+03  0.20249219948E+03  0.98437209786E+02 0.  0.
         23    2    1    2    0    0 -0.12478960685E+03 -0.10486036140E+03 -0.14951022941E+03  0.23891102402E+03  0.90316262835E+02 0.  0.
        -11    1    4    4    0    0 -0.94794168146E+02 -0.51900841441E+02 -0.43151541057E+02  0.11636875505E+03  0.00000000000E+00 0. -1.
         11    1    4    4    0    0 -0.29995438701E+02 -0.52959519962E+02 -0.10635868835E+03  0.12254226897E+03  0.00000000000E+00 0.  1.
        -13    1    3    3    0    0  0.63147993810E+02  0.52278211238E+02 -0.11577316411E+03  0.14185945869E+03  0.00000000000E+00 0.  1.
         13    1    3    3    0    0 -0.35855426068E+02  0.85530894808E+01 -0.48141067056E+02  0.60632740788E+02  0.00000000000E+00 0. -1.
         21    1    1    2  503  501  0.27058425179E+02 -0.24807121226E+01 -0.11628255875E+02  0.29555517936E+02  0.00000000000E+00 0. -1.
          1    1    1    2  501    0  0.70438613926E+02  0.46509772808E+02 -0.88779573927E+02  0.12250130630E+03  0.00000000000E+00 0. -1.
<scales pt_clust_5="13000.00000" pt_clust_6="13000.00000" pt_clust_7="13000.00000" pt_clust_8="13000.00000" pt_clust_9="22.66161" pt_clust_10="114.19089"></scales>
<clustering>
<clus scale="   22.662">  9 10 -1 -1</clus>
<clus scale="   90.316">  5  6 -1 -1</clus>
<clus scale="   98.437">  7  8 -1 -1</clus>
<clus scale="  114.191">  2  9  1 -1</clus>
<clus scale="  143.117">  2  5  1 -1</clus>
<clus scale="  114.191">  2  5  1 -1</clus>
</clustering>
</event>
<event>
10    2  0.6640105E-006  0.1282892E+03  0.7546771E-02  0.1232945E+00
         21   -1    0    0  503  502  0.00000000000E+00  0.00000000000E+00  0.37392422072E+03  0.37392422072E+03  0.00000000000E+00 0.  1.
          1   -1    0    0  502    0 -0.00000000000E+00 -0.00000000000E+00 -0.13834555621E+03  0.13834555621E+03  0.00000000000E+00 0. -1.
         23    2    1    2    0    0 -0.12863012143E+02 -0.87357225239E+02 -0.39517908555E+02  0.13982304229E+03  0.10095581298E+03 0.  0.
         23    2    1    2    0    0  0.59505993873E+02  0.44291707847E+02  0.88178854665E+02  0.14696809777E+03  0.91221667720E+02 0.  0.
        -13    1    4    4    0    0  0.48748359082E+02  0.70599806938E+02  0.80210148378E+02  0.11744957708E+03  0.00000000000E+00 0. -1.
         13    1    4    4    0    0  0.10757634790E+02 -0.26308099090E+02  0.79687062866E+01  0.29518520693E+02  0.00000000000E+00 0.  1.
        -13    1    3    3    0    0  0.43035695172E+02 -0.46085737137E+02 -0.81248452122E+01  0.63576562790E+02  0.00000000000E+00 0.  1.
         13    1    3    3    0    0 -0.55898707315E+02 -0.41271488102E+02 -0.31393063343E+02  0.76246479497E+02  0.00000000000E+00 0. -1.
         21    1    1    2  503  501  0.29236816742E+02 -0.32807905205E+01  0.86437280397E+02  0.91306946516E+02  0.00000000000E+00 0.  1.
          1    1    1    2  501    0 -0.75879798472E+02  0.46346307913E+02  0.10048043800E+03  0.13417169036E+03  0.00000000000E+00 0. -1.
<scales pt_clust_5="13000.00000" pt_clust_6="13000.00000" pt_clust_7="13000.00000" pt_clust_8="13000.00000" pt_clust_9="29.42032" pt_clust_10="78.10862"></scales>
<clustering>
<clus scale="   29.420">  1  9  2 -1</clus>
<clus scale="   78.109">  1 10  2 -1</clus>
<clus scale="   91.222">  5  6 -1 -1</clus>
<clus scale="  100.956">  7  8 -1 -1</clus>
<clus scale="  120.778">  1  5  2 -1</clus>
<clus scale="   29.420">  1  5  2 -1</clus>
</clustering>
</event>
<event>
10    2  0.6640105E-006  0.3110376E+03  0.7546771E-02  0.1079964E+00
         21   -1    0    0  501  502  0.00000000000E+00  0.00000000000E+00  0.22025487234E+03  0.22025487234E+03  0.00000000000E+00 0. -1.
          1   -1    0    0  503    0 -0.00000000000E+00 -0.00000000000E+00 -0.11906366324E+04  0.11906366324E+04  0.00000000000E+00 0. -1.
         23    2    1    2    0    0  0.78760230906E+02  0.35908855554E+03 -0.74438811645E+03  0.83547311443E+03  0.93562237695E+02 0.  0.
         23    2    1    2    0    0  0.17538188000E+02 -0.21776131705E+03 -0.20336865095E+03  0.31184388964E+03  0.90333958583E+02 0.  0.
        -11    1    3    3    0    0  0.29406328217E+02  0.17744075439E+02 -0.73217169862E+02  0.80872358164E+02  0.00000000000E+00 0.  1.
         11    1    3    3    0    0  0.49353902690E+02  0.34134448010E+03 -0.67117094659E+03  0.75460075626E+03  0.00000000000E+00 0. -1.
        -13    1    4    4    0    0 -0.94845051548E+01 -0.15591638101E+03 -0.18454268411E+03  0.24177650003E+03  0.00000000000E+00 0.  1.
         13    1    4    4    0    0  0.27022693155E+02 -0.61844936046E+02 -0.18825966832E+02  0.70067389612E+02  0.00000000000E+00 0. -1.
         21    1    1    2  503  502 -0.26564574727E+02  0.97544858119E+01  0.68316912628E+02  0.73946109938E+02  0.00000000000E+00 0. -1.
          1    1    1    2  501    0 -0.69733844179E+02 -0.15108172430E+03 -0.90941905301E+02  0.18962839075E+03  0.00000000000E+00 0. -1.
<scales pt_clust_5="13000.00000" pt_clust_6="13000.00000" pt_clust_7="13000.00000" pt_clust_8="13000.00000" pt_clust_9="28.29888" pt_clust_10="167.41209"></scales>
<clustering>
<clus scale="   28.299">  1  9  2 -1</clus>
<clus scale="   90.334">  7  8 -1 -1</clus>
<clus scale="   93.562">  5  6 -1 -1</clus>
<clus scale="  167.412">  1 10  2 -1</clus>
<clus scale="  310.082">  1  7  2 -1</clus>
<clus scale="   28.299">  1  5  2 -1</clus>
</clustering>
</event>
<event>
10    2  0.6640105E-006  0.1362698E+03  0.7546771E-02  0.1220305E+00
          1   -1    0    0  502    0 -0.00000000000E+00  0.00000000000E+00  0.50224831214E+03  0.50224831214E+03  0.00000000000E+00 0. -1.
         21   -1    0    0  503  502  0.00000000000E+00 -0.00000000000E+00 -0.12017018166E+03  0.12017018166E+03  0.00000000000E+00 0.  1.
         23    2    1    2    0    0 -0.88588464597E+02  0.45678652490E+02  0.35713197572E+03  0.38053238181E+03  0.85599008014E+02 0.  0.
         23    2    1    2    0    0  0.10723222278E+03  0.28483598540E+01 -0.34585556217E+02  0.14639664758E+03  0.93428876514E+02 0.  0.
        -13    1    3    3    0    0 -0.57344596248E+02 -0.75947742130E+01  0.25242835816E+03  0.25897134845E+03  0.00000000000E+00 0.  1.
         13    1    3    3    0    0 -0.31243868349E+02  0.53273426703E+02  0.10470361756E+03  0.12156103336E+03  0.00000000000E+00 0. -1.
        -13    1    4    4    0    0  0.32249190495E+02 -0.42169090246E+02 -0.21944606725E+01  0.53132458228E+02  0.00000000000E+00 0.  1.
         13    1    4    4    0    0  0.74983032289E+02  0.45017450100E+02 -0.32391095545E+02  0.93264189351E+02  0.00000000000E+00 0. -1.
         21    1    1    2  503  501  0.15104388398E+02 -0.26220703393E+02  0.10742011571E+02  0.32110101960E+02  0.00000000000E+00 0.  1.
          1    1    1    2  501    0 -0.33748146585E+02 -0.22306308952E+02  0.48789699397E+02  0.63379362447E+02  0.00000000000E+00 0. -1.
<scales pt_clust_5="13000.00000" pt_clust_6="13000.00000" pt_clust_7="13000.00000" pt_clust_8="13000.00000" pt_clust_9="30.26000" pt_clust_10="40.62744"></scales>
<clustering>
<clus scale="   30.260">  2  9  1 -1</clus>
<clus scale="   40.627">  2 10  1 -1</clus>
<clus scale="   85.599">  5  6 -1 -1</clus>
<clus scale="   93.429">  7  8 -1 -1</clus>
<clus scale="  131.026">  1  5  2 -1</clus>
<clus scale="   30.260">  2  5  1 -1</clus>
</clustering>
</event>
<event>
10    2  0.6640105E-006  0.1909104E+03  0.7546771E-02  0.1179378E+00
          2   -1    0    0  502    0 -0.00000000000E+00  0.00000000000E+00  0.86029334347E+03  0.86029334347E+03  0.00000000000E+00 0. -1.
         21   -1    0    0  503  502  0.00000000000E+00 -0.00000000000E+00 -0.26030969432E+03  0.26030969432E+03  0.00000000000E+00 0. -1.
         23    2    1    2    0    0 -0.61339329868E+02  0.72543696983E+01  0.44583754497E+02  0.11928239607E+03  0.91790193261E+02 0.  0.
         23    2    1    2    0    0  0.17222984527E+03 -0.13617850720E+03  0.65599585780E+03  0.69775337572E+03  0.91222269457E+02 0.  0.
        -11    1    3    3    0    0 -0.75713955052E+02  0.24175540483E+02  0.53008511572E+02  0.95535135140E+02  0.00000000000E+00 0.  1.
         11    1    3    3    0    0  0.14374625184E+02 -0.16921170785E+02 -0.84247570743E+01  0.23747260930E+02  0.00000000000E+00 0. -1.
        -13    1    4    4    0    0  0.84925435104E+02 -0.15572227444E+02  0.19367196804E+03  0.21204635106E+03  0.00000000000E+00 0.  1.
         13    1    4    4    0    0  0.87304410162E+02 -0.12060627976E+03  0.46232388976E+03  0.48570702465E+03  0.00000000000E+00 0. -1.
         21    1    1    2  503  501 -0.28092499901E+02  0.21652606425E+01 -0.14346907866E+03  0.14620962155E+03  0.00000000000E+00 0. -1.
          2    1    1    2  501    0 -0.82798015498E+02  0.12675887686E+03  0.42873115508E+02  0.15735764445E+03  0.00000000000E+00 0. -1.
<scales pt_clust_5="13000.00000" pt_clust_6="13000.00000" pt_clust_7="13000.00000" pt_clust_8="13000.00000" pt_clust_9="28.17582" pt_clust_10="167.70589"></scales>
<clustering>
<clus scale="   28.176">  2  9  1 -1</clus>
<clus scale="   91.222">  7  8 -1 -1</clus>
<clus scale="   91.790">  5  6 -1 -1</clus>
<clus scale="  115.968">  1  5  2 -1</clus>
<clus scale="  167.706">  2 10  1 -1</clus>
<clus scale="   28.176">  2  5  1 -1</clus>
</clustering>
</event>
<event>
10    2  0.6640105E-006  0.1510190E+03  0.7546771E-02  0.1200464E+00
         21   -1    0    0  503  502  0.00000000000E+00  0.00000000000E+00  0.43615498575E+03  0.43615498575E+03  0.00000000000E+00 0. -1.
          2   -1    0    0  502    0 -0.00000000000E+00 -0.00000000000E+00 -0.39593249499E+03  0.39593249499E+03  0.00000000000E+00 0. -1.
         23    2    1    2    0    0  0.65156374425E+02  0.10806068296E+03 -0.27064344245E+03  0.31228838943E+03  0.91398582597E+02 0.  0.
         23    2    1    2    0    0  0.68018831521E+02 -0.11053475780E+03  0.16195552994E+03  0.22412998297E+03  0.84617737293E+02 0.  0.
        -11    1    3    3    0    0  0.24023854169E+01  0.77285788796E+02 -0.19249292286E+03  0.20744249795E+03  0.00000000000E+00 0.  1.
         11    1    3    3    0    0  0.62753989008E+02  0.30774894167E+02 -0.78150519588E+02  0.10484589148E+03  0.00000000000E+00 0. -1.
        -11    1    4    4    0    0  0.84618181402E+02 -0.74064722427E+02  0.13563197355E+03  0.17618698017E+03  0.00000000000E+00 0. -1.
         11    1    4    4    0    0 -0.16599349881E+02 -0.36470035374E+02  0.26323556394E+02  0.47943002804E+02  0.00000000000E+00 0.  1.
         21    1    1    2  503  501  0.18370583272E+02 -0.30452093968E+02  0.13540853869E+03  0.14000100252E+03  0.00000000000E+00 0. -1.
          2    1    1    2  501    0 -0.15154578922E+03  0.32926168806E+02  0.13501864582E+02  0.15566810582E+03  0.00000000000E+00 0. -1.
<scales pt_clust_5="13000.00000" pt_clust_6="13000.00000" pt_clust_7="13000.00000" pt_clust_8="13000.00000" pt_clust_9="35.56414" pt_clust_10="148.34241"></scales>
<clustering>
<clus scale="   35.564">  1  9  2 -1</clus>
<clus scale="   84.618">  7  8 -1 -1</clus>
<clus scale="   91.399">  5  6 -1 -1</clus>
<clus scale="  148.342">  1 10  2 -1</clus>
<clus scale="  147.014">  1  7  2 -1</clus>
<clus scale="   35.564">  1  5  2 -1</clus>
</clustering>
</event>
<event>
10    2  0.6640105E-006  0.1858814E+03  0.7546771E-02  0.1192901E+00
          2   -1    0    0  502    0 -0.00000000000E+00  0.00000000000E+00  0.55197453659E+03  0.55197453659E+03  0.00000000000E+00 0. -1.
         21   -1    0    0  503  502  0.00000000000E+00 -0.00000000000E+00 -0.28597378821E+03  0.28597378821E+03  0.00000000000E+00 0. -1.
         23    2    1    2    0    0 -0.99504928917E+01 -0.13406035688E+02  0.33627770349E+03  0.34888308153E+03  0.91421970076E+02 0.  0.
         23    2    1    2    0    0  0.18424512966E+03 -0.38793333099E+02 -0.15869844579E+03  0.26275550442E+03  0.91673703472E+02 0.  0.
        -13    1    3    3    0    0 -0.50547823604E+02 -0.11944288942E+02  0.20397431731E+03  0.21048342127E+03  0.00000000000E+00 0.  1.
         13    1    3    3    0    0  0.40597330712E+02 -0.14617467465E+01  0.13230338618E+03  0.13839966026E+03  0.00000000000E+00 0. -1.
        -13    1    4    4    0    0  0.16996983684E+03 -0.23026631059E+02 -0.16749561215E+03  0.23973892313E+03  0.00000000000E+00 0. -1.
         13    1    4    4    0    0  0.14275292823E+02 -0.15766702040E+02  0.87971663573E+01  0.23016581291E+02  0.00000000000E+00 0.  1.
         21    1    1    2  503  501 -0.29936187042E+02  0.42583877801E+01 -0.22803459399E+02  0.37872244740E+02  0.00000000000E+00 0. -1.
          2    1    1    2  501    0 -0.14435844973E+03  0.47940981007E+02  0.11122495008E+03  0.18843749411E+03  0.00000000000E+00 0. -1.
<scales pt_clust_5="13000.00000" pt_clust_6="13000.00000" pt_clust_7="13000.00000" pt_clust_8="13000.00000" pt_clust_9="30.23755" pt_clust_10="161.70303"></scales>
<clustering>
<clus scale="   30.238">  2  9  1 -1</clus>
<clus scale="   91.422">  5  6 -1 -1</clus>
<clus scale="   91.674">  7  8 -1 -1</clus>
<clus scale="   93.001">  1  5  2 -1</clus>
<clus scale="  161.703">  2 10  1 -1</clus>
<clus scale="   30.238">  2  5  1 -1</clus>
</clustering>
</event>
<event>
10    2  0.6640105E-006  0.9569825E+02  0.7546771E-02  0.1289742E+00
         -1   -1    0    0    0  501 -0.00000000000E+00  0.00000000000E+00  0.52579651568E+03  0.52579651568E+03  0.00000000000E+00 0.  1.
         21   -1    0    0  501  502  0.00000000000E+00 -0.00000000000E+00 -0.16355975799E+03  0.16355975799E+03  0.00000000000E+00 0.  1.
         23    2    1    2    0    0  0.40022381822E+02 -0.40618036434E+00  0.37730136801E+03  0.38995724228E+03  0.90046501746E+02 0.  0.
         23    2    1    2    0    0 -0.23745447092E+01  0.40149927852E+02  0.10547206511E+03  0.14424141801E+03  0.89797410778E+02 0.  0.
        -11    1    4    4    0    0  0.41683674566E+02  0.27434757332E+02  0.71411340799E+02  0.87119310316E+02  0.00000000000E+00 0.  1.
         11    1    4    4    0    0 -0.44058219276E+02  0.12715170520E+02  0.34060724314E+02  0.57122107698E+02  0.00000000000E+00 0. -1.
        -13    1    3    3    0    0  0.46536823446E+02  0.29611663664E+02  0.32206805462E+03  0.32675733866E+03  0.00000000000E+00 0.  1.
         13    1    3    3    0    0 -0.65144416243E+01 -0.30017844029E+02  0.55233313392E+02  0.63199903624E+02  0.00000000000E+00 0. -1.
         21    1    1    2  503  502  0.17587046046E+02 -0.13642487713E+02 -0.76967708283E+02  0.80121468896E+02  0.00000000000E+00 0. -1.
         -1    1    1    2    0  503 -0.55234883159E+02 -0.26101259775E+02 -0.43568967148E+02  0.75036144475E+02  0.00000000000E+00 0.  1.
<scales pt_clust_5="13000.00000" pt_clust_6="13000.00000" pt_clust_7="13000.00000" pt_clust_8="13000.00000" pt_clust_9="22.25807" pt_clust_10="55.81019"></scales>
<clustering>
<clus scale="   22.258">  2  9  1 -1</clus>
<clus scale="   55.810">  2 10  1 -1</clus>
<clus scale="   89.797">  5  6 -1 -1</clus>
<clus scale="   90.047">  7  8 -1 -1</clus>
<clus scale="   95.464">  2  5  1 -1</clus>
<clus scale="   22.258">  2  5  1 -1</clus>
</clustering>
</event>
<event>
10    2  0.6640105E-006  0.2791200E+03  0.7546771E-02  0.1096589E+00
         21   -1    0    0  501  502  0.00000000000E+00  0.00000000000E+00  0.51042637465E+03  0.51042637465E+03  0.00000000000E+00 0.  1.
          1   -1    0    0  503    0 -0.00000000000E+00 -0.00000000000E+00 -0.38380226812E+03  0.38380226812E+03  0.00000000000E+00 0. -1.
         23    2    1    2    0    0 -0.16728426080E+03 -0.16434906485E+03 -0.73590274743E+02  0.26294513925E+03  0.93434354986E+02 0.  0.
         23    2    1    2    0    0  0.18082827904E+03  0.24841636083E+03 -0.42116786443E+02  0.32129179601E+03  0.83934734496E+02 0.  0.
        -13    1    4    4    0    0  0.17340866710E+03  0.20247669342E+03 -0.14064319116E+02  0.26695539380E+03  0.00000000000E+00 0.  1.
         13    1    4    4    0    0  0.74196119464E+01  0.45939667402E+02 -0.28052467327E+02  0.54336402214E+02  0.00000000000E+00 0. -1.
        -13    1    3    3    0    0 -0.58170072585E+02 -0.54200169306E+02  0.19814566040E+02  0.81939201392E+02  0.00000000000E+00 0.  1.
         13    1    3    3    0    0 -0.10911418821E+03 -0.11014889554E+03 -0.93404840783E+02  0.18100593786E+03  0.00000000000E+00 0. -1.
         21    1    1    2  503  502 -0.27370332805E+02  0.24282811995E+02  0.18112427068E+03  0.18478309313E+03  0.00000000000E+00 0.  1.
          1    1    1    2  501    0  0.13826314560E+02 -0.10835010798E+03  0.61206897032E+02  0.12520861439E+03  0.00000000000E+00 0. -1.
<scales pt_clust_5="13000.00000" pt_clust_6="13000.00000" pt_clust_7="13000.00000" pt_clust_8="13000.00000" pt_clust_9="36.58948" pt_clust_10="101.61797"></scales>
<clustering>
<clus scale="   36.589">  1  9  2 -1</clus>
<clus scale="   83.935">  5  6 -1 -1</clus>
<clus scale="   93.434">  7  8 -1 -1</clus>
<clus scale="  101.618">  1 10  2 -1</clus>
<clus scale="  276.085">  1  5  2 -1</clus>
<clus scale="   36.589">  1  5  2 -1</clus>
</clustering>
</event>
<event>
10    2  0.6640105E-006  0.9977434E+02  0.7546771E-02  0.1281442E+00
         -4   -1    0    0    0  501 -0.00000000000E+00  0.00000000000E+00  0.26006172626E+03  0.26006172626E+03  0.00000000000E+00 0.  1.
         21   -1    0    0  503  502  0.00000000000E+00 -0.00000000000E+00 -0.46354977369E+03  0.46354977369E+03  0.00000000000E+00 0. -1.
         23    2    1    2    0    0  0.38214363356E+02 -0.40633928381E+02  0.17225960508E+03  0.20260987132E+03  0.90917186011E+02 0.  0.
         23    2    1    2    0    0  0.48783470379E+02  0.36619288041E+01 -0.34399734146E+02  0.10766557469E+03  0.89528194215E+02 0.  0.
        -13    1    3    3    0    0 -0.10210126464E+02 -0.51830973951E+02  0.11647866915E+03  0.12789830691E+03  0.00000000000E+00 0.  1.
         13    1    3    3    0    0  0.48424489820E+02  0.11197045570E+02  0.55780935933E+02  0.74711564415E+02  0.00000000000E+00 0. -1.
        -13    1    4    4    0    0  0.45234069366E+02 -0.27943440762E+02  0.89327358533E+01  0.53914290155E+02  0.00000000000E+00 0.  1.
         13    1    4    4    0    0  0.35494010123E+01  0.31605369567E+02 -0.43332469999E+02  0.53751284536E+02  0.00000000000E+00 0. -1.
         21    1    1    2  503  501 -0.34680282475E+02  0.10279709956E+03 -0.30123217971E+03  0.32017306533E+03  0.00000000000E+00 0. -1.
         -4    1    1    2    0  502 -0.52317551259E+02 -0.65825099983E+02 -0.40115738663E+02  0.93162988606E+02  0.00000000000E+00 0.  1.
<scales pt_clust_5="13000.00000" pt_clust_6="13000.00000" pt_clust_7="13000.00000" pt_clust_8="13000.00000" pt_clust_9="91.37345" pt_clust_10="84.08371"></scales>
<clustering>
<clus scale="   84.084">  2 10  1 -1</clus>
<clus scale="   89.528">  7  8 -1 -1</clus>
<clus scale="   90.917">  5  6 -1 -1</clus>
<clus scale="   91.373">  2  9  1 -1</clus>
<clus scale="   98.510">  2  7  1 -1</clus>
<clus scale="   84.084">  2  5  1 -1</clus>
</clustering>
</event>
<event>
10    2  0.6640105E-006  0.1178117E+03  0.7546771E-02  0.1256944E+00
         21   -1    0    0  501  502  0.00000000000E+00  0.00000000000E+00  0.14971919225E+03  0.14971919225E+03  0.00000000000E+00 0. -1.
          1   -1    0    0  503    0 -0.00000000000E+00 -0.00000000000E+00 -0.47000273756E+03  0.47000273756E+03  0.00000000000E+00 0. -1.
         23    2    1    2    0    0 -0.50260802698E+02  0.15619633397E+01 -0.37514179372E+03  0.39340417761E+03  0.10727018944E+03 0.  0.
         23    2    1    2    0    0  0.42609165350E+02 -0.17436306957E+02 -0.49963048570E+02  0.10719650520E+03  0.82916938758E+02 0.  0.
        -11    1    4    4    0    0  0.33612674032E+02  0.27726374031E+02 -0.68370673684E+01  0.44105659078E+02  0.00000000000E+00 0. -1.
         11    1    4    4    0    0  0.89964913178E+01 -0.45162680988E+02 -0.43125981202E+02  0.63090846124E+02  0.00000000000E+00 0.  1.
        -13    1    3    3    0    0  0.25107878507E+01  0.47673873537E+02 -0.13215897411E+03  0.14051724702E+03  0.00000000000E+00 0.  1.
         13    1    3    3    0    0 -0.52771590549E+02 -0.46111910197E+02 -0.24298281961E+03  0.25288693058E+03  0.00000000000E+00 0. -1.
         21    1    1    2  503  502 -0.15953118953E+02  0.25676984315E+02  0.46723470439E+02  0.55649727921E+02  0.00000000000E+00 0.  1.
          1    1    1    2  501    0  0.23604756301E+02 -0.98026406983E+01  0.58097826544E+02  0.63471519077E+02  0.00000000000E+00 0. -1.
<scales pt_clust_5="13000.00000" pt_clust_6="13000.00000" pt_clust_7="13000.00000" pt_clust_8="13000.00000" pt_clust_9="20.17441" pt_clust_10="25.55927"></scales>
<clustering>
<clus scale="   25.559">  1 10  2 -1</clus>
<clus scale="   20.174">  1  9  2 -1</clus>
<clus scale="   82.917">  5  6 -1 -1</clus>
<clus scale="   96.166">  1  5  2 -1</clus>
<clus scale="  107.270">  7  8 -1 -1</clus>
<clus scale="   25.559">  1  5  2 -1</clus>
</clustering>
</event>
<event>
10    2  0.6640105E-006  0.9580377E+02  0.7546771E-02  0.1295231E+00
          3   -1    0    0  503    0 -0.00000000000E+00  0.00000000000E+00  0.34185868944E+03  0.34185868944E+03  0.00000000000E+00 0. -1.
         21   -1    0    0  501  502  0.00000000000E+00 -0.00000000000E+00 -0.33755600320E+03  0.33755600320E+03  0.00000000000E+00 0.  1.
         23    2    1    2    0    0 -0.39030150928E+02 -0.54333831784E+01  0.14614492278E+03  0.17304716388E+03  0.83869590062E+02 0.  0.
         23    2    1    2    0    0 -0.16604348204E+02 -0.11659785892E+02  0.77616795091E+02  0.12357895085E+03  0.93998591616E+02 0.  0.
        -11    1    3    3    0    0 -0.22055791345E+02 -0.41270884535E+02  0.10939100021E+03  0.11897955610E+03  0.00000000000E+00 0.  1.
         11    1    3    3    0    0 -0.16974359583E+02  0.35837501357E+02  0.36753922573E+02  0.54067607782E+02  0.00000000000E+00 0. -1.
        -11    1    4    4    0    0 -0.32910408771E+02 -0.45698188004E+02  0.33522820069E+02  0.65537766651E+02  0.00000000000E+00 0.  1.
         11    1    4    4    0    0  0.16306060567E+02  0.34038402111E+02  0.44093975022E+02  0.58041184195E+02  0.00000000000E+00 0. -1.
         21    1    1    2  503  502  0.80669197333E+02 -0.32837176538E+02 -0.28422146570E+03  0.29726695263E+03  0.00000000000E+00 0.  1.
          3    1    1    2  501    0 -0.25034698202E+02  0.49930345608E+02  0.64762434057E+02  0.85521625286E+02  0.00000000000E+00 0. -1.
<scales pt_clust_5="13000.00000" pt_clust_6="13000.00000" pt_clust_7="13000.00000" pt_clust_8="13000.00000" pt_clust_9="59.54972" pt_clust_10="55.85498"></scales>
<clustering>
<clus scale="   55.855">  2 10  1 -1</clus>
<clus scale="   59.550">  2  9  1 -1</clus>
<clus scale="   83.870">  5  6 -1 -1</clus>
<clus scale="   85.888">  1  5  2 -1</clus>
<clus scale="   93.999">  7  8 -1 -1</clus>
<clus scale="   55.855">  2  5  1 -1</clus>
</clustering>
</event>
<event>
10    2  0.6640105E-006  0.1717501E+03  0.7546771E-02  0.1176869E+00
         21   -1    0    0  501  502  0.00000000000E+00  0.00000000000E+00  0.30340575531E+03  0.30340575531E+03  0.00000000000E+00 0.  1.
          1   -1    0    0  503    0 -0.00000000000E+00 -0.00000000000E+00 -0.27634962424E+03  0.27634962424E+03  0.00000000000E+00 0. -1.
         23    2    1    2    0    0  0.29797591030E+02  0.11998591989E+03 -0.61454743917E+02  0.16797350789E+03  0.95675996994E+02 0.  0.
         23    2    1    2    0    0 -0.28600081182E+02 -0.16313021034E+03 -0.74994239268E+02  0.20276786994E+03  0.89784425073E+02 0.  0.
        -11    1    4    4    0    0  0.21570925968E+00 -0.14243106499E+03 -0.30153009895E+02  0.14558797619E+03  0.00000000000E+00 0.  1.
         11    1    4    4    0    0 -0.28815790442E+02 -0.20699145345E+02 -0.44841229373E+02  0.57179893744E+02  0.00000000000E+00 0. -1.
        -11    1    3    3    0    0  0.32589878512E+02  0.52372491345E+02  0.17371967364E+02  0.64084032966E+02  0.00000000000E+00 0.  1.
         11    1    3    3    0    0 -0.27922874820E+01  0.67613428541E+02 -0.78826711281E+02  0.10388947492E+03  0.00000000000E+00 0. -1.
         21    1    1    2  503  502  0.24640040658E+02  0.45001927300E+02  0.17374303909E+03  0.18116000855E+03  0.00000000000E+00 0.  1.
          1    1    1    2  501    0 -0.25837550506E+02 -0.18576368457E+01 -0.10237924845E+02  0.27853993178E+02  0.00000000000E+00 0. -1.
<scales pt_clust_5="13000.00000" pt_clust_6="13000.00000" pt_clust_7="13000.00000" pt_clust_8="13000.00000" pt_clust_9="44.81186" pt_clust_10="25.90426"></scales>
<clustering>
<clus scale="   25.904">  1 10  2 -1</clus>
<clus scale="   44.812">  1  9  2 -1</clus>
<clus scale="   89.784">  5  6 -1 -1</clus>
<clus scale="   95.676">  7  8 -1 -1</clus>
<clus scale="  168.539">  1  5  2 -1</clus>
<clus scale="   25.904">  1  5  2 -1</clus>
</clustering>
</event>
<event>
10    2  0.6640105E-006  0.9750737E+02  0.7546771E-02  0.1286677E+00
         21   -1    0    0  501  502  0.00000000000E+00  0.00000000000E+00  0.10585623772E+03  0.10585623772E+03  0.00000000000E+00 0.  1.
         -2   -1    0    0    0  501 -0.00000000000E+00 -0.00000000000E+00 -0.43467707151E+03  0.43467707151E+03  0.00000000000E+00 0.  1.
         23    2    1    2    0    0  0.17568901584E+02  0.40842877676E+02 -0.19298849892E+03  0.21833653430E+03  0.91921023346E+02 0.  0.
         23    2    1    2    0    0 -0.33062331771E+02  0.27790743830E+02 -0.17674337674E+03  0.20474872177E+03  0.93906201177E+02 0.  0.
        -11    1    4    4    0    0 -0.57991428693E+02  0.10734581044E+02 -0.59887266979E+02  0.84051899314E+02  0.00000000000E+00 0. -1.
         11    1    4    4    0    0  0.24929096921E+02  0.17056162785E+02 -0.11685610976E+03  0.12069682245E+03  0.00000000000E+00 0.  1.
        -13    1    3    3    0    0  0.20626273552E+02 -0.26305954818E+02 -0.47646082825E+02  0.58203055144E+02  0.00000000000E+00 0. -1.
         13    1    3    3    0    0 -0.30573719685E+01  0.67148832494E+02 -0.14534241610E+03  0.16013347915E+03  0.00000000000E+00 0.  1.
         21    1    1    2  503  502  0.22530858179E+02  0.11680839907E+02 -0.31465624479E+01  0.25573080504E+02  0.00000000000E+00 0. -1.
         -2    1    1    2    0  503 -0.70374279918E+01 -0.80314461413E+02  0.44057604310E+02  0.91874972666E+02  0.00000000000E+00 0.  1.
<scales pt_clust_5="13000.00000" pt_clust_6="13000.00000" pt_clust_7="13000.00000" pt_clust_8="13000.00000" pt_clust_9="25.37876" pt_clust_10="72.50481"></scales>
<clustering>
<clus scale="   25.379">  1  9  2 -1</clus>
<clus scale="   72.505">  1 10  2 -1</clus>
<clus scale="   91.921">  7  8 -1 -1</clus>
<clus scale="   93.906">  5  6 -1 -1</clus>
<clus scale="   95.597">  2  7  1 -1</clus>
<clus scale="   25.379">  1  5  2 -1</clus>
</clustering>
</event>
<event>
10    2  0.6640105E-006  0.3457589E+03  0.7546771E-02  0.1064397E+00
         21   -1    0    0  501  502  0.00000000000E+00  0.00000000000E+00  0.17812047368E+04  0.17812047368E+04  0.00000000000E+00 0.  1.
          2   -1    0    0  503    0 -0.00000000000E+00 -0.00000000000E+00 -0.14418407177E+03  0.14418407177E+03  0.00000000000E+00 0. -1.
         23    2    1    2    0    0 -0.27655430620E+01 -0.29311034990E+03  0.35927023435E+03  0.47256404234E+03  0.91215938166E+02 0.  0.
         23    2    1    2    0    0 -0.27860931505E+02  0.37809433223E+03  0.38836671597E+03  0.55051158091E+03  0.92210298062E+02 0.  0.
        -13    1    4    4    0    0 -0.58493860784E+02  0.18236047252E+03  0.20542423465E+03  0.28084869569E+03  0.00000000000E+00 0. -1.
         13    1    4    4    0    0  0.30632929279E+02  0.19573385971E+03  0.18294248132E+03  0.26966288522E+03  0.00000000000E+00 0.  1.
        -13    1    3    3    0    0  0.24971599291E+02 -0.23434747673E+03  0.31714356208E+03  0.39512322077E+03  0.00000000000E+00 0. -1.
         13    1    3    3    0    0 -0.27737142353E+02 -0.58762873168E+02  0.42126672265E+02  0.77440821567E+02  0.00000000000E+00 0.  1.
         21    1    1    2  503  502 -0.33616020403E+02  0.92751797196E+01  0.13893367321E+03  0.14324325931E+03  0.00000000000E+00 0.  1.
          2    1    1    2  501    0  0.64242494970E+02 -0.94259162048E+02  0.75045004152E+03  0.75906992603E+03  0.00000000000E+00 0. -1.
<scales pt_clust_5="13000.00000" pt_clust_6="13000.00000" pt_clust_7="13000.00000" pt_clust_8="13000.00000" pt_clust_9="34.87213" pt_clust_10="102.35791"></scales>
<clustering>
<clus scale="   34.872">  1  9  2 -1</clus>
<clus scale="   91.216">  7  8 -1 -1</clus>
<clus scale="   92.210">  5  6 -1 -1</clus>
<clus scale="  102.358">  1 10  2 -1</clus>
<clus scale="  345.495">  2  7  1 -1</clus>
<clus scale="   34.872">  1  5  2 -1</clus>
</clustering>
</event>
<event>
10    2  0.6640105E-006  0.1542445E+03  0.7546771E-02  0.1196265E+00
          3   -1    0    0  503    0 -0.00000000000E+00  0.00000000000E+00  0.14239022203E+03  0.14239022203E+03  0.00000000000E+00 0. -1.
         21   -1    0    0  501  502  0.00000000000E+00 -0.00000000000E+00 -0.95932943382E+03  0.95932943382E+03  0.00000000000E+00 0.  1.
         23    2    1    2    0    0  0.58437039643E+02  0.11426096381E+03 -0.30144233035E+02  0.15963310074E+03  0.90019978969E+02 0.  0.
         23    2    1    2    0    0 -0.13475442281E+03 -0.34592643463E+02 -0.54817351935E+02  0.17718791773E+03  0.95053725162E+02 0.  0.
        -11    1    4    4    0    0 -0.19617659397E+02 -0.19168899128E+02 -0.54510704171E+02  0.61022259244E+02  0.00000000000E+00 0.  1.
         11    1    4    4    0    0 -0.11513676341E+03 -0.15423744335E+02 -0.30664776435E+00  0.11616565848E+03  0.00000000000E+00 0. -1.
        -13    1    3    3    0    0 -0.32625199011E+01  0.35555335902E+02 -0.46154156175E+02  0.58352652720E+02  0.00000000000E+00 0. -1.
         13    1    3    3    0    0  0.61699559544E+02  0.78705627906E+02  0.16009923139E+02  0.10128044802E+03  0.00000000000E+00 0.  1.
         21    1    1    2  503  502  0.83865828822E+02  0.14914713758E+02 -0.57647140245E+03  0.58273081588E+03  0.00000000000E+00 0.  1.
          3    1    1    2  501    0 -0.75484456566E+01 -0.94583034104E+02 -0.15550622437E+03  0.18216782150E+03  0.00000000000E+00 0. -1.
<scales pt_clust_5="13000.00000" pt_clust_6="13000.00000" pt_clust_7="13000.00000" pt_clust_8="13000.00000" pt_clust_9="85.18172" pt_clust_10="92.84381"></scales>
<clustering>
<clus scale="   85.182">  2  9  1 -1</clus>
<clus scale="   90.020">  7  8 -1 -1</clus>
<clus scale="   92.844">  2 10  1 -1</clus>
<clus scale="   95.054">  5  6 -1 -1</clus>
<clus scale="  151.194">  1  7  2 -1</clus>
<clus scale="   85.182">  2  5  1 -1</clus>
</clustering>
</event>
<event>
10    2  0.6640105E-006  0.9864745E+02  0.7546771E-02  0.1294117E+00
         -3   -1    0    0    0  501 -0.00000000000E+00  0.00000000000E+00  0.23229409783E+03  0.23229409783E+03  0.00000000000E+00 0.  1.
         21   -1    0    0  503  502  0.00000000000E+00 -0.00000000000E+00 -0.96375623803E+02  0.96375623803E+02  0.00000000000E+00 0. -1.
         23    2    1    2    0    0 -0.39319069663E+02  0.38029008630E+02  0.42330368460E+02  0.10131601517E+03  0.74032966298E+02 0.  0.
         23    2    1    2    0    0  0.17300940487E+01  0.58315884724E+01 -0.58340714881E-01  0.93798345378E+02  0.93600884303E+02 0.  0.
        -13    1    3    3    0    0 -0.90009859262E+01  0.49459417511E+02  0.30044973309E+01  0.50361480641E+02  0.00000000000E+00 0. -1.
         13    1    3    3    0    0 -0.30318083737E+02 -0.11430408882E+02  0.39325871129E+02  0.50954534526E+02  0.00000000000E+00 0.  1.
        -13    1    4    4    0    0 -0.32707918306E+02  0.35166054489E+02 -0.50278871862E+01  0.48288082979E+02  0.00000000000E+00 0. -1.
         13    1    4    4    0    0  0.34438012355E+02 -0.29334466017E+02  0.49695464713E+01  0.45510262398E+02  0.00000000000E+00 0.  1.
         21    1    1    2  503  501 -0.15431725759E+02 -0.37347376076E+02  0.29243910956E+02  0.49881569619E+02  0.00000000000E+00 0.  1.
         -3    1    1    2    0  502  0.53020701374E+02 -0.65132210264E+01  0.64402535322E+02  0.83673791466E+02  0.00000000000E+00 0.  1.
<scales pt_clust_5="13000.00000" pt_clust_6="13000.00000" pt_clust_7="13000.00000" pt_clust_8="13000.00000" pt_clust_9="40.40996" pt_clust_10="51.50597"></scales>
<clustering>
<clus scale="   40.410">  1  9  2 -1</clus>
<clus scale="   51.506">  2 10  1 -1</clus>
<clus scale="   74.033">  5  6 -1 -1</clus>
<clus scale="   80.319">  1  5  2 -1</clus>
<clus scale="   93.601">  7  8 -1 -1</clus>
<clus scale="   51.506">  2  5  1 -1</clus>
</clustering>
</event>
<event>
10    2  0.6640105E-006  0.1443080E+03  0.7546771E-02  0.1207664E+00
         -1   -1    0    0    0  501 -0.00000000000E+00  0.00000000000E+00  0.87616617674E+03  0.87616617674E+03  0.00000000000E+00 0.  1.
         21   -1    0    0  501  502  0.00000000000E+00 -0.00000000000E+00 -0.95543941880E+02  0.95543941880E+02  0.00000000000E+00 0. -1.
         23    2    1    2    0    0  0.12673180887E+03  0.41632713884E+01  0.51374105535E+03  0.53698828593E+03  0.91368829815E+02 0.  0.
         23    2    1    2    0    0 -0.83162927867E+02  0.51651258980E+02  0.21305933226E+03  0.25167666553E+03  0.91449110351E+02 0.  0.
        -11    1    4    4    0    0 -0.56462424255E+02  0.57839729745E+02  0.20885146181E+03  0.22394725448E+03  0.00000000000E+00 0.  1.
         11    1    4    4    0    0 -0.26700503612E+02 -0.61884707652E+01  0.42078704533E+01  0.27729411052E+02  0.00000000000E+00 0. -1.
        -13    1    3    3    0    0  0.91843283717E+02  0.45232416537E+02  0.33201469565E+03  0.34744052498E+03  0.00000000000E+00 0. -1.
         13    1    3    3    0    0  0.34888525154E+02 -0.41069145148E+02  0.18172635970E+03  0.18954776095E+03  0.00000000000E+00 0.  1.
         21    1    1    2  503  502  0.15323893545E+01  0.24948518186E+02 -0.42621942671E+02  0.49410593741E+02  0.00000000000E+00 0. -1.
         -1    1    1    2    0  503 -0.45101270358E+02 -0.80763048554E+02  0.96443789924E+02  0.13363457343E+03  0.00000000000E+00 0.  1.
<scales pt_clust_5="13000.00000" pt_clust_6="13000.00000" pt_clust_7="13000.00000" pt_clust_8="13000.00000" pt_clust_9="24.99554" pt_clust_10="84.14243"></scales>
<clustering>
<clus scale="   24.996">  2  9  1 -1</clus>
<clus scale="   84.142">  2 10  1 -1</clus>
<clus scale="   91.369">  7  8 -1 -1</clus>
<clus scale="   91.449">  5  6 -1 -1</clus>
<clus scale="  144.257">  1  7  2 -1</clus>
<clus scale="   24.996">  2  5  1 -1</clus>
</clustering>
</event>
<event>
10    2  0.6640105E-006  0.2697883E+03  0.7546771E-02  0.1137890E+00
         21   -1    0    0  503  502  0.00000000000E+00  0.00000000000E+00  0.11900438997E+03  0.11900438997E+03  0.00000000000E+00 0. -1.
          1   -1    0    0  502    0 -0.00000000000E+00 -0.00000000000E+00 -0.13980739590E+04  0.13980739590E+04  0.00000000000E+00 0. -1.
         23    2    1    2    0    0 -0.53171023431E+02 -0.34888364228E+02 -0.55143500339E+02  0.12343347983E+03  0.90281020281E+02 0.  0.
         23    2    1    2    0    0  0.21049852092E+03 -0.17531472452E+03 -0.96190504254E+03  0.10042826128E+04  0.90980083098E+02 0.  0.
        -11    1    3    3    0    0 -0.35113806645E+02 -0.61840558150E+02 -0.16547826966E+02  0.73014139910E+02  0.00000000000E+00 0. -1.
         11    1    3    3    0    0 -0.18057216786E+02  0.26952193922E+02 -0.38595673373E+02  0.50419339924E+02  0.00000000000E+00 0.  1.
        -11    1    4    4    0    0  0.81598161111E+02 -0.46214775634E+02 -0.20079692715E+03  0.22161559362E+03  0.00000000000E+00 0.  1.
         11    1    4    4    0    0  0.12890035981E+03 -0.12909994888E+03 -0.76110811539E+03  0.78266701915E+03  0.00000000000E+00 0. -1.
         21    1    1    2  503  501 -0.22493202838E+01  0.27541742134E+02  0.75953063458E+01  0.28658256751E+02  0.00000000000E+00 0. -1.
          1    1    1    2  501    0 -0.15507817721E+03  0.18266134661E+03 -0.26961633252E+03  0.36070399964E+03  0.00000000000E+00 0. -1.
<scales pt_clust_5="13000.00000" pt_clust_6="13000.00000" pt_clust_7="13000.00000" pt_clust_8="13000.00000" pt_clust_9="27.63344" pt_clust_10="253.98499"></scales>
<clustering>
<clus scale="   27.633">  1  9  2 -1</clus>
<clus scale="   90.281">  5  6 -1 -1</clus>
<clus scale="   90.980">  7  8 -1 -1</clus>
<clus scale="  108.227">  2  5  1 -1</clus>
<clus scale="  253.985">  1 10  2 -1</clus>
<clus scale="   27.633">  1  5  2 -1</clus>
</clustering>
</event>
<event>
10    2  0.6640105E-006  0.1407632E+03  0.7546771E-02  0.1212543E+00
          2   -1    0    0  503    0 -0.00000000000E+00  0.00000000000E+00  0.67604990477E+03  0.67604990477E+03  0.00000000000E+00 0.  1.
         21   -1    0    0  501  502  0.00000000000E+00 -0.00000000000E+00 -0.30142452441E+03  0.30142452441E+03  0.00000000000E+00 0.  1.
         23    2    1    2    0    0  0.35159467277E+02 -0.96035079302E+02  0.44466007487E+03  0.46487461482E+03  0.89033143990E+02 0.  0.
         23    2    1    2    0    0 -0.14814424489E+03  0.83522883852E+02  0.12360379862E+03  0.22874973433E+03  0.90142955908E+02 0.  0.
        -11    1    4    4    0    0 -0.42368685348E+02  0.71784564623E+02  0.35547413168E+02  0.90618694535E+02  0.00000000000E+00 0.  1.
         11    1    4    4    0    0 -0.10577555954E+03  0.11738319229E+02  0.88056385453E+02  0.13813103979E+03  0.00000000000E+00 0. -1.
        -13    1    3    3    0    0  0.61185865389E+01 -0.10296512198E+03  0.37825463011E+03  0.39206608964E+03  0.00000000000E+00 0.  1.
         13    1    3    3    0    0  0.29040880738E+02  0.69300426815E+01  0.66405444754E+02  0.72808525178E+02  0.00000000000E+00 0. -1.
         21    1    1    2  503  502 -0.33777021207E+02 -0.11467252871E+02 -0.10462125245E+03  0.11053502392E+03  0.00000000000E+00 0.  1.
          2    1    1    2  501    0  0.14676179882E+03  0.23979448321E+02 -0.89017240676E+02  0.17331505611E+03  0.00000000000E+00 0.  1.
<scales pt_clust_5="13000.00000" pt_clust_6="13000.00000" pt_clust_7="13000.00000" pt_clust_8="13000.00000" pt_clust_9="35.67051" pt_clust_10="124.96373"></scales>
<clustering>
<clus scale="   35.671">  2  9  1 -1</clus>
<clus scale="   89.033">  7  8 -1 -1</clus>
<clus scale="   90.143">  5  6 -1 -1</clus>
<clus scale="  124.964">  2 10  1 -1</clus>
<clus scale="  140.055">  1  7  2 -1</clus>
<clus scale="   35.671">  2  5  1 -1</clus>
</clustering>
</event>
<event>
10    2  0.6640105E-006  0.1947651E+03  0.7546771E-02  0.1156866E+00
         -4   -1    0    0    0  501 -0.00000000000E+00  0.00000000000E+00  0.15882449295E+03  0.15882449295E+03  0.00000000000E+00 0.  1.
         21   -1    0    0  503  502  0.00000000000E+00 -0.00000000000E+00 -0.39635042755E+03  0.39635042755E+03  0.00000000000E+00 0.  1.
         23    2    1    2    0    0 -0.71938075839E+02  0.12744771438E+03 -0.11309591206E+02  0.18411615061E+03  0.11114334620E+03 0.  0.
         23    2    1    2    0    0  0.11926493393E+03 -0.15129538992E+03 -0.17468193479E+03  0.27490316622E+03  0.89126612085E+02 0.  0.
        -11    1    4    4    0    0  0.58930685748E+02 -0.12313217547E+03 -0.15261591377E+03  0.20475833437E+03  0.00000000000E+00 0.  1.
         11    1    4    4    0    0  0.60334248183E+02 -0.28163214446E+02 -0.22066021019E+02  0.70144831850E+02  0.00000000000E+00 0. -1.
        -11    1    3    3    0    0 -0.40753482618E+02  0.10866116185E+03 -0.54008260948E+02  0.12800385420E+03  0.00000000000E+00 0. -1.
         11    1    3    3    0    0 -0.31184593222E+02  0.18786552533E+02  0.42698669742E+02  0.56112296408E+02  0.00000000000E+00 0.  1.
         21    1    1    2  503  501 -0.34802189070E+02  0.39957683660E+01 -0.61402911389E+02  0.70692828886E+02  0.00000000000E+00 0.  1.
         -4    1    1    2    0  502 -0.12524669021E+02  0.19851907172E+02  0.98685027841E+01  0.25462774783E+02  0.00000000000E+00 0.  1.
<scales pt_clust_5="13000.00000" pt_clust_6="13000.00000" pt_clust_7="13000.00000" pt_clust_8="13000.00000" pt_clust_9="37.65944" pt_clust_10="23.47267"></scales>
<clustering>
<clus scale="   23.473">  2 10  1 -1</clus>
<clus scale="   37.659">  2  9  1 -1</clus>
<clus scale="   89.127">  5  6 -1 -1</clus>
<clus scale="  111.143">  7  8 -1 -1</clus>
<clus scale="  183.096">  2  5  1 -1</clus>
<clus scale="   23.473">  2  5  1 -1</clus>
</clustering>
</event>
<event>
10    2  0.6640105E-006  0.1144490E+03  0.7546771E-02  0.1257369E+00
         21   -1    0    0  503  502  0.00000000000E+00  0.00000000000E+00  0.69277095226E+02  0.69277095226E+02  0.00000000000E+00 0. -1.
          2   -1    0    0  502    0 -0.00000000000E+00 -0.00000000000E+00 -0.57536369224E+03  0.57536369224E+03  0.00000000000E+00 0.  1.
         23    2    1    2    0    0 -0.10411190096E+02  0.17561939122E+02 -0.18439553255E+03  0.20615114497E+03  0.89887527286E+02 0.  0.
         23    2    1    2    0    0  0.47782472919E+02 -0.10793545259E+03 -0.24987475001E+03  0.29449899027E+03  0.10177935909E+03 0.  0.
        -11    1    3    3    0    0 -0.33142942951E+02 -0.24662351187E+02 -0.11139405725E+03  0.11880792156E+03  0.00000000000E+00 0.  1.
         11    1    3    3    0    0  0.22731752855E+02  0.42224290309E+02 -0.73001475303E+02  0.87343223414E+02  0.00000000000E+00 0. -1.
        -13    1    4    4    0    0  0.65179698610E+02 -0.77283123409E+02 -0.23577804242E+03  0.25653919693E+03  0.00000000000E+00 0.  1.
         13    1    4    4    0    0 -0.17397225691E+02 -0.30652329180E+02 -0.14096707593E+02  0.37959793346E+02  0.00000000000E+00 0. -1.
         21    1    1    2  503  501  0.16463093181E+02  0.22195258374E+02  0.49351948782E+01  0.28071677540E+02  0.00000000000E+00 0.  1.
          2    1    1    2  501    0 -0.53834376005E+02  0.68178255093E+02 -0.76751509329E+02  0.11591897468E+03  0.00000000000E+00 0.  1.
<scales pt_clust_5="13000.00000" pt_clust_6="13000.00000" pt_clust_7="13000.00000" pt_clust_8="13000.00000" pt_clust_9="27.63445" pt_clust_10="90.09377"></scales>
<clustering>
<clus scale="   27.634">  1  9  2 -1</clus>
<clus scale="   89.888">  5  6 -1 -1</clus>
<clus scale="   90.094">  1 10  2 -1</clus>
<clus scale="  101.779">  7  8 -1 -1</clus>
<clus scale="  104.016">  2  5  1 -1</clus>
<clus scale="   27.634">  1  5  2 -1</clus>
</clustering>
</event>
<event>
10    2  0.6640105E-006  0.1639149E+03  0.7546771E-02  0.1184392E+00
         21   -1    0    0  501  502  0.00000000000E+00  0.00000000000E+00  0.35686358717E+03  0.35686358717E+03  0.00000000000E+00 0. -1.
          1   -1    0    0  503    0 -0.00000000000E+00 -0.00000000000E+00 -0.86732507387E+03  0.86732507387E+03  0.00000000000E+00 0. -1.
         23    2    1    2    0    0 -0.84523934234E+02  0.90926185283E+02 -0.56900709322E+03  0.58961262454E+03  0.91989718219E+02 0.  0.
         23    2    1    2    0    0  0.12657900773E+03 -0.12911982063E+03 -0.20865755653E+03  0.29111757213E+03  0.92289173930E+02 0.  0.
        -11    1    4    4    0    0  0.12949648161E+03 -0.76976600775E+02 -0.15025947609E+03  0.21277369662E+03  0.00000000000E+00 0. -1.
         11    1    4    4    0    0 -0.29174738790E+01 -0.52143219855E+02 -0.58398080442E+02  0.78343875510E+02  0.00000000000E+00 0.  1.
        -13    1    3    3    0    0 -0.24128542080E+02  0.90248639345E+02 -0.31775490967E+03  0.33120263596E+03  0.00000000000E+00 0. -1.
         13    1    3    3    0    0 -0.60395392154E+02  0.67754593840E+00 -0.25125218355E+03  0.25840998858E+03  0.00000000000E+00 0.  1.
         21    1    1    2  503  502  0.26769800012E+02 -0.19411170398E+02  0.24987116778E+03  0.25204963046E+03  0.00000000000E+00 0. -1.
          1    1    1    2  501    0 -0.68824873510E+02  0.57604805745E+02  0.17331995271E+02  0.91408833921E+02  0.00000000000E+00 0. -1.
<scales pt_clust_5="13000.00000" pt_clust_6="13000.00000" pt_clust_7="13000.00000" pt_clust_8="13000.00000" pt_clust_9="33.06684" pt_clust_10="72.82474"></scales>
<clustering>
<clus scale="   33.067">  1  9  2 -1</clus>
<clus scale="   72.825">  1 10  2 -1</clus>
<clus scale="   91.990">  7  8 -1 -1</clus>
<clus scale="   92.289">  5  6 -1 -1</clus>
<clus scale="  163.747">  2  7  1 -1</clus>
<clus scale="   33.067">  1  5  2 -1</clus>
</clustering>
</event>
<event>
10    2  0.6640105E-006  0.1647517E+03  0.7546771E-02  0.1201259E+00
         -3   -1    0    0    0  501 -0.00000000000E+00  0.00000000000E+00  0.11227875714E+03  0.11227875714E+03  0.00000000000E+00 0.  1.
         21   -1    0    0  501  502  0.00000000000E+00 -0.00000000000E+00 -0.73333860126E+03  0.73333860126E+03  0.00000000000E+00 0.  1.
         23    2    1    2    0    0  0.36135914456E+02  0.53011759984E+02 -0.73171959578E+02  0.13319353731E+03  0.90941364090E+02 0.  0.
         23    2    1    2    0    0  0.84760463210E+02  0.24727111170E+02  0.17520172852E+02  0.12831085804E+03  0.91438250666E+02 0.  0.
        -11    1    3    3    0    0  0.38059763796E+02 -0.11497537587E+02 -0.62938354327E+01  0.40253588104E+02  0.00000000000E+00 0.  1.
         11    1    3    3    0    0 -0.19238493395E+01  0.64509297571E+02 -0.66878124145E+02  0.92939949207E+02  0.00000000000E+00 0. -1.
        -11    1    4    4    0    0 -0.84247983483E+01 -0.21497079340E+02  0.31377022602E+01  0.23301219342E+02  0.00000000000E+00 0. -1.
         11    1    4    4    0    0  0.93185261558E+02  0.46224190510E+02  0.14382470592E+02  0.10500963870E+03  0.00000000000E+00 0.  1.
         21    1    1    2  503  502 -0.55591521311E+02 -0.22018168039E+02 -0.26624972976E+03  0.27288117480E+03  0.00000000000E+00 0.  1.
         -3    1    1    2    0  503 -0.65304856355E+02 -0.55720703115E+02 -0.29915832764E+03  0.31123178824E+03  0.00000000000E+00 0.  1.
<scales pt_clust_5="13000.00000" pt_clust_6="13000.00000" pt_clust_7="13000.00000" pt_clust_8="13000.00000" pt_clust_9="24.22306" pt_clust_10="140.08781"></scales>
<clustering>
<clus scale="   24.223">  9 10 -1 -1</clus>
<clus scale="   90.941">  5  6 -1 -1</clus>
<clus scale="   91.438">  7  8 -1 -1</clus>
<clus scale="  111.294">  1  5  2 -1</clus>
<clus scale="  140.088">  2  9  1 -1</clus>
<clus scale="  140.088">  2  5  1 -1</clus>
</clustering>
</event>
<event>
10    2  0.6640105E-006  0.9701489E+02  0.7546771E-02  0.1288679E+00
         21   -1    0    0  501  502  0.00000000000E+00  0.00000000000E+00  0.23229212492E+02  0.23229212492E+02  0.00000000000E+00 0. -1.
         -4   -1    0    0    0  501 -0.00000000000E+00 -0.00000000000E+00 -0.75714635733E+03  0.75714635733E+03  0.00000000000E+00 0.  1.
         23    2    1    2    0    0  0.76715391841E+01 -0.11666423826E+02 -0.33787833711E+03  0.35001180451E+03  0.90285849654E+02 0.  0.
         23    2    1    2    0    0 -0.27276619544E+02  0.35252456955E+02 -0.21271548429E+03  0.23677087270E+03  0.93945831225E+02 0.  0.
        -11    1    4    4    0    0 -0.67530168504E+00 -0.31093832182E+02 -0.47759914519E+02  0.56993787968E+02  0.00000000000E+00 0.  1.
         11    1    4    4    0    0 -0.26601317859E+02  0.66346289137E+02 -0.16495556977E+03  0.17977708473E+03  0.00000000000E+00 0. -1.
        -13    1    3    3    0    0 -0.23150738446E+02 -0.42097260760E+02 -0.17634150008E+03  0.18276887237E+03  0.00000000000E+00 0.  1.
         13    1    3    3    0    0  0.30822277630E+02  0.30430836934E+02 -0.16153683703E+03  0.16724293214E+03  0.00000000000E+00 0. -1.
         21    1    1    2  503  502 -0.16472267231E+02 -0.13287906674E+02 -0.37909571474E+02  0.43417043438E+02  0.00000000000E+00 0.  1.
         -4    1    1    2    0  503  0.36077347591E+02 -0.10298126455E+02 -0.14541375196E+03  0.15017584918E+03  0.00000000000E+00 0.  1.
<scales pt_clust_5="13000.00000" pt_clust_6="13000.00000" pt_clust_7="13000.00000" pt_clust_8="13000.00000" pt_clust_9="21.16374" pt_clust_10="36.15655"></scales>
<clustering>
<clus scale="   21.164">  1  9  2 -1</clus>
<clus scale="   36.157">  1 10  2 -1</clus>
<clus scale="   90.286">  7  8 -1 -1</clus>
<clus scale="   93.475">  2  7  1 -1</clus>
<clus scale="   93.946">  5  6 -1 -1</clus>
<clus scale="   21.164">  1  5  2 -1</clus>
</clustering>
</event>
<event>
10    2  0.6640105E-006  0.1083080E+03  0.7546771E-02  0.1263955E+00
         -4   -1    0    0    0  501 -0.00000000000E+00  0.00000000000E+00  0.12486987154E+03  0.12486987154E+03  0.00000000000E+00 0.  1.
         21   -1    0    0  503  502  0.00000000000E+00 -0.00000000000E+00 -0.19207034181E+03  0.19207034181E+03  0.00000000000E+00 0. -1.
         23    2    1    2    0    0  0.19348500381E+01  0.76093647285E+02  0.28969575199E+02  0.12274111677E+03  0.91826786165E+02 0.  0.
         23    2    1    2    0    0 -0.17297055545E+02 -0.21982681995E+02 -0.50349818531E+02  0.10885713434E+03  0.92370693577E+02 0.  0.
        -11    1    3    3    0    0  0.22359249436E+02  0.81362136971E+02  0.45571444502E+02  0.95898331173E+02  0.00000000000E+00 0. -1.
         11    1    3    3    0    0 -0.20424399398E+02 -0.52684896859E+01 -0.16601869303E+02  0.26842785598E+02  0.00000000000E+00 0.  1.
        -13    1    4    4    0    0  0.92540521177E+01 -0.39692336049E+02 -0.62577321371E+02  0.74679583365E+02  0.00000000000E+00 0. -1.
         13    1    4    4    0    0 -0.26551107663E+02  0.17709654053E+02  0.12227502840E+02  0.34177550973E+02  0.00000000000E+00 0.  1.
         21    1    1    2  503  501  0.26509682811E+02 -0.32012721026E+02 -0.11680490205E+02  0.43174198796E+02  0.00000000000E+00 0.  1.
         -4    1    1    2    0  502 -0.11147477304E+02 -0.22098244264E+02 -0.34139736731E+02  0.42167763444E+02  0.00000000000E+00 0.  1.
<scales pt_clust_5="13000.00000" pt_clust_6="13000.00000" pt_clust_7="13000.00000" pt_clust_8="13000.00000" pt_clust_9="43.51817" pt_clust_10="24.75073"></scales>
<clustering>
<clus scale="   24.751">  2 10  1 -1</clus>
<clus scale="   43.518">  2  9  1 -1</clus>
<clus scale="   91.827">  5  6 -1 -1</clus>
<clus scale="   92.371">  7  8 -1 -1</clus>
<clus scale="  107.844">  1  5  2 -1</clus>
<clus scale="   24.751">  2  5  1 -1</clus>
</clustering>
</event>
<event>
10    2  0.6640105E-006  0.1088431E+03  0.7546771E-02  0.1262878E+00
         -2   -1    0    0    0  501 -0.00000000000E+00  0.00000000000E+00  0.94519820572E+02  0.94519820572E+02  0.00000000000E+00 0.  1.
         21   -1    0    0  503  502  0.00000000000E+00 -0.00000000000E+00 -0.94905832478E+03  0.94905832478E+03  0.00000000000E+00 0. -1.
         23    2    1    2    0    0  0.43054265737E+02  0.35158317095E+02  0.30641265675E+02  0.11112162092E+03  0.91210473162E+02 0.  0.
         23    2    1    2    0    0 -0.57631802149E+02 -0.59137613541E+02 -0.22489795718E+03  0.25621762696E+03  0.90827855120E+02 0.  0.
        -11    1    3    3    0    0  0.20467134717E+02 -0.29549095525E+02 -0.24801758770E+00  0.35945989520E+02  0.00000000000E+00 0.  1.
         11    1    3    3    0    0  0.22587131020E+02  0.64707412621E+02  0.30889283263E+02  0.75175631399E+02  0.00000000000E+00 0. -1.
        -13    1    4    4    0    0  0.98160700643E+01 -0.53121483482E+02 -0.11636042440E+03  0.12828871971E+03  0.00000000000E+00 0.  1.
         13    1    4    4    0    0 -0.67447872214E+02 -0.60161300590E+01 -0.10853753278E+03  0.12792890724E+03  0.00000000000E+00 0. -1.
         21    1    1    2  503  501  0.10954175438E+02  0.80858855471E+02 -0.48798252425E+03  0.49475760978E+03  0.00000000000E+00 0. -1.
         -2    1    1    2    0  502  0.36233609743E+01 -0.56879559025E+02 -0.17229928846E+03  0.18148128769E+03  0.00000000000E+00 0.  1.
<scales pt_clust_5="13000.00000" pt_clust_6="13000.00000" pt_clust_7="13000.00000" pt_clust_8="13000.00000" pt_clust_9="46.59025" pt_clust_10="56.99485"></scales>
<clustering>
<clus scale="   56.995">  2 10  1 -1</clus>
<clus scale="   46.590">  2  9  1 -1</clus>
<clus scale="   90.828">  7  8 -1 -1</clus>
<clus scale="   91.210">  5  6 -1 -1</clus>
<clus scale="  108.523">  2  7  1 -1</clus>
<clus scale="   56.995">  2  5  1 -1</clus>
</clustering>
</event>
<event>
10    2  0.6640105E-006  0.9627072E+02  0.7546771E-02  0.1290902E+00
         -2   -1    0    0    0  501 -0.00000000000E+00  0.00000000000E+00  0.38705711181E+03  0.38705711181E+03  0.00000000000E+00 0.  1.
         21   -1    0    0  501  502  0.00000000000E+00 -0.00000000000E+00 -0.64904009984E+02  0.64904009984E+02  0.00000000000E+00 0. -1.
         23    2    1    2    0    0 -0.24726712250E+02 -0.87328686492E+01  0.17774822422E+03  0.20196316740E+03  0.92233488921E+02 0.  0.
         23    2    1    2    0    0  0.22479695954E+02 -0.41947167986E+02  0.15315307818E+03  0.18269897859E+03  0.87510855282E+02 0.  0.
        -11    1    3    3    0    0  0.25715479969E+01 -0.37710287052E+02  0.14665923044E+03  0.15145167045E+03  0.00000000000E+00 0. -1.
         11    1    3    3    0    0 -0.27298260247E+02  0.28977418403E+02  0.31088993782E+02  0.50511496951E+02  0.00000000000E+00 0.  1.
        -11    1    4    4    0    0  0.34451825891E+02 -0.61695987623E+02  0.83879497369E+02  0.10967722314E+03  0.00000000000E+00 0. -1.
         11    1    4    4    0    0 -0.11972129937E+02  0.19748819637E+02  0.69273580806E+02  0.73021755457E+02  0.00000000000E+00 0.  1.
         21    1    1    2  503  502  0.16782938184E+02  0.13428019421E+02 -0.15823732091E+02  0.26690245727E+02  0.00000000000E+00 0.  1.
         -2    1    1    2    0  503 -0.14535921889E+02  0.37252017214E+02  0.70755315171E+01  0.40608730070E+02  0.00000000000E+00 0.  1.
<scales pt_clust_5="13000.00000" pt_clust_6="13000.00000" pt_clust_7="13000.00000" pt_clust_8="13000.00000" pt_clust_9="21.49369" pt_clust_10="43.17478"></scales>
<clustering>
<clus scale="   21.494">  2  9  1 -1</clus>
<clus scale="   43.175">  2 10  1 -1</clus>
<clus scale="   87.511">  7  8 -1 -1</clus>
<clus scale="   91.756">  2  7  1 -1</clus>
<clus scale="   92.233">  5  6 -1 -1</clus>
<clus scale="   21.494">  2  5  1 -1</clus>
</clustering>
</event>
<event>
10    2  0.6640105E-006  0.1065675E+03  0.7546771E-02  0.1268288E+00
          1   -1    0    0  502    0 -0.00000000000E+00  0.00000000000E+00  0.22912059779E+03  0.22912059779E+03  0.00000000000E+00 0. -1.
         21   -1    0    0  503  502  0.00000000000E+00 -0.00000000000E+00 -0.15343230395E+03  0.15343230395E+03  0.00000000000E+00 0. -1.
         23    2    1    2    0    0 -0.44597729144E+01  0.48117653687E+02  0.14394004262E+03  0.17888740718E+03  0.94587369166E+02 0.  0.
         23    2    1    2    0    0 -0.45712913341E+02 -0.54284685852E+02 -0.70665524302E+02  0.13582620957E+03  0.91753176063E+02 0.  0.
        -11    1    4    4    0    0  0.23183103119E+02  0.46973133183E+01 -0.58948266027E+01  0.24377653769E+02  0.00000000000E+00 0.  1.
         11    1    4    4    0    0 -0.68896016460E+02 -0.58981999171E+02 -0.64770697700E+02  0.11144855580E+03  0.00000000000E+00 0. -1.
        -13    1    3    3    0    0 -0.45204985318E+02  0.28723992085E+01  0.63607885303E+02  0.78087799608E+02  0.00000000000E+00 0.  1.
         13    1    3    3    0    0  0.40745212404E+02  0.45245254478E+02  0.80332157317E+02  0.10079960757E+03  0.00000000000E+00 0. -1.
         21    1    1    2  503  501  0.24309492085E+02 -0.16664207719E+02 -0.10078358439E+02  0.31148363250E+02  0.00000000000E+00 0. -1.
          1    1    1    2  501    0  0.25863194171E+02  0.22831239885E+02  0.12492133954E+02  0.36690921740E+02  0.00000000000E+00 0. -1.
<scales pt_clust_5="13000.00000" pt_clust_6="13000.00000" pt_clust_7="13000.00000" pt_clust_8="13000.00000" pt_clust_9="29.47282" pt_clust_10="35.25069"></scales>
<clustering>
<clus scale="   29.473">  2  9  1 -1</clus>
<clus scale="   35.251">  2 10  1 -1</clus>
<clus scale="   91.753">  5  6 -1 -1</clus>
<clus scale="   94.587">  7  8 -1 -1</clus>
<clus scale="  104.060">  2  5  1 -1</clus>
<clus scale="   29.473">  2  5  1 -1</clus>
</clustering>
</event>
<event>
10    2  0.6640105E-006  0.1157915E+03  0.7546771E-02  0.1250652E+00
         -3   -1    0    0    0  501 -0.00000000000E+00  0.00000000000E+00  0.12197832504E+03  0.12197832504E+03  0.00000000000E+00 0.  1.
         21   -1    0    0  503  502  0.00000000000E+00 -0.00000000000E+00 -0.64122105419E+03  0.64122105419E+03  0.00000000000E+00 0. -1.
         23    2    1    2    0    0 -0.48040651863E+02 -0.35398160503E+02  0.11798577702E+02  0.10989304274E+03  0.91522349234E+02 0.  0.
         23    2    1    2    0    0  0.53066528231E+02  0.77255010861E+02 -0.70191771009E+02  0.14941390342E+03  0.92807524996E+02 0.  0.
        -11    1    4    4    0    0  0.23488476771E+02  0.68824765542E+02  0.62356883660E-01  0.72722491578E+02  0.00000000000E+00 0.  1.
         11    1    4    4    0    0  0.29578051460E+02  0.84302453196E+01 -0.70254127892E+02  0.76691411841E+02  0.00000000000E+00 0. -1.
        -13    1    3    3    0    0  0.40574385652E+00 -0.53766456360E+02  0.20136182021E+02  0.57414826342E+02  0.00000000000E+00 0. -1.
         13    1    3    3    0    0 -0.48446395719E+02  0.18368295856E+02 -0.83376043190E+01  0.52478216401E+02  0.00000000000E+00 0.  1.
         21    1    1    2  503  501  0.47997014570E+02 -0.54509588737E+02 -0.43932013853E+03  0.44528327252E+03  0.00000000000E+00 0. -1.
         -3    1    1    2    0  502 -0.53022890938E+02  0.12652738379E+02 -0.21529397320E+02  0.58609160554E+02  0.00000000000E+00 0.  1.
<scales pt_clust_5="13000.00000" pt_clust_6="13000.00000" pt_clust_7="13000.00000" pt_clust_8="13000.00000" pt_clust_9="46.08463" pt_clust_10="54.51167"></scales>
<clustering>
<clus scale="   54.512">  2 10  1 -1</clus>
<clus scale="   46.085">  2  9  1 -1</clus>
<clus scale="   91.522">  7  8 -1 -1</clus>
<clus scale="   92.808">  5  6 -1 -1</clus>
<clus scale="  114.764">  1  7  2 -1</clus>
<clus scale="   54.512">  2  5  1 -1</clus>
</clustering>
</event>
<event>
10    2  0.1148390E-005  0.3807191E+03  0.7546771E-02  0.1090570E+00
          2   -1    0    0  502    0 -0.00000000000E+00  0.00000000000E+00  0.77772728349E+03  0.77772728349E+03  0.00000000000E+00 0. -1.
         21   -1    0    0  503  502  0.00000000000E+00 -0.00000000000E+00 -0.38010221741E+03  0.38010221741E+03  0.00000000000E+00 0. -1.
         23    2    1    2    0    0 -0.58127743525E+02 -0.69598431304E+02  0.34337853025E+03  0.36605015326E+03  0.88662976826E+02 0.  0.
         23    2    1    2    0    0  0.33818036803E+03 -0.17494296255E+03  0.61236577900E+02  0.39658766292E+03  0.92524885506E+02 0.  0.
        -11    1    3    3    0    0 -0.54729933679E+02  0.75511124767E+00  0.12149583849E+03  0.13325604903E+03  0.00000000000E+00 0.  1.
         11    1    3    3    0    0 -0.33978098452E+01 -0.70353542552E+02  0.22188269176E+03  0.23279410423E+03  0.00000000000E+00 0. -1.
        -13    1    4    4    0    0  0.54458548878E+01 -0.27236193544E+02  0.36139419456E+01  0.28009429674E+02  0.00000000000E+00 0.  1.
         13    1    4    4    0    0  0.33273451314E+03 -0.14770676901E+03  0.57622635954E+02  0.36857823324E+03  0.00000000000E+00 0. -1.
         21    1    1    2  503  501 -0.22153521329E+02 -0.16860122673E+02  0.15544930475E+01  0.27882946265E+02  0.00000000000E+00 0.  1.
          2    1    1    2  501    0 -0.25789910318E+03  0.26140151653E+03 -0.85445351194E+01  0.36730873845E+03  0.00000000000E+00 0. -1.
<scales pt_clust_5="13000.00000" pt_clust_6="13000.00000" pt_clust_7="13000.00000" pt_clust_8="13000.00000" pt_clust_9="27.83958" pt_clust_10="369.30504"></scales>
<clustering>
<clus scale="   27.840">  2  9  1 -1</clus>
<clus scale="   88.663">  5  6 -1 -1</clus>
<clus scale="   92.525">  7  8 -1 -1</clus>
<clus scale="  127.423">  1  5  2 -1</clus>
<clus scale="  369.305">  2 10  1 -1</clus>
<clus scale="   27.840">  2  5  1 -1</clus>
</clustering>
</event>
<event>
10    2  0.6640105E-006  0.9299317E+02  0.7546771E-02  0.1300654E+00
          1   -1    0    0  503    0 -0.00000000000E+00  0.00000000000E+00  0.62780832240E+03  0.62780832240E+03  0.00000000000E+00 0. -1.
         21   -1    0    0  501  502  0.00000000000E+00 -0.00000000000E+00 -0.51165067451E+02  0.51165067451E+02  0.00000000000E+00 0. -1.
         23    2    1    2    0    0 -0.54843795361E+01  0.32726941548E+01  0.37552245008E+03  0.38478187739E+03  0.83661183970E+02 0.  0.
         23    2    1    2    0    0 -0.73762305114E+01 -0.42230063727E+02  0.21724883626E+03  0.23971901683E+03  0.91817008838E+02 0.  0.
        -11    1    3    3    0    0  0.23989281618E+02  0.32680378299E+02  0.22421471529E+03  0.22785023878E+03  0.00000000000E+00 0. -1.
         11    1    3    3    0    0 -0.29473661154E+02 -0.29407684144E+02  0.15130773479E+03  0.15693163861E+03  0.00000000000E+00 0.  1.
        -13    1    4    4    0    0  0.35124452103E+02 -0.45598258400E+02  0.10671046922E+03  0.12124377322E+03  0.00000000000E+00 0.  1.
         13    1    4    4    0    0 -0.42500682614E+02  0.33681946731E+01  0.11053836705E+03  0.11847524360E+03  0.00000000000E+00 0. -1.
         21    1    1    2  503  502  0.18571981898E+02  0.15630294458E+02 -0.18240809579E+02  0.30363658386E+02  0.00000000000E+00 0. -1.
          1    1    1    2  501    0 -0.57113718508E+01  0.23327075114E+02  0.21127781773E+01  0.24108837247E+02  0.00000000000E+00 0. -1.
<scales pt_clust_5="13000.00000" pt_clust_6="13000.00000" pt_clust_7="13000.00000" pt_clust_8="13000.00000" pt_clust_9="33.36471" pt_clust_10="24.01608"></scales>
<clustering>
<clus scale="   24.016">  2 10  1 -1</clus>
<clus scale="   33.365">  2  9  1 -1</clus>
<clus scale="   83.661">  5  6 -1 -1</clus>
<clus scale="   84.950">  1  5  2 -1</clus>
<clus scale="   91.817">  7  8 -1 -1</clus>
<clus scale="   24.016">  2  5  1 -1</clus>
</clustering>
</event>
<event>
10    2  0.6640105E-006  0.1387081E+03  0.7546771E-02  0.1215498E+00
         21   -1    0    0  501  502  0.00000000000E+00  0.00000000000E+00  0.26374874150E+03  0.26374874150E+03  0.00000000000E+00 0.  1.
          1   -1    0    0  503    0 -0.00000000000E+00 -0.00000000000E+00 -0.24736950669E+03  0.24736950669E+03  0.00000000000E+00 0. -1.
         23    2    1    2    0    0 -0.49521975430E+02  0.10816749979E+03 -0.14586169606E+03  0.20836256111E+03  0.89368274214E+02 0.  0.
         23    2    1    2    0    0  0.20474342390E+02 -0.66382974889E+02  0.33507937756E+02  0.11947577429E+03  0.91245716058E+02 0.  0.
        -13    1    3    3    0    0 -0.59209024450E+02  0.65181974305E+02 -0.46307191152E+02  0.99492483651E+02  0.00000000000E+00 0. -1.
         13    1    3    3    0    0  0.96870490200E+01  0.42985525484E+02 -0.99554504906E+02  0.10887007746E+03  0.00000000000E+00 0.  1.
        -13    1    4    4    0    0 -0.38777123994E+01  0.20807090258E+02 -0.39047627597E+01  0.21522519152E+02  0.00000000000E+00 0.  1.
         13    1    4    4    0    0  0.24352054789E+02 -0.87190065147E+02  0.37412700515E+02  0.97953255141E+02  0.00000000000E+00 0. -1.
         21    1    1    2  503  502  0.65470811099E+02 -0.17224924997E+02  0.27768570492E+02  0.73172526636E+02  0.00000000000E+00 0.  1.
          1    1    1    2  501    0 -0.36423178059E+02 -0.24559599903E+02  0.10096442262E+03  0.11010738614E+03  0.00000000000E+00 0. -1.
<scales pt_clust_5="13000.00000" pt_clust_6="13000.00000" pt_clust_7="13000.00000" pt_clust_8="13000.00000" pt_clust_9="59.39682" pt_clust_10="43.92974"></scales>
<clustering>
<clus scale="   43.930">  1 10  2 -1</clus>
<clus scale="   59.397">  1  9  2 -1</clus>
<clus scale="   89.368">  5  6 -1 -1</clus>
<clus scale="   91.246">  7  8 -1 -1</clus>
<clus scale="  137.480">  2  5  1 -1</clus>
<clus scale="   43.930">  1  5  2 -1</clus>
</clustering>
</event>
<event>
10    2  0.6640105E-006  0.1000268E+03  0.7546771E-02  0.1280305E+00
          1   -1    0    0  503    0 -0.00000000000E+00  0.00000000000E+00  0.54599493346E+03  0.54599493346E+03  0.00000000000E+00 0. -1.
         21   -1    0    0  501  502  0.00000000000E+00 -0.00000000000E+00 -0.21328751568E+03  0.21328751568E+03  0.00000000000E+00 0. -1.
         23    2    1    2    0    0  0.31147297541E+02 -0.34310942695E+02  0.41097620109E+03  0.42377154884E+03  0.92376906249E+02 0.  0.
         23    2    1    2    0    0 -0.82048010385E+01  0.14351308290E+02  0.10559412326E+03  0.14118025821E+03  0.92241355311E+02 0.  0.
        -13    1    4    4    0    0  0.28255610877E+01  0.48771134864E+02  0.29840249524E+02  0.57245505353E+02  0.00000000000E+00 0.  1.
         13    1    4    4    0    0 -0.11030362126E+02 -0.34419826575E+02  0.75753873739E+02  0.83934752853E+02  0.00000000000E+00 0. -1.
        -13    1    3    3    0    0  0.46931281360E+02  0.16524071917E+02  0.18084737672E+03  0.18756695815E+03  0.00000000000E+00 0.  1.
         13    1    3    3    0    0 -0.15783983819E+02 -0.50835014613E+02  0.23012882438E+03  0.23620459069E+03  0.00000000000E+00 0. -1.
         21    1    1    2  503  502  0.16879497240E+02  0.11266751654E+02 -0.40709498132E+02  0.45487584658E+02  0.00000000000E+00 0.  1.
          1    1    1    2  501    0 -0.39821993742E+02  0.86928827522E+01 -0.14315340844E+03  0.14884305743E+03  0.00000000000E+00 0. -1.
<scales pt_clust_5="13000.00000" pt_clust_6="13000.00000" pt_clust_7="13000.00000" pt_clust_8="13000.00000" pt_clust_9="20.29426" pt_clust_10="31.29260"></scales>
<clustering>
<clus scale="   20.294">  2  9  1 -1</clus>
<clus scale="   31.293">  2 10  1 -1</clus>
<clus scale="   92.241">  5  6 -1 -1</clus>
<clus scale="   92.377">  7  8 -1 -1</clus>
<clus scale="   99.902">  2  5  1 -1</clus>
<clus scale="   20.294">  2  5  1 -1</clus>
</clustering>
</event>
<event>
10    2  0.6640105E-006  0.1039205E+03  0.7546771E-02  0.1278822E+00
         21   -1    0    0  501  502  0.00000000000E+00  0.00000000000E+00  0.16370826791E+03  0.16370826791E+03  0.00000000000E+00 0. -1.
          1   -1    0    0  503    0 -0.00000000000E+00 -0.00000000000E+00 -0.34825380242E+03  0.34825380242E+03  0.00000000000E+00 0. -1.
         23    2    1    2    0    0 -0.93012022054E+01  0.31807203977E+02 -0.22016111543E+03  0.23860866027E+03  0.85819376721E+02 0.  0.
         23    2    1    2    0    0  0.40932166614E+02 -0.13166261986E+02 -0.75780127849E+02  0.13174957445E+03  0.98825755109E+02 0.  0.
        -11    1    3    3    0    0 -0.28266218024E+02  0.54679003981E+02 -0.16195823787E+03  0.17326062268E+03  0.00000000000E+00 0.  1.
         11    1    3    3    0    0  0.18965015819E+02 -0.22871800004E+02 -0.58202877564E+02  0.65348037592E+02  0.00000000000E+00 0. -1.
        -13    1    4    4    0    0 -0.22425690558E+02 -0.30794556980E+02 -0.11511408839E+02  0.39796091140E+02  0.00000000000E+00 0. -1.
         13    1    4    4    0    0  0.63357857172E+02  0.17628294994E+02 -0.64268719011E+02  0.91953483311E+02  0.00000000000E+00 0.  1.
         21    1    1    2  503  502  0.17736931248E+02  0.13505576866E+02  0.10215466849E+02  0.24522542681E+02  0.00000000000E+00 0. -1.
          1    1    1    2  501    0 -0.49367895657E+02 -0.32146518857E+02  0.10118024192E+03  0.11708129292E+03  0.00000000000E+00 0. -1.
<scales pt_clust_5="13000.00000" pt_clust_6="13000.00000" pt_clust_7="13000.00000" pt_clust_8="13000.00000" pt_clust_9="22.29348" pt_clust_10="42.34923"></scales>
<clustering>
<clus scale="   22.293">  1  9  2 -1</clus>
<clus scale="   42.349">  1 10  2 -1</clus>
<clus scale="   85.819">  5  6 -1 -1</clus>
<clus scale="   91.640">  2  5  1 -1</clus>
<clus scale="   98.826">  7  8 -1 -1</clus>
<clus scale="   22.293">  1  5  2 -1</clus>
</clustering>
</event>
<event>
10    2  0.6640105E-006  0.1026362E+03  0.7546771E-02  0.1275965E+00
         -1   -1    0    0    0  501 -0.00000000000E+00  0.00000000000E+00  0.54349867080E+03  0.54349867080E+03  0.00000000000E+00 0.  1.
         21   -1    0    0  503  502  0.00000000000E+00 -0.00000000000E+00 -0.58268744052E+02  0.58268744052E+02  0.00000000000E+00 0.  1.
         23    2    1    2    0    0  0.29337180819E+02 -0.13540519594E+02  0.19639387558E+03  0.21814489330E+03  0.89289552914E+02 0.  0.
         23    2    1    2    0    0 -0.55803361377E+02  0.48189663780E+02  0.21208871955E+03  0.24255341916E+03  0.91729370142E+02 0.  0.
        -11    1    4    4    0    0 -0.15974552471E+02 -0.27359057294E+02  0.46980381258E+02  0.56664455930E+02  0.00000000000E+00 0. -1.
         11    1    4    4    0    0 -0.39828808907E+02  0.75548721075E+02  0.16510833829E+03  0.18588896323E+03  0.00000000000E+00 0.  1.
        -11    1    3    3    0    0 -0.20110320725E+02 -0.33689584753E+02  0.10763543500E+03  0.11456351944E+03  0.00000000000E+00 0. -1.
         11    1    3    3    0    0  0.49447501544E+02  0.20149065158E+02  0.88758440585E+02  0.10358137386E+03  0.00000000000E+00 0.  1.
         21    1    1    2  503  501 -0.20366814770E+02  0.27320434704E+02  0.46639804733E+02  0.57762311950E+02  0.00000000000E+00 0.  1.
         -1    1    1    2    0  502  0.46832995328E+02 -0.61969578890E+02  0.30107526885E+02  0.83306790446E+02  0.00000000000E+00 0.  1.
<scales pt_clust_5="13000.00000" pt_clust_6="13000.00000" pt_clust_7="13000.00000" pt_clust_8="13000.00000" pt_clust_9="34.07658" pt_clust_10="73.74284"></scales>
<clustering>
<clus scale="   34.077">  1  9  2 -1</clus>
<clus scale="   73.743">  2 10  1 -1</clus>
<clus scale="   89.290">  7  8 -1 -1</clus>
<clus scale="   91.729">  5  6 -1 -1</clus>
<clus scale="  100.462">  1  7  2 -1</clus>
<clus scale="   73.743">  2  5  1 -1</clus>
</clustering>
</event>
<event>
10    2  0.6640105E-006  0.2275169E+03  0.7546771E-02  0.1161867E+00
          3   -1    0    0  503    0 -0.00000000000E+00  0.00000000000E+00  0.36657779151E+03  0.36657779151E+03  0.00000000000E+00 0. -1.
         21   -1    0    0  501  502  0.00000000000E+00 -0.00000000000E+00 -0.59450071475E+03  0.59450071475E+03  0.00000000000E+00 0. -1.
         23    2    1    2    0    0 -0.30854151078E+02  0.34390855158E+02  0.21175411232E+03  0.23526469698E+03  0.91514829416E+02 0.  0.
         23    2    1    2    0    0  0.18568992439E+03 -0.11556118077E+03 -0.11521496189E+03  0.26324092642E+03  0.90477419154E+02 0.  0.
        -13    1    3    3    0    0 -0.45649316315E+02  0.58392489462E+02  0.15982600436E+03  0.17617574911E+03  0.00000000000E+00 0. -1.
         13    1    3    3    0    0  0.14795165237E+02 -0.24001634305E+02  0.51928107963E+02  0.59088947869E+02  0.00000000000E+00 0.  1.
        -13    1    4    4    0    0  0.10358334927E+03 -0.97494906196E+02 -0.10849515361E+03  0.17890211105E+03  0.00000000000E+00 0. -1.
         13    1    4    4    0    0  0.82106575121E+02 -0.18066274576E+02 -0.67198082819E+01  0.84338815373E+02  0.00000000000E+00 0.  1.
         21    1    1    2  503  502  0.33923202352E+02  0.35183499456E+01 -0.23879227634E+03  0.24121549222E+03  0.00000000000E+00 0. -1.
          3    1    1    2  501    0 -0.18875897566E+03  0.77651975669E+02 -0.85669797323E+02  0.22135739064E+03  0.00000000000E+00 0. -1.
<scales pt_clust_5="13000.00000" pt_clust_6="13000.00000" pt_clust_7="13000.00000" pt_clust_8="13000.00000" pt_clust_9="34.10517" pt_clust_10="208.75288"></scales>
<clustering>
<clus scale="   34.105">  2  9  1 -1</clus>
<clus scale="   90.477">  7  8 -1 -1</clus>
<clus scale="   91.515">  5  6 -1 -1</clus>
<clus scale="  102.223">  1  5  2 -1</clus>
<clus scale="  208.753">  2 10  1 -1</clus>
<clus scale="   34.105">  2  5  1 -1</clus>
</clustering>
</event>
<event>
10    2  0.6640105E-006  0.1339087E+03  0.7546771E-02  0.1222248E+00
         -2   -1    0    0    0  501 -0.00000000000E+00  0.00000000000E+00  0.12750934767E+04  0.12750934767E+04  0.00000000000E+00 0.  1.
         21   -1    0    0  503  502  0.00000000000E+00 -0.00000000000E+00 -0.10391013928E+03  0.10391013928E+03  0.00000000000E+00 0. -1.
         23    2    1    2    0    0  0.41108089689E+02 -0.34769708950E+02  0.37572248155E+03  0.39076930565E+03  0.92921791830E+02 0.  0.
         23    2    1    2    0    0 -0.12266169095E+03  0.93965386771E+02  0.77364956801E+03  0.79415814461E+03  0.90984175725E+02 0.  0.
        -13    1    3    3    0    0  0.29822850357E+01 -0.59386730179E+02  0.25385581207E+03  0.26072677475E+03  0.00000000000E+00 0.  1.
         13    1    3    3    0    0  0.38125804653E+02  0.24617021229E+02  0.12186666948E+03  0.13004253090E+03  0.00000000000E+00 0. -1.
        -13    1    4    4    0    0 -0.66470657714E+02 -0.37590878881E+01  0.28331221318E+03  0.29102970504E+03  0.00000000000E+00 0. -1.
         13    1    4    4    0    0 -0.56191033233E+02  0.97724474659E+02  0.49033735482E+03  0.50312843956E+03  0.00000000000E+00 0.  1.
         21    1    1    2  503  501  0.10735692258E+03  0.17866863617E+02 -0.37056631249E+01  0.10889658204E+03  0.00000000000E+00 0. -1.
         -2    1    1    2    0  502 -0.25803321325E+02 -0.77062541439E+02  0.25516950972E+02  0.85179583653E+02  0.00000000000E+00 0.  1.
<scales pt_clust_5="13000.00000" pt_clust_6="13000.00000" pt_clust_7="13000.00000" pt_clust_8="13000.00000" pt_clust_9="96.72644" pt_clust_10="81.26775"></scales>
<clustering>
<clus scale="   81.268">  2 10  1 -1</clus>
<clus scale="   90.984">  7  8 -1 -1</clus>
<clus scale="   92.922">  5  6 -1 -1</clus>
<clus scale="   96.726">  2  9  1 -1</clus>
<clus scale="  132.572">  2  7  1 -1</clus>
<clus scale="   81.268">  2  5  1 -1</clus>
</clustering>
</event>
<event>
10    2  0.6640105E-006  0.1333667E+03  0.7546771E-02  0.1223797E+00
          1   -1    0    0  502    0 -0.00000000000E+00  0.00000000000E+00  0.38613276228E+03  0.38613276228E+03  0.00000000000E+00 0. -1.
         21   -1    0    0  503  502  0.00000000000E+00 -0.00000000000E+00 -0.18840777366E+03  0.18840777366E+03  0.00000000000E+00 0.  1.
         23    2    1    2    0    0 -0.64152889963E+02 -0.17804468054E+02  0.12605848802E+03  0.16736174350E+03  0.87673362057E+02 0.  0.
         23    2    1    2    0    0  0.15978522790E+03  0.23526723305E+02  0.14334337872E+03  0.23500133262E+03  0.92701005100E+02 0.  0.
        -11    1    3    3    0    0  0.54046830135E+01  0.20043171935E+02  0.62389529451E+02  0.65752511167E+02  0.00000000000E+00 0.  1.
         11    1    3    3    0    0 -0.69557572976E+02 -0.37847639990E+02  0.63668958565E+02  0.10160923234E+03  0.00000000000E+00 0. -1.
        -11    1    4    4    0    0  0.45627703977E+02 -0.35271588130E+02  0.40257741061E+02  0.70332481932E+02  0.00000000000E+00 0.  1.
         11    1    4    4    0    0  0.11415752393E+03  0.58798311435E+02  0.10308563766E+03  0.16466885069E+03  0.00000000000E+00 0. -1.
         21    1    1    2  503  501 -0.81061430082E+01 -0.39731128143E+02 -0.66806863301E+02  0.78150042112E+02  0.00000000000E+00 0.  1.
          1    1    1    2  501    0 -0.87526194932E+02  0.34008872893E+02 -0.48700148141E+01  0.94027417698E+02  0.00000000000E+00 0. -1.
<scales pt_clust_5="13000.00000" pt_clust_6="13000.00000" pt_clust_7="13000.00000" pt_clust_8="13000.00000" pt_clust_9="40.54963" pt_clust_10="92.56976"></scales>
<clustering>
<clus scale="   40.550">  2  9  1 -1</clus>
<clus scale="   87.673">  5  6 -1 -1</clus>
<clus scale="   92.570">  2 10  1 -1</clus>
<clus scale="   92.701">  7  8 -1 -1</clus>
<clus scale="  129.922">  1  5  2 -1</clus>
<clus scale="   40.550">  2  5  1 -1</clus>
</clustering>
</event>
<event>
10    2  0.6640105E-006  0.1971037E+03  0.7546771E-02  0.1182034E+00
          1   -1    0    0  503    0 -0.00000000000E+00  0.00000000000E+00  0.35568148047E+03  0.35568148047E+03  0.00000000000E+00 0. -1.
         21   -1    0    0  501  502  0.00000000000E+00 -0.00000000000E+00 -0.44830108053E+03  0.44830108053E+03  0.00000000000E+00 0.  1.
         23    2    1    2    0    0 -0.81965070462E+01  0.36776133857E+02  0.78547168911E+02  0.12658986300E+03  0.91845897678E+02 0.  0.
         23    2    1    2    0    0  0.31404558762E+02 -0.59122270974E+02  0.10556789105E+03  0.15818967825E+03  0.96941763184E+02 0.  0.
        -11    1    3    3    0    0  0.40394666567E+02  0.40706433809E+01  0.34994032422E+02  0.53599267996E+02  0.00000000000E+00 0. -1.
         11    1    3    3    0    0 -0.48591173613E+02  0.32705490476E+02  0.43553136489E+02  0.72990595000E+02  0.00000000000E+00 0.  1.
        -13    1    4    4    0    0  0.20192040378E+02 -0.23869764769E+02 -0.13093462911E+02  0.33895765749E+02  0.00000000000E+00 0.  1.
         13    1    4    4    0    0  0.11212518385E+02 -0.35252506205E+02  0.11866135396E+03  0.12429391250E+03  0.00000000000E+00 0. -1.
         21    1    1    2  503  502 -0.18249884024E+03 -0.82519594899E+02 -0.25937380227E+03  0.32770425621E+03  0.00000000000E+00 0.  1.
          1    1    1    2  501    0  0.15929078852E+03  0.10486573202E+03 -0.17360857743E+02  0.19149876355E+03  0.00000000000E+00 0. -1.
<scales pt_clust_5="13000.00000" pt_clust_6="13000.00000" pt_clust_7="13000.00000" pt_clust_8="13000.00000" pt_clust_9="197.10369" pt_clust_10="13000.00000"></scales>
<clustering>
<clus scale="   91.846">  5  6 -1 -1</clus>
<clus scale="   96.942">  7  8 -1 -1</clus>
<clus scale="   99.274">  1  5  2 -1</clus>
<clus scale="  108.309">  1  7  2 -1</clus>
<clus scale="  197.104">  2  9  1 -1</clus>
<clus scale="  197.104">  2  5  1 -1</clus>
</clustering>
</event>
<event>
10    2  0.6640105E-006  0.1123095E+03  0.7546771E-02  0.1256479E+00
          2   -1    0    0  502    0 -0.00000000000E+00  0.00000000000E+00  0.58767027066E+03  0.58767027066E+03  0.00000000000E+00 0.  1.
         21   -1    0    0  503  502  0.00000000000E+00 -0.00000000000E+00 -0.15326848581E+03  0.15326848581E+03  0.00000000000E+00 0.  1.
         23    2    1    2    0    0  0.71560227504E+02 -0.17843214943E+02  0.37845693301E+03  0.39642723201E+03  0.92117607726E+02 0.  0.
         23    2    1    2    0    0 -0.27480391337E+02  0.31251108295E+02  0.65407060167E+02  0.12013457758E+03  0.91773795460E+02 0.  0.
        -11    1    3    3    0    0 -0.13153225750E+02  0.20918737665E+02  0.71921176222E+02  0.76047725294E+02  0.00000000000E+00 0. -1.
         11    1    3    3    0    0  0.84713453255E+02 -0.38761952608E+02  0.30653575679E+03  0.32037950671E+03  0.00000000000E+00 0.  1.
        -11    1    4    4    0    0  0.25240678339E+02  0.81002079680E+01  0.55775470154E+02  0.61754419137E+02  0.00000000000E+00 0.  1.
         11    1    4    4    0    0 -0.52721069675E+02  0.23150900327E+02  0.96315900134E+01  0.58380158443E+02  0.00000000000E+00 0. -1.
         21    1    1    2  503  501 -0.63486965076E+00  0.24716921716E+02 -0.10764252093E+03  0.11044564994E+03  0.00000000000E+00 0.  1.
          2    1    1    2  501    0 -0.43444966517E+02 -0.38124815068E+02  0.98180312607E+02  0.11393129694E+03  0.00000000000E+00 0.  1.
<scales pt_clust_5="13000.00000" pt_clust_6="13000.00000" pt_clust_7="13000.00000" pt_clust_8="13000.00000" pt_clust_9="24.72507" pt_clust_10="55.08681"></scales>
<clustering>
<clus scale="   24.725">  2  9  1 -1</clus>
<clus scale="   55.087">  2 10  1 -1</clus>
<clus scale="   91.774">  7  8 -1 -1</clus>
<clus scale="   92.118">  5  6 -1 -1</clus>
<clus scale="  112.028">  2  7  1 -1</clus>
<clus scale="   24.725">  2  5  1 -1</clus>
</clustering>
</event>
<event>
10    2  0.6640105E-006  0.3265313E+03  0.7546771E-02  0.1072743E+00
         21   -1    0    0  501  502  0.00000000000E+00  0.00000000000E+00  0.15945711085E+03  0.15945711085E+03  0.00000000000E+00 0. -1.
          1   -1    0    0  503    0 -0.00000000000E+00 -0.00000000000E+00 -0.12990336790E+04  0.12990336790E+04  0.00000000000E+00 0. -1.
         23    2    1    2    0    0  0.85666876824E+02  0.32725647364E+03 -0.64139462050E+03  0.73083233856E+03  0.91067198043E+02 0.  0.
         23    2    1    2    0    0 -0.17525288466E+03 -0.24145987558E+03 -0.49258363702E+03  0.58335588693E+03  0.93000033700E+02 0.  0.
        -11    1    3    3    0    0  0.50100494091E+02  0.21850697622E+03 -0.50686188518E+03  0.55422407816E+03  0.00000000000E+00 0. -1.
         11    1    3    3    0    0  0.35566382733E+02  0.10874949742E+03 -0.13453273532E+03  0.17660826040E+03  0.00000000000E+00 0.  1.
        -13    1    4    4    0    0 -0.17005734338E+03 -0.20976373985E+03 -0.47586721110E+03  0.54714708186E+03  0.00000000000E+00 0. -1.
         13    1    4    4    0    0 -0.51955412809E+01 -0.31696135728E+02 -0.16716425923E+02  0.36208805075E+02  0.00000000000E+00 0.  1.
         21    1    1    2  503  502  0.34362050090E+02  0.80182443866E+01  0.21084392081E+00  0.35285792957E+02  0.00000000000E+00 0. -1.
          1    1    1    2  501    0  0.55223957744E+02 -0.93814842448E+02 -0.58091545654E+01  0.10901677141E+03  0.00000000000E+00 0. -1.
<scales pt_clust_5="13000.00000" pt_clust_6="13000.00000" pt_clust_7="13000.00000" pt_clust_8="13000.00000" pt_clust_9="35.28516" pt_clust_10="113.35873"></scales>
<clustering>
<clus scale="   35.285">  1  9  2 -1</clus>
<clus scale="   91.067">  5  6 -1 -1</clus>
<clus scale="   93.000">  7  8 -1 -1</clus>
<clus scale="  113.359">  1 10  2 -1</clus>
<clus scale="  325.986">  2  5  1 -1</clus>
<clus scale="   35.285">  1  5  2 -1</clus>
</clustering>
</event>
<event>
10    2  0.6640105E-006  0.1335014E+03  0.7546771E-02  0.1222862E+00
          2   -1    0    0  503    0 -0.00000000000E+00  0.00000000000E+00  0.63371730111E+03  0.63371730111E+03  0.00000000000E+00 0. -1.
         21   -1    0    0  501  502  0.00000000000E+00 -0.00000000000E+00 -0.19901303158E+03  0.19901303158E+03  0.00000000000E+00 0. -1.
         23    2    1    2    0    0 -0.11944492841E+02 -0.78810899445E+02  0.32054764614E+03  0.34315239199E+03  0.92999687635E+02 0.  0.
         23    2    1    2    0    0 -0.95069652276E+02  0.22495798205E+03  0.11126590970E+03  0.28336613406E+03  0.90950155567E+02 0.  0.
        -13    1    4    4    0    0 -0.35522232309E+02  0.92756758660E+02  0.95034577068E+02  0.13746714554E+03  0.00000000000E+00 0.  1.
         13    1    4    4    0    0 -0.59547419967E+02  0.13220122339E+03  0.16231332632E+02  0.14589898852E+03  0.00000000000E+00 0. -1.
        -13    1    3    3    0    0 -0.44045153991E+02 -0.80372427822E+01  0.11713238702E+03  0.12539764332E+03  0.00000000000E+00 0.  1.
         13    1    3    3    0    0  0.32100661150E+02 -0.70773656663E+02  0.20341525912E+03  0.21775474867E+03  0.00000000000E+00 0. -1.
         21    1    1    2  503  502  0.45353873074E+02 -0.67720583040E+02 -0.47613481783E+02  0.94393298584E+02  0.00000000000E+00 0. -1.
          2    1    1    2  501    0  0.61660272043E+02 -0.78426499565E+02  0.50504195469E+02  0.11181850805E+03  0.00000000000E+00 0. -1.
<scales pt_clust_5="13000.00000" pt_clust_6="13000.00000" pt_clust_7="13000.00000" pt_clust_8="13000.00000" pt_clust_9="81.50492" pt_clust_10="119.23560"></scales>
<clustering>
<clus scale="   81.505">  2  9  1 -1</clus>
<clus scale="   90.950">  5  6 -1 -1</clus>
<clus scale="   93.000">  7  8 -1 -1</clus>
<clus scale="  119.236">  2 10  1 -1</clus>
<clus scale="  132.082">  2  5  1 -1</clus>
<clus scale="   81.505">  2  5  1 -1</clus>
</clustering>
</event>
<event>
10    2  0.6640105E-006  0.2850279E+03  0.7546771E-02  0.1127608E+00
         21   -1    0    0  501  502  0.00000000000E+00  0.00000000000E+00  0.19522718219E+03  0.19522718219E+03  0.00000000000E+00 0. -1.
          2   -1    0    0  503    0 -0.00000000000E+00 -0.00000000000E+00 -0.79853829420E+03  0.79853829420E+03  0.00000000000E+00 0. -1.
         23    2    1    2    0    0 -0.29009418354E+02  0.37085036129E+02 -0.14528647196E+03  0.18765090739E+03  0.10903145350E+03 0.  0.
         23    2    1    2    0    0  0.43063127731E+02 -0.28966899256E+03 -0.40130820233E+03  0.50479022437E+03  0.89455794342E+02 0.  0.
        -13    1    4    4    0    0 -0.95223369275E+01 -0.29050480030E+02 -0.10914081603E+02  0.32461091598E+02  0.00000000000E+00 0.  1.
         13    1    4    4    0    0  0.52585464659E+02 -0.26061851253E+03 -0.39039412072E+03  0.47232913277E+03  0.00000000000E+00 0. -1.
        -13    1    3    3    0    0 -0.62226647541E+02 -0.10666318723E+01 -0.10857631360E+03  0.12514834894E+03  0.00000000000E+00 0. -1.
         13    1    3    3    0    0  0.33217229186E+02  0.38151668001E+02 -0.36710158363E+02  0.62502558453E+02  0.00000000000E+00 0.  1.
         21    1    1    2  503  502  0.10190276278E+01 -0.21235736009E+02  0.12820205705E+00  0.21260558246E+02  0.00000000000E+00 0. -1.
          2    1    1    2  501    0 -0.15072737005E+02  0.27381969244E+03 -0.56844639778E+02  0.28006378638E+03  0.00000000000E+00 0. -1.
<scales pt_clust_5="13000.00000" pt_clust_6="13000.00000" pt_clust_7="13000.00000" pt_clust_8="13000.00000" pt_clust_9="21.26017" pt_clust_10="270.62625"></scales>
<clustering>
<clus scale="   21.260">  1  9  2 -1</clus>
<clus scale="   89.456">  5  6 -1 -1</clus>
<clus scale="  109.031">  7  8 -1 -1</clus>
<clus scale="  117.996">  2  7  1 -1</clus>
<clus scale="  270.626">  1 10  2 -1</clus>
<clus scale="   21.260">  1  5  2 -1</clus>
</clustering>
</event>
<event>
10    2  0.6640105E-006  0.1664603E+03  0.7546771E-02  0.1182532E+00
         -1   -1    0    0    0  501 -0.00000000000E+00  0.00000000000E+00  0.84736945225E+03  0.84736945225E+03  0.00000000000E+00 0.  1.
         21   -1    0    0  503  502  0.00000000000E+00 -0.00000000000E+00 -0.89144170315E+02  0.89144170315E+02  0.00000000000E+00 0. -1.
         23    2    1    2    0    0  0.58291709053E+00  0.17801420616E+03  0.45304322787E+03  0.49500973852E+03  0.89983762558E+02 0.  0.
         23    2    1    2    0    0 -0.45825812527E+02 -0.87607280999E+02  0.19284008348E+03  0.23707426746E+03  0.96134643674E+02 0.  0.
        -11    1    3    3    0    0  0.16457315890E+02  0.47498493398E+02  0.23563655611E+03  0.24093886506E+03  0.00000000000E+00 0.  1.
         11    1    3    3    0    0 -0.15874398800E+02  0.13051571276E+03  0.21740667176E+03  0.25407087346E+03  0.00000000000E+00 0. -1.
        -11    1    4    4    0    0  0.28639880239E+02 -0.33359267942E+02  0.45274470351E+02  0.63109913352E+02  0.00000000000E+00 0.  1.
         11    1    4    4    0    0 -0.74465692766E+02 -0.54248013057E+02  0.14756561313E+03  0.17396435411E+03  0.00000000000E+00 0. -1.
         21    1    1    2  503  501  0.23265695777E+02  0.35468001176E+02  0.35594898033E+02  0.55373897041E+02  0.00000000000E+00 0. -1.
         -1    1    1    2    0  502  0.21977199659E+02 -0.12587492634E+03  0.76747072546E+02  0.14905571955E+03  0.00000000000E+00 0.  1.
<scales pt_clust_5="13000.00000" pt_clust_6="13000.00000" pt_clust_7="13000.00000" pt_clust_8="13000.00000" pt_clust_9="42.41782" pt_clust_10="114.43414"></scales>
<clustering>
<clus scale="   42.418">  2  9  1 -1</clus>
<clus scale="   89.984">  5  6 -1 -1</clus>
<clus scale="   96.135">  7  8 -1 -1</clus>
<clus scale="  114.434">  2 10  1 -1</clus>
<clus scale="  162.985">  1  5  2 -1</clus>
<clus scale="   42.418">  2  5  1 -1</clus>
</clustering>
</event>
<event>
10    2  0.6640105E-006  0.1193044E+03  0.7546771E-02  0.1244643E+00
         21   -1    0    0  503  502  0.00000000000E+00  0.00000000000E+00  0.17988883659E+03  0.17988883659E+03  0.00000000000E+00 0. -1.
         -2   -1    0    0    0  501 -0.00000000000E+00 -0.00000000000E+00 -0.39784347888E+03  0.39784347888E+03  0.00000000000E+00 0.  1.
         23    2    1    2    0    0 -0.20383020702E+02 -0.80511751031E+02 -0.16492128126E+03  0.20568393865E+03  0.90604878553E+02 0.  0.
         23    2    1    2    0    0 -0.32120179230E+02  0.55382163360E+02  0.43757515574E+02  0.12019612950E+03  0.91834086512E+02 0.  0.
        -11    1    4    4    0    0  0.25559359110E+02  0.52683319684E+00 -0.60858050404E+01  0.26279182147E+02  0.00000000000E+00 0.  1.
         11    1    4    4    0    0 -0.57679538340E+02  0.54855330163E+02  0.49843320615E+02  0.93916947354E+02  0.00000000000E+00 0. -1.
        -11    1    3    3    0    0 -0.11302111628E+02 -0.98845720996E+02 -0.15138814990E+03  0.18115348800E+03  0.00000000000E+00 0.  1.
         11    1    3    3    0    0 -0.90809090745E+01  0.18333969964E+02 -0.13533131361E+02  0.24530450642E+02  0.00000000000E+00 0. -1.
         21    1    1    2  503  501  0.12555264907E+03  0.53067036707E+02 -0.12518976872E+02  0.13688061534E+03  0.00000000000E+00 0. -1.
         -2    1    1    2    0  502 -0.73049449140E+02 -0.27937449035E+02 -0.84271899728E+02  0.11497163199E+03  0.00000000000E+00 0.  1.
<scales pt_clust_5="13000.00000" pt_clust_6="13000.00000" pt_clust_7="13000.00000" pt_clust_8="13000.00000" pt_clust_9="106.77343" pt_clust_10="78.20952"></scales>
<clustering>
<clus scale="   78.210">  1 10  2 -1</clus>
<clus scale="   90.605">  7  8 -1 -1</clus>
<clus scale="   91.834">  5  6 -1 -1</clus>
<clus scale="  106.773">  1  9  2 -1</clus>
<clus scale="  118.361">  2  7  1 -1</clus>
<clus scale="   78.210">  1  5  2 -1</clus>
</clustering>
</event>
<event>
10    2  0.6640105E-006  0.1157496E+03  0.7546771E-02  0.1251022E+00
         21   -1    0    0  501  502  0.00000000000E+00  0.00000000000E+00  0.70467836739E+02  0.70467836739E+02  0.00000000000E+00 0.  1.
          1   -1    0    0  503    0 -0.00000000000E+00 -0.00000000000E+00 -0.75862965046E+03  0.75862965046E+03  0.00000000000E+00 0. -1.
         23    2    1    2    0    0  0.33807536484E+02  0.75818482300E+02 -0.35148283260E+03  0.37265747322E+03  0.91880460125E+02 0.  0.
         23    2    1    2    0    0 -0.97019275766E+02  0.18080030251E+02 -0.26539494634E+03  0.29702613168E+03  0.89724121583E+02 0.  0.
        -13    1    3    3    0    0  0.23518498779E+02  0.54190609155E+01 -0.14306273754E+02  0.28056291180E+02  0.00000000000E+00 0.  1.
         13    1    3    3    0    0  0.10289037704E+02  0.70399421384E+02 -0.33717655885E+03  0.34460118204E+03  0.00000000000E+00 0. -1.
        -13    1    4    4    0    0 -0.10259072177E+03 -0.11108251011E+02 -0.19510024490E+03  0.22070875604E+03  0.00000000000E+00 0.  1.
         13    1    4    4    0    0  0.55714460042E+01  0.29188281262E+02 -0.70294701439E+02  0.76317375636E+02  0.00000000000E+00 0. -1.
         21    1    1    2  503  502  0.45259396668E+02  0.14624399673E+01 -0.27290325406E+02  0.52870725152E+02  0.00000000000E+00 0.  1.
          1    1    1    2  501    0  0.17952342615E+02 -0.95360952518E+02 -0.43993709377E+02  0.10654315715E+03  0.00000000000E+00 0. -1.
<scales pt_clust_5="13000.00000" pt_clust_6="13000.00000" pt_clust_7="13000.00000" pt_clust_8="13000.00000" pt_clust_9="45.28302" pt_clust_10="103.67641"></scales>
<clustering>
<clus scale="   45.283">  1  9  2 -1</clus>
<clus scale="   89.724">  7  8 -1 -1</clus>
<clus scale="   91.880">  5  6 -1 -1</clus>
<clus scale="  103.676">  1 10  2 -1</clus>
<clus scale="  114.045">  1  7  2 -1</clus>
<clus scale="   45.283">  1  5  2 -1</clus>
</clustering>
</event>
<event>
10    2  0.6640105E-006  0.1131815E+03  0.7546771E-02  0.1255229E+00
         21   -1    0    0  501  502  0.00000000000E+00  0.00000000000E+00  0.13222161428E+03  0.13222161428E+03  0.00000000000E+00 0. -1.
          4   -1    0    0  503    0 -0.00000000000E+00 -0.00000000000E+00 -0.29533358616E+03  0.29533358616E+03  0.00000000000E+00 0. -1.
         23    2    1    2    0    0  0.93182451483E+02 -0.11528898833E+02 -0.16783497374E+03  0.21230878722E+03  0.89947528862E+02 0.  0.
         23    2    1    2    0    0 -0.34292063330E+02 -0.71404300575E+01 -0.58133393784E+02  0.11365840811E+03  0.91169133545E+02 0.  0.
        -11    1    4    4    0    0 -0.36389054898E+02 -0.41362444246E+02 -0.12347120153E+02  0.56457652151E+02  0.00000000000E+00 0. -1.
         11    1    4    4    0    0  0.20969915678E+01  0.34222014188E+02 -0.45786273631E+02  0.57200755955E+02  0.00000000000E+00 0.  1.
        -13    1    3    3    0    0  0.22374279669E+02  0.15449420369E+02 -0.11921893877E+03  0.12228020421E+03  0.00000000000E+00 0. -1.
         13    1    3    3    0    0  0.70808171814E+02 -0.26978319202E+02 -0.48616034971E+02  0.90028583010E+02  0.00000000000E+00 0.  1.
         21    1    1    2  503  502 -0.28141711251E+02 -0.11085600046E+02  0.47130925761E+02  0.56001523226E+02  0.00000000000E+00 0. -1.
          4    1    1    2  501    0 -0.30748676902E+02  0.29754928937E+02  0.15725469886E+02  0.45586481882E+02  0.00000000000E+00 0. -1.
<scales pt_clust_5="13000.00000" pt_clust_6="13000.00000" pt_clust_7="13000.00000" pt_clust_8="13000.00000" pt_clust_9="30.24643" pt_clust_10="48.68315"></scales>
<clustering>
<clus scale="   30.246">  1  9  2 -1</clus>
<clus scale="   48.683">  1 10  2 -1</clus>
<clus scale="   89.948">  7  8 -1 -1</clus>
<clus scale="   91.169">  5  6 -1 -1</clus>
<clus scale="  112.200">  2  7  1 -1</clus>
<clus scale="   30.246">  1  5  2 -1</clus>
</clustering>
</event>
<event>
10    2  0.6640105E-006  0.2934639E+03  0.7546771E-02  0.1088969E+00
          2   -1    0    0  502    0 -0.00000000000E+00  0.00000000000E+00  0.70189629484E+03  0.70189629484E+03  0.00000000000E+00 0. -1.
         21   -1    0    0  503  502  0.00000000000E+00 -0.00000000000E+00 -0.46178770281E+03  0.46178770281E+03  0.00000000000E+00 0. -1.
         23    2    1    2    0    0  0.27230262134E+02 -0.29399983372E+03  0.54376169803E+03  0.62389575459E+03  0.79948351761E+02 0.  0.
         23    2    1    2    0    0  0.39229983241E+02  0.21558713651E+03 -0.79412679089E+02  0.25017627769E+03  0.90911997590E+02 0.  0.
        -11    1    3    3    0    0 -0.25484872086E+02 -0.85281128211E+02  0.18936123616E+03  0.20923677328E+03  0.00000000000E+00 0.  1.
         11    1    3    3    0    0  0.52715134220E+02 -0.20871870551E+03  0.35440046187E+03  0.41465898131E+03  0.00000000000E+00 0. -1.
        -11    1    4    4    0    0  0.21508044703E+02  0.13568316051E+02 -0.33829536680E+02  0.42321776184E+02  0.00000000000E+00 0.  1.
         11    1    4    4    0    0  0.17721938538E+02  0.20201882045E+03 -0.45583142409E+02  0.20785450150E+03  0.00000000000E+00 0. -1.
         21    1    1    2  503  501 -0.34913539185E+01 -0.43607287230E+02 -0.74911403637E+02  0.86749659634E+02  0.00000000000E+00 0. -1.
          2    1    1    2  501    0 -0.62968891457E+02  0.12201998444E+03 -0.14932902328E+03  0.20286230574E+03  0.00000000000E+00 0. -1.
<scales pt_clust_5="13000.00000" pt_clust_6="13000.00000" pt_clust_7="13000.00000" pt_clust_8="13000.00000" pt_clust_9="43.74683" pt_clust_10="120.61072"></scales>
<clustering>
<clus scale="   43.747">  2  9  1 -1</clus>
<clus scale="   79.948">  5  6 -1 -1</clus>
<clus scale="   90.912">  7  8 -1 -1</clus>
<clus scale="  120.611">  2 10  1 -1</clus>
<clus scale="  290.255">  1  5  2 -1</clus>
<clus scale="   43.747">  2  5  1 -1</clus>
</clustering>
</event>
<event>
10    2  0.6640105E-006  0.2362104E+03  0.7546771E-02  0.1133276E+00
         21   -1    0    0  503  502  0.00000000000E+00  0.00000000000E+00  0.46860416883E+03  0.46860416883E+03  0.00000000000E+00 0.  1.
          2   -1    0    0  502    0 -0.00000000000E+00 -0.00000000000E+00 -0.15230885688E+04  0.15230885688E+04  0.00000000000E+00 0. -1.
         23    2    1    2    0    0  0.89210905269E+02 -0.12947672364E+03 -0.50780544128E+03  0.53889672871E+03  0.88433649929E+02 0.  0.
         23    2    1    2    0    0 -0.22751523930E+03  0.16676049951E+03 -0.61551010674E+03  0.68379626172E+03  0.95668112378E+02 0.  0.
        -13    1    4    4    0    0 -0.74918365361E+02  0.11142337628E+03 -0.24739887859E+03  0.28148558645E+03  0.00000000000E+00 0. -1.
         13    1    4    4    0    0 -0.15259687394E+03  0.55337123222E+02 -0.36811122815E+03  0.40231067526E+03  0.00000000000E+00 0.  1.
        -13    1    3    3    0    0  0.84114661659E+02 -0.46732949615E+02 -0.24066844143E+03  0.25919209785E+03  0.00000000000E+00 0. -1.
         13    1    3    3    0    0  0.50962436104E+01 -0.82743774029E+02 -0.26713699985E+03  0.27970463087E+03  0.00000000000E+00 0.  1.
         21    1    1    2  503  501  0.13515624414E+02  0.20469248979E+03  0.33204995052E+03  0.39030610695E+03  0.00000000000E+00 0.  1.
          2    1    1    2  501    0  0.12478870962E+03 -0.24197626565E+03 -0.26321880243E+03  0.37869364022E+03  0.00000000000E+00 0. -1.
<scales pt_clust_5="13000.00000" pt_clust_6="13000.00000" pt_clust_7="13000.00000" pt_clust_8="13000.00000" pt_clust_9="201.56530" pt_clust_10="215.96984"></scales>
<clustering>
<clus scale="   88.434">  7  8 -1 -1</clus>
<clus scale="   95.668">  5  6 -1 -1</clus>
<clus scale="  180.398">  2  7  1 -1</clus>
<clus scale="  201.565">  1  9  2 -1</clus>
<clus scale="  215.970">  1 10  2 -1</clus>
<clus scale="  201.565">  1  5  2 -1</clus>
</clustering>
</event>
<event>
10    2  0.6640105E-006  0.1031492E+03  0.7546771E-02  0.1276727E+00
         21   -1    0    0  501  502  0.00000000000E+00  0.00000000000E+00  0.49867594142E+02  0.49867594142E+02  0.00000000000E+00 0.  1.
          3   -1    0    0  503    0 -0.00000000000E+00 -0.00000000000E+00 -0.87563997035E+03  0.87563997035E+03  0.00000000000E+00 0. -1.
         23    2    1    2    0    0  0.13991124448E+02  0.54790518867E+02 -0.37549237118E+03  0.38905328226E+03  0.84676933719E+02 0.  0.
         23    2    1    2    0    0 -0.32739269836E+02 -0.28718649570E+02 -0.31185498816E+03  0.32779030722E+03  0.91084198652E+02 0.  0.
        -13    1    4    4    0    0  0.91090193405E+01 -0.51871105250E+02 -0.17913442542E+03  0.18671563449E+03  0.00000000000E+00 0.  1.
         13    1    4    4    0    0 -0.41848289177E+02  0.23152455680E+02 -0.13272056275E+03  0.14107467273E+03  0.00000000000E+00 0. -1.
        -13    1    3    3    0    0  0.35248065478E+02  0.58436160783E+02 -0.34511909295E+03  0.35180164771E+03  0.00000000000E+00 0. -1.
         13    1    3    3    0    0 -0.21256941030E+02 -0.36456419163E+01 -0.30373278222E+02  0.37251634553E+02  0.00000000000E+00 0.  1.
         21    1    1    2  503  502 -0.45683745451E+01 -0.25356370769E+02  0.29476638581E+02  0.39149556914E+02  0.00000000000E+00 0.  1.
          3    1    1    2  501    0  0.23316519933E+02 -0.71549852766E+00 -0.16790165545E+03  0.16951441809E+03  0.00000000000E+00 0. -1.
<scales pt_clust_5="13000.00000" pt_clust_6="13000.00000" pt_clust_7="13000.00000" pt_clust_8="13000.00000" pt_clust_9="28.39681" pt_clust_10="23.32751"></scales>
<clustering>
<clus scale="   23.328">  1 10  2 -1</clus>
<clus scale="   28.397">  1  9  2 -1</clus>
<clus scale="   84.677">  7  8 -1 -1</clus>
<clus scale="   91.084">  5  6 -1 -1</clus>
<clus scale="   97.538">  2  7  1 -1</clus>
<clus scale="   23.328">  1  5  2 -1</clus>
</clustering>
</event>
<event>
10    2  0.6640105E-006  0.1591176E+03  0.7546771E-02  0.1189932E+00
          2   -1    0    0  503    0 -0.00000000000E+00  0.00000000000E+00  0.95346706865E+03  0.95346706865E+03  0.00000000000E+00 0. -1.
         21   -1    0    0  501  502  0.00000000000E+00 -0.00000000000E+00 -0.81558721642E+02  0.81558721642E+02  0.00000000000E+00 0.  1.
         23    2    1    2    0    0  0.11153683713E+03 -0.14292056077E+02  0.41179986398E+03  0.43635294603E+03  0.90443554956E+02 0.  0.
         23    2    1    2    0    0 -0.17219116805E+03 -0.15923051758E+02  0.30807791118E+03  0.36504428501E+03  0.91880295658E+02 0.  0.
        -11    1    3    3    0    0  0.56452776964E+02 -0.45703627331E+02  0.14568860903E+03  0.16279099600E+03  0.00000000000E+00 0.  1.
         11    1    3    3    0    0  0.55084060164E+02  0.31411571255E+02  0.26611125495E+03  0.27356195003E+03  0.00000000000E+00 0. -1.
        -13    1    4    4    0    0 -0.35906291794E+02 -0.16383183560E+02  0.15722949254E+02  0.42483898447E+02  0.00000000000E+00 0.  1.
         13    1    4    4    0    0 -0.13628487625E+03  0.46013180286E+00  0.29235496193E+03  0.32256038656E+03  0.00000000000E+00 0. -1.
         21    1    1    2  503  502 -0.40663895272E+02 -0.45354266600E+01 -0.73783612014E+01  0.41575986912E+02  0.00000000000E+00 0.  1.
          2    1    1    2  501    0  0.10131822619E+03  0.34750534494E+02  0.15940893305E+03  0.19205257234E+03  0.00000000000E+00 0. -1.
<scales pt_clust_5="13000.00000" pt_clust_6="13000.00000" pt_clust_7="13000.00000" pt_clust_8="13000.00000" pt_clust_9="40.91604" pt_clust_10="95.72668"></scales>
<clustering>
<clus scale="   40.916">  2  9  1 -1</clus>
<clus scale="   90.444">  5  6 -1 -1</clus>
<clus scale="   91.880">  7  8 -1 -1</clus>
<clus scale="   95.727">  2 10  1 -1</clus>
<clus scale="  158.292">  1  5  2 -1</clus>
<clus scale="   40.916">  2  5  1 -1</clus>
</clustering>
</event>
<event>
10    2  0.6640105E-006  0.9473427E+02  0.7546771E-02  0.1292213E+00
          2   -1    0    0  503    0 -0.00000000000E+00  0.00000000000E+00  0.40018484873E+03  0.40018484873E+03  0.00000000000E+00 0. -1.
         21   -1    0    0  501  502  0.00000000000E+00 -0.00000000000E+00 -0.33185206815E+03  0.33185206815E+03  0.00000000000E+00 0. -1.
         23    2    1    2    0    0  0.66774577736E+01 -0.20849202945E+02  0.25490569198E+03  0.27086246821E+03  0.88939795239E+02 0.  0.
         23    2    1    2    0    0 -0.49136578351E+02  0.33746527353E+02  0.11219613395E+03  0.15555310583E+03  0.89752798396E+02 0.  0.
        -13    1    3    3    0    0 -0.41190115838E+02 -0.10083482784E+02  0.11115112832E+03  0.11896585894E+03  0.00000000000E+00 0. -1.
         13    1    3    3    0    0  0.47867573612E+02 -0.10765720161E+02  0.14375456366E+03  0.15189660927E+03  0.00000000000E+00 0.  1.
        -13    1    4    4    0    0 -0.31073027604E+00 -0.27131215676E+02  0.45115152985E+02  0.52645763801E+02  0.00000000000E+00 0.  1.
         13    1    4    4    0    0 -0.48825848075E+02  0.60877743028E+02  0.67080980965E+02  0.10290734203E+03  0.00000000000E+00 0. -1.
         21    1    1    2  503  502  0.19072619007E+02 -0.28920795567E+02 -0.19480153868E+03  0.19785807207E+03  0.00000000000E+00 0. -1.
          2    1    1    2  501    0  0.23386501571E+02  0.16023471160E+02 -0.10396750667E+03  0.10776327077E+03  0.00000000000E+00 0. -1.
<scales pt_clust_5="13000.00000" pt_clust_6="13000.00000" pt_clust_7="13000.00000" pt_clust_8="13000.00000" pt_clust_9="42.14949" pt_clust_10="28.34925"></scales>
<clustering>
<clus scale="   28.349">  2 10  1 -1</clus>
<clus scale="   42.149">  2  9  1 -1</clus>
<clus scale="   88.940">  5  6 -1 -1</clus>
<clus scale="   89.753">  7  8 -1 -1</clus>
<clus scale="   93.964">  1  5  2 -1</clus>
<clus scale="   28.349">  2  5  1 -1</clus>
</clustering>
</event>
<event>
10    2  0.6640105E-006  0.2577198E+03  0.7546771E-02  0.1146670E+00
         -1   -1    0    0    0  501 -0.00000000000E+00  0.00000000000E+00  0.35711220482E+03  0.35711220482E+03  0.00000000000E+00 0.  1.
         21   -1    0    0  503  502  0.00000000000E+00 -0.00000000000E+00 -0.10396503974E+04  0.10396503974E+04  0.00000000000E+00 0.  1.
         23    2    1    2    0    0 -0.42890711746E+02  0.17653138772E+02  0.10871660120E+03  0.14808335535E+03  0.89208375675E+02 0.  0.
         23    2    1    2    0    0  0.99320829277E+02  0.19948034344E+03  0.88488574579E+02  0.25846330727E+03  0.96519525637E+02 0.  0.
        -11    1    4    4    0    0  0.10724940500E+02  0.65868491976E+02 -0.13997192377E+02  0.68188004651E+02  0.00000000000E+00 0. -1.
         11    1    4    4    0    0  0.88595888777E+02  0.13361185146E+03  0.10248576696E+03  0.19027530262E+03  0.00000000000E+00 0.  1.
        -11    1    3    3    0    0  0.12283653871E+01  0.47347032659E+02  0.51608187622E+02  0.70047522531E+02  0.00000000000E+00 0. -1.
         11    1    3    3    0    0 -0.44119077133E+02 -0.29693893887E+02  0.57108413582E+02  0.78035832815E+02  0.00000000000E+00 0.  1.
         21    1    1    2  503  501  0.31747631975E+02  0.10785077934E+03 -0.29121224936E+03  0.31216065883E+03  0.00000000000E+00 0.  1.
         -1    1    1    2    0  502 -0.88177749506E+02 -0.32498426155E+03 -0.58853111898E+03  0.67805528076E+03  0.00000000000E+00 0.  1.
<scales pt_clust_5="13000.00000" pt_clust_6="13000.00000" pt_clust_7="13000.00000" pt_clust_8="13000.00000" pt_clust_9="112.66711" pt_clust_10="238.96330"></scales>
<clustering>
<clus scale="   89.208">  7  8 -1 -1</clus>
<clus scale="   96.520">  5  6 -1 -1</clus>
<clus scale="  100.545">  1  7  2 -1</clus>
<clus scale="  112.667">  2  9  1 -1</clus>
<clus scale="  238.963">  2 10  1 -1</clus>
<clus scale="  112.667">  2  5  1 -1</clus>
</clustering>
</event>
<event>
10    2  0.6640105E-006  0.9763284E+02  0.7546771E-02  0.1285915E+00
         21   -1    0    0  501  502  0.00000000000E+00  0.00000000000E+00  0.96955944727E+02  0.96955944727E+02  0.00000000000E+00 0.  1.
          3   -1    0    0  503    0 -0.00000000000E+00 -0.00000000000E+00 -0.20297939283E+03  0.20297939283E+03  0.00000000000E+00 0. -1.
         23    2    1    2    0    0  0.34147037607E+02  0.24081555300E+01 -0.11612328393E+03  0.15185687376E+03  0.91673734779E+02 0.  0.
         23    2    1    2    0    0 -0.18701525689E+02 -0.15898968827E+02 -0.35674540005E+01  0.96014933265E+02  0.92755681276E+02 0.  0.
        -11    1    4    4    0    0  0.11327291590E+02 -0.47588660219E+02  0.10720247980E+02  0.50079055831E+02  0.00000000000E+00 0.  1.
         11    1    4    4    0    0 -0.30028817278E+02  0.31689691393E+02 -0.14287701980E+02  0.45935877433E+02  0.00000000000E+00 0. -1.
        -11    1    3    3    0    0  0.52234970622E+02 -0.66901094445E+01 -0.12017605782E+03  0.13120798220E+03  0.00000000000E+00 0. -1.
         11    1    3    3    0    0 -0.18087933015E+02  0.90982649744E+01  0.40527738966E+01  0.20648891557E+02  0.00000000000E+00 0.  1.
         21    1    1    2  503  502 -0.22704033029E+02 -0.87243255865E+01  0.15134185387E+02  0.28646649717E+02  0.00000000000E+00 0.  1.
          3    1    1    2  501    0  0.72585211102E+01  0.22215138883E+02 -0.14668955591E+01  0.23416880810E+02  0.00000000000E+00 0. -1.
<scales pt_clust_5="13000.00000" pt_clust_6="13000.00000" pt_clust_7="13000.00000" pt_clust_8="13000.00000" pt_clust_9="21.08055" pt_clust_10="23.37089"></scales>
<clustering>
<clus scale="   23.371">  1 10  2 -1</clus>
<clus scale="   21.081">  1  9  2 -1</clus>
<clus scale="   91.674">  7  8 -1 -1</clus>
<clus scale="   92.756">  5  6 -1 -1</clus>
<clus scale="   96.606">  2  7  1 -1</clus>
<clus scale="   23.371">  1  5  2 -1</clus>
</clustering>
</event>
<event>
10    2  0.6640105E-006  0.2112978E+03  0.7546771E-02  0.1156943E+00
          1   -1    0    0  502    0 -0.00000000000E+00  0.00000000000E+00  0.77377123834E+03  0.77377123834E+03  0.00000000000E+00 0. -1.
         21   -1    0    0  503  502  0.00000000000E+00 -0.00000000000E+00 -0.45986161349E+03  0.45986161349E+03  0.00000000000E+00 0. -1.
         23    2    1    2    0    0  0.80978007769E+02 -0.71043193624E+02  0.22717927284E+03  0.26808181868E+03  0.93020784747E+02 0.  0.
         23    2    1    2    0    0 -0.78884340027E+02 -0.12845772069E+03  0.47324616176E+03  0.50455310503E+03  0.88813180697E+02 0.  0.
        -13    1    4    4    0    0  0.45198717367E+01 -0.72711950916E+02  0.16429422682E+03  0.17972214670E+03  0.00000000000E+00 0. -1.
         13    1    4    4    0    0 -0.83404211764E+02 -0.55745769779E+02  0.30895193494E+03  0.32483095833E+03  0.00000000000E+00 0.  1.
        -13    1    3    3    0    0  0.53091697041E+02 -0.51710186234E+02  0.22163681128E+03  0.23369969570E+03  0.00000000000E+00 0. -1.
         13    1    3    3    0    0  0.27886310728E+02 -0.19333007390E+02  0.55424615659E+01  0.34382122985E+02  0.00000000000E+00 0.  1.
         21    1    1    2  503  501  0.33570576366E+02  0.16644044145E+02 -0.17573255859E+03  0.17968288720E+03  0.00000000000E+00 0. -1.
          1    1    1    2  501    0 -0.35664244107E+02  0.18285687017E+03 -0.21078325116E+03  0.28131504092E+03  0.00000000000E+00 0. -1.
<scales pt_clust_5="13000.00000" pt_clust_6="13000.00000" pt_clust_7="13000.00000" pt_clust_8="13000.00000" pt_clust_9="37.47009" pt_clust_10="191.72626"></scales>
<clustering>
<clus scale="   37.470">  2  9  1 -1</clus>
<clus scale="   88.813">  5  6 -1 -1</clus>
<clus scale="   93.021">  7  8 -1 -1</clus>
<clus scale="  143.135">  1  7  2 -1</clus>
<clus scale="  191.726">  2 10  1 -1</clus>
<clus scale="   37.470">  2  5  1 -1</clus>
</clustering>
</event>
<event>
10    2  0.6640105E-006  0.1168832E+03  0.7546771E-02  0.1252322E+00
          3   -1    0    0  502    0 -0.00000000000E+00  0.00000000000E+00  0.52058317238E+02  0.52058317238E+02  0.00000000000E+00 0. -1.
         21   -1    0    0  503  502  0.00000000000E+00 -0.00000000000E+00 -0.74439255471E+03  0.74439255471E+03  0.00000000000E+00 0.  1.
         23    2    1    2    0    0  0.14078414477E+02  0.62751304647E+02 -0.13876986449E+03  0.17791566888E+03  0.90889944176E+02 0.  0.
         23    2    1    2    0    0  0.89839932640E+02 -0.71853161552E+02 -0.18424059882E+03  0.23114122884E+03  0.79041628881E+02 0.  0.
        -13    1    4    4    0    0  0.85621287964E+02 -0.24922808550E+02 -0.95465809231E+02  0.13063641173E+03  0.00000000000E+00 0.  1.
         13    1    4    4    0    0  0.42186446761E+01 -0.46930353002E+02 -0.88774789585E+02  0.10050481711E+03  0.00000000000E+00 0. -1.
        -13    1    3    3    0    0  0.35832618206E+02  0.81154333948E+01 -0.10234868768E+03  0.10874323269E+03  0.00000000000E+00 0.  1.
         13    1    3    3    0    0 -0.21754203728E+02  0.54635871252E+02 -0.36421176808E+02  0.69172436182E+02  0.00000000000E+00 0. -1.
         21    1    1    2  503  501 -0.16396483052E+02 -0.18002687904E+02 -0.99592138736E+02  0.10252577981E+03  0.00000000000E+00 0.  1.
          3    1    1    2  501    0 -0.87521864066E+02  0.27104544809E+02 -0.26973163543E+03  0.28486819442E+03  0.00000000000E+00 0. -1.
<scales pt_clust_5="13000.00000" pt_clust_6="13000.00000" pt_clust_7="13000.00000" pt_clust_8="13000.00000" pt_clust_9="24.35039" pt_clust_10="96.54720"></scales>
<clustering>
<clus scale="   24.350">  2  9  1 -1</clus>
<clus scale="   79.042">  5  6 -1 -1</clus>
<clus scale="   90.890">  7  8 -1 -1</clus>
<clus scale="   96.547">  2 10  1 -1</clus>
<clus scale="  107.927">  2  5  1 -1</clus>
<clus scale="   24.350">  2  5  1 -1</clus>
</clustering>
</event>
<event>
10    2  0.6640105E-006  0.2490031E+03  0.7546771E-02  0.1144087E+00
          3   -1    0    0  502    0 -0.00000000000E+00  0.00000000000E+00  0.89881258181E+03  0.89881258181E+03  0.00000000000E+00 0. -1.
         21   -1    0    0  503  502  0.00000000000E+00 -0.00000000000E+00 -0.21228906574E+03  0.21228906574E+03  0.00000000000E+00 0. -1.
         23    2    1    2    0    0 -0.66153504445E+02 -0.37453394934E+02  0.43866734428E+03  0.45456671748E+03  0.91775916029E+02 0.  0.
         23    2    1    2    0    0 -0.22298416285E+03  0.22369687049E+02  0.42006491391E+02  0.24548302397E+03  0.90967191645E+02 0.  0.
        -11    1    3    3    0    0  0.22615584158E+02 -0.16409096728E+02  0.10350692323E+03  0.10721196882E+03  0.00000000000E+00 0.  1.
         11    1    3    3    0    0 -0.88769088604E+02 -0.21044298206E+02  0.33516042105E+03  0.34735474866E+03  0.00000000000E+00 0. -1.
        -13    1    4    4    0    0 -0.91827474994E+02 -0.16292616065E+02  0.54765441662E+02  0.10815261487E+03  0.00000000000E+00 0.  1.
         13    1    4    4    0    0 -0.13115668786E+03  0.38662303114E+02 -0.12758950270E+02  0.13733040910E+03  0.00000000000E+00 0. -1.
         21    1    1    2  503  501  0.18384349012E+02  0.82747051875E+01 -0.40304829836E+02  0.45065888903E+02  0.00000000000E+00 0. -1.
          3    1    1    2  501    0  0.27075331829E+03  0.68090026979E+01  0.24615451024E+03  0.36598601721E+03  0.00000000000E+00 0. -1.
<scales pt_clust_5="13000.00000" pt_clust_6="13000.00000" pt_clust_7="13000.00000" pt_clust_8="13000.00000" pt_clust_9="20.16073" pt_clust_10="231.79204"></scales>
<clustering>
<clus scale="   20.161">  2  9  1 -1</clus>
<clus scale="   90.967">  7  8 -1 -1</clus>
<clus scale="   91.776">  5  6 -1 -1</clus>
<clus scale="  118.574">  1  5  2 -1</clus>
<clus scale="  231.792">  2 10  1 -1</clus>
<clus scale="   20.161">  2  5  1 -1</clus>
</clustering>
</event>
<event>
10    2  0.6640105E-006  0.1242470E+03  0.7546771E-02  0.1237511E+00
          1   -1    0    0  502    0 -0.00000000000E+00  0.00000000000E+00  0.28061349271E+03  0.28061349271E+03  0.00000000000E+00 0. -1.
         21   -1    0    0  503  502  0.00000000000E+00 -0.00000000000E+00 -0.11360288545E+04  0.11360288545E+04  0.00000000000E+00 0.  1.
         23    2    1    2    0    0  0.54747929077E+01  0.81107155625E+02  0.24193439306E+03  0.27161866614E+03  0.92930647249E+02 0.  0.
         23    2    1    2    0    0 -0.81001071513E+02 -0.12412496046E+03 -0.58741839821E+03  0.61228313769E+03  0.88668408951E+02 0.  0.
        -11    1    4    4    0    0 -0.67675417342E-01 -0.23716108051E+02 -0.22019083000E+02  0.32361989698E+02  0.00000000000E+00 0. -1.
         11    1    4    4    0    0 -0.80933396096E+02 -0.10040885241E+03 -0.56539931522E+03  0.57992114800E+03  0.00000000000E+00 0.  1.
        -13    1    3    3    0    0 -0.36390259248E+02  0.56282669678E+02  0.90910768348E+02  0.11294581743E+03  0.00000000000E+00 0.  1.
         13    1    3    3    0    0  0.41865052156E+02  0.24824485947E+02  0.15102362471E+03  0.15867284870E+03  0.00000000000E+00 0. -1.
         21    1    1    2  503  501 -0.24650887717E+02 -0.21648461367E+02 -0.77186682137E+02  0.83869577584E+02  0.00000000000E+00 0.  1.
          1    1    1    2  501    0  0.10017716632E+03  0.64666266204E+02 -0.43274467450E+03  0.44887096581E+03  0.00000000000E+00 0. -1.
<scales pt_clust_5="13000.00000" pt_clust_6="13000.00000" pt_clust_7="13000.00000" pt_clust_8="13000.00000" pt_clust_9="32.80735" pt_clust_10="105.70234"></scales>
<clustering>
<clus scale="   32.807">  2  9  1 -1</clus>
<clus scale="   88.668">  5  6 -1 -1</clus>
<clus scale="   92.931">  7  8 -1 -1</clus>
<clus scale="  105.702">  2 10  1 -1</clus>
<clus scale="  121.092">  2  5  1 -1</clus>
<clus scale="   32.807">  2  5  1 -1</clus>
</clustering>
</event>
<event>
10    2  0.6640105E-006  0.1043345E+03  0.7546771E-02  0.1272029E+00
         21   -1    0    0  501  502  0.00000000000E+00  0.00000000000E+00  0.30068825629E+03  0.30068825629E+03  0.00000000000E+00 0. -1.
          1   -1    0    0  503    0 -0.00000000000E+00 -0.00000000000E+00 -0.26497659072E+03  0.26497659072E+03  0.00000000000E+00 0. -1.
         23    2    1    2    0    0 -0.30828064349E+02 -0.46694558598E+02 -0.18166816345E+03  0.21096803358E+03  0.91506492816E+02 0.  0.
         23    2    1    2    0    0 -0.12768914073E+02  0.30441066434E+02  0.46733903393E+02  0.10677537161E+03  0.90151087425E+02 0.  0.
        -11    1    3    3    0    0 -0.25167296994E+02 -0.20002041200E+02 -0.18083381779E+03  0.18366911594E+03  0.00000000000E+00 0. -1.
         11    1    3    3    0    0 -0.56607673547E+01 -0.26692517398E+02 -0.83434565838E+00  0.27298917649E+02  0.00000000000E+00 0.  1.
        -13    1    4    4    0    0 -0.51906170180E+02  0.17960185369E+02  0.26672952538E+02  0.61059521439E+02  0.00000000000E+00 0.  1.
         13    1    4    4    0    0  0.39137256107E+02  0.12480881065E+02  0.20060950855E+02  0.45715850172E+02  0.00000000000E+00 0. -1.
         21    1    1    2  503  502  0.97671153732E+02 -0.34524476185E+02  0.80591812279E+02  0.13125027213E+03  0.00000000000E+00 0. -1.
          1    1    1    2  501    0 -0.54074175309E+02  0.50777968349E+02  0.90054113356E+02  0.11667116969E+03  0.00000000000E+00 0. -1.
<scales pt_clust_5="13000.00000" pt_clust_6="13000.00000" pt_clust_7="13000.00000" pt_clust_8="13000.00000" pt_clust_9="69.02871" pt_clust_10="74.17829"></scales>
<clustering>
<clus scale="   74.178">  1 10  2 -1</clus>
<clus scale="   69.029">  1  9  2 -1</clus>
<clus scale="   90.151">  7  8 -1 -1</clus>
<clus scale="   91.506">  5  6 -1 -1</clus>
<clus scale="  103.148">  1  7  2 -1</clus>
<clus scale="   74.178">  1  5  2 -1</clus>
</clustering>
</event>
<event>
10    2  0.6640105E-006  0.1181606E+03  0.7546771E-02  0.1246557E+00
          1   -1    0    0  503    0 -0.00000000000E+00  0.00000000000E+00  0.62261688453E+03  0.62261688453E+03  0.00000000000E+00 0. -1.
         21   -1    0    0  501  502  0.00000000000E+00 -0.00000000000E+00 -0.14465222621E+03  0.14465222621E+03  0.00000000000E+00 0. -1.
         23    2    1    2    0    0 -0.27777700372E+02  0.67046567428E+02  0.39864312158E+03  0.41540764152E+03  0.91544128175E+02 0.  0.
         23    2    1    2    0    0 -0.13156602369E+02 -0.11109073591E+03 -0.42265349065E+02  0.14987074514E+03  0.90336220464E+02 0.  0.
        -13    1    3    3    0    0  0.15742363057E+02  0.63689383157E+02  0.30657935593E+03  0.31352043156E+03  0.00000000000E+00 0. -1.
         13    1    3    3    0    0 -0.43520063429E+02  0.33571842713E+01  0.92063765654E+02  0.10188720996E+03  0.00000000000E+00 0.  1.
        -13    1    4    4    0    0 -0.19107571803E+02 -0.66474677919E+02 -0.68852048337E+02  0.97593988876E+02  0.00000000000E+00 0. -1.
         13    1    4    4    0    0  0.59509694343E+01 -0.44616057987E+02  0.26586699271E+02  0.52276756265E+02  0.00000000000E+00 0.  1.
         21    1    1    2  503  502 -0.19266873956E+02  0.82491122529E+02  0.40394665957E+02  0.93849489961E+02  0.00000000000E+00 0. -1.
          1    1    1    2  501    0  0.60201176696E+02 -0.38446954052E+02  0.81192219847E+02  0.10814123411E+03  0.00000000000E+00 0. -1.
<scales pt_clust_5="13000.00000" pt_clust_6="13000.00000" pt_clust_7="13000.00000" pt_clust_8="13000.00000" pt_clust_9="74.98510" pt_clust_10="71.43077"></scales>
<clustering>
<clus scale="   71.431">  2 10  1 -1</clus>
<clus scale="   74.985">  2  9  1 -1</clus>
<clus scale="   90.336">  7  8 -1 -1</clus>
<clus scale="   91.544">  5  6 -1 -1</clus>
<clus scale="  117.227">  2  7  1 -1</clus>
<clus scale="   71.431">  2  5  1 -1</clus>
</clustering>
</event>
<event>
10    2  0.6640105E-006  0.1159281E+03  0.7546771E-02  0.1253229E+00
         21   -1    0    0  503  502  0.00000000000E+00  0.00000000000E+00  0.11480624497E+03  0.11480624497E+03  0.00000000000E+00 0. -1.
          2   -1    0    0  502    0 -0.00000000000E+00 -0.00000000000E+00 -0.37459831450E+03  0.37459831450E+03  0.00000000000E+00 0. -1.
         23    2    1    2    0    0 -0.69518790001E+02  0.38366173611E+02 -0.14236595223E+03  0.18986247141E+03  0.97338934940E+02 0.  0.
         23    2    1    2    0    0 -0.29896379409E+02 -0.81629525448E+02 -0.11594608539E+03  0.16981968676E+03  0.88532809556E+02 0.  0.
        -11    1    4    4    0    0  0.22496915970E+02 -0.13349984710E-01 -0.42766566530E+02  0.48322775367E+02  0.00000000000E+00 0.  1.
         11    1    4    4    0    0 -0.52393295379E+02 -0.81616175463E+02 -0.73179518864E+02  0.12149691140E+03  0.00000000000E+00 0. -1.
        -11    1    3    3    0    0  0.90422100299E+01  0.31149900224E+02 -0.88708973770E+02  0.94452950582E+02  0.00000000000E+00 0.  1.
         11    1    3    3    0    0 -0.78561000030E+02  0.72162733872E+01 -0.53656978458E+02  0.95409520828E+02  0.00000000000E+00 0. -1.
         21    1    1    2  503  501  0.18399285680E+02  0.27418687288E+02  0.26731616370E+02  0.42484084548E+02  0.00000000000E+00 0. -1.
          2    1    1    2  501    0  0.81015883730E+02  0.15844664549E+02 -0.28211648280E+02  0.87238316753E+02  0.00000000000E+00 0. -1.
<scales pt_clust_5="13000.00000" pt_clust_6="13000.00000" pt_clust_7="13000.00000" pt_clust_8="13000.00000" pt_clust_9="33.01997" pt_clust_10="91.53773"></scales>
<clustering>
<clus scale="   33.020">  1  9  2 -1</clus>
<clus scale="   88.533">  5  6 -1 -1</clus>
<clus scale="   91.538">  1 10  2 -1</clus>
<clus scale="   97.339">  7  8 -1 -1</clus>
<clus scale="  108.639">  1  5  2 -1</clus>
<clus scale="   33.020">  1  5  2 -1</clus>
</clustering>
</event>
<event>
10    2  0.6640105E-006  0.1011833E+03  0.7546771E-02  0.1278793E+00
         -1   -1    0    0    0  501 -0.00000000000E+00  0.00000000000E+00  0.34845282978E+03  0.34845282978E+03  0.00000000000E+00 0.  1.
         21   -1    0    0  503  502  0.00000000000E+00 -0.00000000000E+00 -0.20117969075E+03  0.20117969075E+03  0.00000000000E+00 0. -1.
         23    2    1    2    0    0  0.42699222516E+02  0.11480262413E+02  0.29534819042E+03  0.31145845365E+03  0.88435257288E+02 0.  0.
         23    2    1    2    0    0 -0.55615367773E+02 -0.44318844109E+01 -0.39334919480E+02  0.11336312484E+03  0.90505532710E+02 0.  0.
        -11    1    3    3    0    0  0.46432569582E+02  0.43014231714E+02  0.15231062040E+03  0.16493857261E+03  0.00000000000E+00 0.  1.
         11    1    3    3    0    0 -0.37333470657E+01 -0.31533969301E+02  0.14303757002E+03  0.14651988104E+03  0.00000000000E+00 0. -1.
        -13    1    4    4    0    0 -0.63775333092E+02  0.20804118977E+02 -0.51119494991E+02  0.84340424742E+02  0.00000000000E+00 0. -1.
         13    1    4    4    0    0  0.81599653196E+01 -0.25236003388E+02  0.11784575511E+02  0.29022700098E+02  0.00000000000E+00 0.  1.
         21    1    1    2  503  501  0.36447496571E+02 -0.87260336524E+01 -0.71512872646E+02  0.80738185661E+02  0.00000000000E+00 0. -1.
         -1    1    1    2    0  502 -0.23531351314E+02  0.16776556507E+01 -0.37227259268E+02  0.44072756389E+02  0.00000000000E+00 0.  1.
<scales pt_clust_5="13000.00000" pt_clust_6="13000.00000" pt_clust_7="13000.00000" pt_clust_8="13000.00000" pt_clust_9="26.50292" pt_clust_10="23.59108"></scales>
<clustering>
<clus scale="   23.591">  2 10  1 -1</clus>
<clus scale="   26.503">  2  9  1 -1</clus>
<clus scale="   88.435">  5  6 -1 -1</clus>
<clus scale="   90.506">  7  8 -1 -1</clus>
<clus scale="   99.336">  1  5  2 -1</clus>
<clus scale="   23.591">  2  5  1 -1</clus>
</clustering>
</event>
<event>
10    2  0.6640105E-006  0.1557575E+03  0.7546771E-02  0.1199971E+00
         21   -1    0    0  501  502  0.00000000000E+00  0.00000000000E+00  0.13309272396E+03  0.13309272396E+03  0.00000000000E+00 0.  1.
         -1   -1    0    0    0  501 -0.00000000000E+00 -0.00000000000E+00 -0.78204043810E+03  0.78204043810E+03  0.00000000000E+00 0.  1.
         23    2    1    2    0    0  0.59183434628E+02 -0.90909384781E+02 -0.26389067901E+03  0.29955906931E+03  0.91269657419E+02 0.  0.
         23    2    1    2    0    0  0.10299163569E+03  0.46900957580E+02 -0.29190954027E+03  0.32599236006E+03  0.90845265525E+02 0.  0.
        -13    1    3    3    0    0  0.26063125094E+02 -0.73019824698E+02 -0.24590887787E+03  0.25784172957E+03  0.00000000000E+00 0.  1.
         13    1    3    3    0    0  0.33120309533E+02 -0.17889560083E+02 -0.17981801133E+02  0.41717339747E+02  0.00000000000E+00 0. -1.
        -13    1    4    4    0    0  0.32267143114E+02  0.33485191835E+02 -0.32380679729E+02  0.56665112871E+02  0.00000000000E+00 0. -1.
         13    1    4    4    0    0  0.70724492578E+02  0.13415765744E+02 -0.25952886054E+03  0.26932724719E+03  0.00000000000E+00 0.  1.
         21    1    1    2  503  502 -0.23551924281E+02  0.19249442493E+02  0.68650250936E+02  0.75087223462E+02  0.00000000000E+00 0. -1.
         -1    1    1    2    0  503 -0.13862314604E+03  0.24758984708E+02 -0.16179774579E+03  0.21449450922E+03  0.00000000000E+00 0.  1.
<scales pt_clust_5="13000.00000" pt_clust_6="13000.00000" pt_clust_7="13000.00000" pt_clust_8="13000.00000" pt_clust_9="30.41766" pt_clust_10="126.52094"></scales>
<clustering>
<clus scale="   30.418">  1  9  2 -1</clus>
<clus scale="   90.845">  7  8 -1 -1</clus>
<clus scale="   91.270">  5  6 -1 -1</clus>
<clus scale="  135.441">  2  5  1 -1</clus>
<clus scale="  126.521">  1 10  2 -1</clus>
<clus scale="   30.418">  1  5  2 -1</clus>
</clustering>
</event>
<event>
10    2  0.6640105E-006  0.1683090E+03  0.7546771E-02  0.1207002E+00
         21   -1    0    0  503  502  0.00000000000E+00  0.00000000000E+00  0.16000564161E+04  0.16000564161E+04  0.00000000000E+00 0. -1.
         -1   -1    0    0    0  501 -0.00000000000E+00 -0.00000000000E+00 -0.61330152447E+02  0.61330152447E+02  0.00000000000E+00 0.  1.
         23    2    1    2    0    0  0.10589407505E+02  0.78777134125E+01  0.11316751068E+03  0.14580926735E+03  0.90990455830E+02 0.  0.
         23    2    1    2    0    0 -0.10603899015E+03  0.80811470464E+02  0.24736408317E+03  0.29551576039E+03  0.91464822766E+02 0.  0.
        -13    1    4    4    0    0 -0.78677228085E+02  0.35885412605E+02  0.72292416409E+02  0.11271229980E+03  0.00000000000E+00 0. -1.
         13    1    4    4    0    0 -0.27361762064E+02  0.44926057859E+02  0.17507166676E+03  0.18280346058E+03  0.00000000000E+00 0.  1.
        -13    1    3    3    0    0  0.23675598862E+02 -0.22615531178E+02  0.10720744348E+03  0.11209563849E+03  0.00000000000E+00 0. -1.
         13    1    3    3    0    0 -0.13086191357E+02  0.30493244590E+02  0.59600672030E+01  0.33713628860E+02  0.00000000000E+00 0.  1.
         21    1    1    2  503  501  0.11159391891E+03 -0.13651833047E+03  0.11475291630E+04  0.11609968291E+04  0.00000000000E+00 0. -1.
         -1    1    1    2    0  502 -0.16144336268E+02  0.47829146598E+02  0.30665506775E+02  0.59064711661E+02  0.00000000000E+00 0.  1.
<scales pt_clust_5="13000.00000" pt_clust_6="13000.00000" pt_clust_7="13000.00000" pt_clust_8="13000.00000" pt_clust_9="141.28733" pt_clust_10="50.48039"></scales>
<clustering>
<clus scale="   50.480">  1 10  2 -1</clus>
<clus scale="   90.990">  7  8 -1 -1</clus>
<clus scale="   91.465">  5  6 -1 -1</clus>
<clus scale="   92.225">  2  7  1 -1</clus>
<clus scale="  141.287">  1  9  2 -1</clus>
<clus scale="   50.480">  1  5  2 -1</clus>
</clustering>
</event>
<event>
10    2  0.6640105E-006  0.1577785E+03  0.7546771E-02  0.1195822E+00
          2   -1    0    0  502    0 -0.00000000000E+00  0.00000000000E+00  0.60656087104E+03  0.60656087104E+03  0.00000000000E+00 0. -1.
         21   -1    0    0  503  502  0.00000000000E+00 -0.00000000000E+00 -0.17895721088E+03  0.17895721088E+03  0.00000000000E+00 0. -1.
         23    2    1    2    0    0 -0.37574258211E+02 -0.75974351649E+02  0.26199166781E+03  0.29844094262E+03  0.11508012532E+03 0.  0.
         23    2    1    2    0    0  0.75340900771E+02  0.11244483308E+03  0.29787169973E+03  0.34020934457E+03  0.93245679868E+02 0.  0.
        -11    1    4    4    0    0  0.77940341041E+02  0.60269783410E+02  0.25241164851E+03  0.27095900771E+03  0.00000000000E+00 0. -1.
         11    1    4    4    0    0 -0.25994402705E+01  0.52175049673E+02  0.45460051218E+02  0.69250336857E+02  0.00000000000E+00 0.  1.
        -13    1    3    3    0    0 -0.17182143696E+02  0.30049222864E+02  0.55063129838E+02  0.65039450522E+02  0.00000000000E+00 0.  1.
         13    1    3    3    0    0 -0.20392114515E+02 -0.10602357451E+03  0.20692853798E+03  0.23340149210E+03  0.00000000000E+00 0. -1.
         21    1    1    2  503  501 -0.12887964850E+02 -0.17827979633E+02 -0.98697608307E+02  0.10111950544E+03  0.00000000000E+00 0. -1.
          2    1    1    2  501    0 -0.24878677710E+02 -0.18642501801E+02 -0.33562099076E+02  0.45748289284E+02  0.00000000000E+00 0. -1.
<scales pt_clust_5="13000.00000" pt_clust_6="13000.00000" pt_clust_7="13000.00000" pt_clust_8="13000.00000" pt_clust_9="21.99856" pt_clust_10="41.75445"></scales>
<clustering>
<clus scale="   21.999">  2  9  1 -1</clus>
<clus scale="   41.754">  2 10  1 -1</clus>
<clus scale="   93.246">  5  6 -1 -1</clus>
<clus scale="  115.080">  7  8 -1 -1</clus>
<clus scale="  142.637">  2  5  1 -1</clus>
<clus scale="   21.999">  2  5  1 -1</clus>
</clustering>
</event>
<event>
10    2  0.6640105E-006  0.1253911E+03  0.7546771E-02  0.1256758E+00
          4   -1    0    0  502    0 -0.00000000000E+00  0.00000000000E+00  0.10944466180E+03  0.10944466180E+03  0.00000000000E+00 0. -1.
         21   -1    0    0  503  502  0.00000000000E+00 -0.00000000000E+00 -0.56726751490E+03  0.56726751490E+03  0.00000000000E+00 0.  1.
         23    2    1    2    0    0 -0.15567087736E+02 -0.37353974333E+01  0.14418011757E+02  0.80789719243E+02  0.77864062685E+02 0.  0.
         23    2    1    2    0    0  0.62109786275E+02  0.42689843112E+02 -0.81294051255E+02  0.14476472356E+03  0.93102385376E+02 0.  0.
        -11    1    4    4    0    0 -0.46163212915E+01  0.43303875110E+02 -0.61129421243E+02  0.75055593817E+02  0.00000000000E+00 0.  1.
         11    1    4    4    0    0  0.66726107567E+02 -0.61403199770E+00 -0.20164630012E+02  0.69709129745E+02  0.00000000000E+00 0. -1.
        -13    1    3    3    0    0 -0.34347111768E+02  0.12806362575E+02  0.33233576154E+02  0.49479264275E+02  0.00000000000E+00 0.  1.
         13    1    3    3    0    0  0.18780024032E+02 -0.16541760008E+02 -0.18815564396E+02  0.31310454969E+02  0.00000000000E+00 0. -1.
         21    1    1    2  503  501 -0.18241096666E+02  0.58247039207E+02 -0.32420250815E+03  0.32989804709E+03  0.00000000000E+00 0.  1.
          4    1    1    2  501    0 -0.28301601873E+02 -0.97201484885E+02 -0.66744305444E+02  0.12125968680E+03  0.00000000000E+00 0. -1.
<scales pt_clust_5="13000.00000" pt_clust_6="13000.00000" pt_clust_7="13000.00000" pt_clust_8="13000.00000" pt_clust_9="61.03651" pt_clust_10="83.99337"></scales>
<clustering>
<clus scale="   61.037">  2  9  1 -1</clus>
<clus scale="   77.864">  7  8 -1 -1</clus>
<clus scale="   80.053">  1  7  2 -1</clus>
<clus scale="   83.993">  2 10  1 -1</clus>
<clus scale="   93.102">  5  6 -1 -1</clus>
<clus scale="   61.037">  2  5  1 -1</clus>
</clustering>
</event>
<event>
10    2  0.6640105E-006  0.1274530E+03  0.7546771E-02  0.1231577E+00
          1   -1    0    0  503    0 -0.00000000000E+00  0.00000000000E+00  0.11321230263E+04  0.11321230263E+04  0.00000000000E+00 0. -1.
         21   -1    0    0  501  502  0.00000000000E+00 -0.00000000000E+00 -0.76624795209E+02  0.76624795209E+02  0.00000000000E+00 0.  1.
         23    2    1    2    0    0 -0.99181594573E+02 -0.19030768612E+02  0.54084107600E+03  0.55778182995E+03  0.91718817457E+02 0.  0.
         23    2    1    2    0    0  0.65863147372E+02 -0.83748433020E+02  0.43136100928E+03  0.45347768199E+03  0.90652818594E+02 0.  0.
        -11    1    4    4    0    0  0.51973375369E+02 -0.13646642301E+02  0.29155241970E+03  0.29646294208E+03  0.00000000000E+00 0. -1.
         11    1    4    4    0    0  0.13889772003E+02 -0.70101790720E+02  0.13980858958E+03  0.15701473991E+03  0.00000000000E+00 0.  1.
        -13    1    3    3    0    0 -0.92033960816E+01 -0.40999890105E+02  0.21315906020E+03  0.21726131371E+03  0.00000000000E+00 0.  1.
         13    1    3    3    0    0 -0.89978198492E+02  0.21969121493E+02  0.32768201580E+03  0.34052051624E+03  0.00000000000E+00 0. -1.
         21    1    1    2  503  502 -0.44539581771E+01 -0.32585599145E+02 -0.22460794539E+01  0.32965192067E+02  0.00000000000E+00 0.  1.
          1    1    1    2  501    0  0.37772405379E+02  0.13536480078E+03  0.85542225309E+02  0.16452311755E+03  0.00000000000E+00 0. -1.
<scales pt_clust_5="13000.00000" pt_clust_6="13000.00000" pt_clust_7="13000.00000" pt_clust_8="13000.00000" pt_clust_9="32.88858" pt_clust_10="118.77156"></scales>
<clustering>
<clus scale="   32.889">  2  9  1 -1</clus>
<clus scale="   90.653">  5  6 -1 -1</clus>
<clus scale="   91.719">  7  8 -1 -1</clus>
<clus scale="  118.772">  2 10  1 -1</clus>
<clus scale="  126.688">  2  5  1 -1</clus>
<clus scale="   32.889">  2  5  1 -1</clus>
</clustering>
</event>
<event>
10    2  0.6640105E-006  0.1255094E+03  0.7546771E-02  0.1235750E+00
         21   -1    0    0  503  502  0.00000000000E+00  0.00000000000E+00  0.24685676940E+03  0.24685676940E+03  0.00000000000E+00 0.  1.
         -1   -1    0    0    0  501 -0.00000000000E+00 -0.00000000000E+00 -0.35573145593E+03  0.35573145593E+03  0.00000000000E+00 0.  1.
         23    2    1    2    0    0  0.41540507313E+02 -0.75449395420E+02 -0.23583653153E+03  0.26595669720E+03  0.87726108786E+02 0.  0.
         23    2    1    2    0    0 -0.13521568378E+02  0.81870665485E+02 -0.38213387796E+02  0.13025019019E+03  0.92839702493E+02 0.  0.
        -13    1    4    4    0    0 -0.24756652554E+02 -0.12705504598E+02 -0.54914098993E+00  0.27832054337E+02  0.00000000000E+00 0.  1.
         13    1    4    4    0    0  0.11235084176E+02  0.94576170083E+02 -0.37664246806E+02  0.10241813585E+03  0.00000000000E+00 0. -1.
        -13    1    3    3    0    0  0.13833283530E+02 -0.51149276222E+02 -0.21921561630E+03  0.22552847851E+03  0.00000000000E+00 0.  1.
         13    1    3    3    0    0  0.27707223784E+02 -0.24300119198E+02 -0.16620915231E+02  0.40428218684E+02  0.00000000000E+00 0. -1.
         21    1    1    2  503  501 -0.18807805907E+02 -0.58223460508E+02  0.47434061065E+02  0.77418958050E+02  0.00000000000E+00 0.  1.
         -1    1    1    2    0  502 -0.92111330288E+01  0.51802190442E+02  0.11774117173E+03  0.12896237989E+03  0.00000000000E+00 0.  1.
<scales pt_clust_5="13000.00000" pt_clust_6="13000.00000" pt_clust_7="13000.00000" pt_clust_8="13000.00000" pt_clust_9="39.71250" pt_clust_10="52.61475"></scales>
<clustering>
<clus scale="   52.615">  1 10  2 -1</clus>
<clus scale="   39.712">  1  9  2 -1</clus>
<clus scale="   87.726">  7  8 -1 -1</clus>
<clus scale="   92.840">  5  6 -1 -1</clus>
<clus scale="  121.776">  2  7  1 -1</clus>
<clus scale="   52.615">  1  5  2 -1</clus>
</clustering>
</event>
<event>
10    2  0.6640105E-006  0.9451132E+02  0.7546771E-02  0.1293381E+00
          1   -1    0    0  503    0 -0.00000000000E+00  0.00000000000E+00  0.15770315653E+03  0.15770315653E+03  0.00000000000E+00 0. -1.
         21   -1    0    0  501  502  0.00000000000E+00 -0.00000000000E+00 -0.27029083112E+03  0.27029083112E+03  0.00000000000E+00 0. -1.
         23    2    1    2    0    0 -0.46771918904E+01 -0.34012783871E+01  0.75246917550E+02  0.12033920674E+03  0.93733565279E+02 0.  0.
         23    2    1    2    0    0  0.94054244352E+01 -0.40821504386E+02  0.17095801237E+01  0.10091951424E+03  0.91798521022E+02 0.  0.
        -11    1    3    3    0    0 -0.47822730295E+02 -0.11906289910E+02  0.32660637713E+02  0.59122673553E+02  0.00000000000E+00 0.  1.
         11    1    3    3    0    0  0.43145538405E+02  0.85050115228E+01  0.42586279837E+02  0.61216533188E+02  0.00000000000E+00 0. -1.
        -13    1    4    4    0    0  0.46077443518E+02 -0.41833478595E+02  0.10700131548E+02  0.63147949671E+02  0.00000000000E+00 0.  1.
         13    1    4    4    0    0 -0.36672019082E+02  0.10119742086E+01 -0.89905514242E+01  0.37771564573E+02  0.00000000000E+00 0. -1.
         21    1    1    2  503  502 -0.10731183777E+02 -0.17496688175E+02 -0.46580190576E+02  0.50901930773E+02  0.00000000000E+00 0. -1.
          1    1    1    2  501    0  0.60029512320E+01  0.61719470948E+02 -0.14296398168E+03  0.15583333590E+03  0.00000000000E+00 0. -1.
<scales pt_clust_5="13000.00000" pt_clust_6="13000.00000" pt_clust_7="13000.00000" pt_clust_8="13000.00000" pt_clust_9="20.52541" pt_clust_10="49.93609"></scales>
<clustering>
<clus scale="   20.525">  2  9  1 -1</clus>
<clus scale="   49.936">  2 10  1 -1</clus>
<clus scale="   91.799">  7  8 -1 -1</clus>
<clus scale="   92.593">  2  7  1 -1</clus>
<clus scale="   93.734">  5  6 -1 -1</clus>
<clus scale="   20.525">  2  5  1 -1</clus>
</clustering>
</event>
<event>
10    2  0.6640105E-006  0.1271815E+03  0.7546771E-02  0.1232112E+00
         -1   -1    0    0    0  501 -0.00000000000E+00  0.00000000000E+00  0.21650467918E+03  0.21650467918E+03  0.00000000000E+00 0.  1.
         21   -1    0    0  503  502  0.00000000000E+00 -0.00000000000E+00 -0.17069762202E+03  0.17069762202E+03  0.00000000000E+00 0.  1.
         23    2    1    2    0    0  0.65648823767E+02  0.94964048773E+02  0.74258727231E+02  0.16497896360E+03  0.91519185081E+02 0.  0.
         23    2    1    2    0    0 -0.27595950663E+02 -0.56828371467E+02  0.25454012679E+00  0.10997237135E+03  0.90015872898E+02 0.  0.
        -13    1    4    4    0    0 -0.96532705377E+01  0.22635383170E+02 -0.12359472347E+02  0.27537297617E+02  0.00000000000E+00 0.  1.
         13    1    4    4    0    0 -0.17942680125E+02 -0.79463754637E+02  0.12614012474E+02  0.82435073735E+02  0.00000000000E+00 0. -1.
        -13    1    3    3    0    0  0.14969419839E+02  0.92004069603E+02  0.30855013330E+02  0.98187902520E+02  0.00000000000E+00 0.  1.
         13    1    3    3    0    0  0.50679403929E+02  0.29599791706E+01  0.43403713902E+02  0.66791061076E+02  0.00000000000E+00 0. -1.
         21    1    1    2  503  501 -0.44121115454E+02  0.50240908886E+01  0.18406604274E+02  0.48069921979E+02  0.00000000000E+00 0.  1.
         -1    1    1    2    0  502  0.60682423497E+01 -0.43159768196E+02 -0.47112814479E+02  0.64181044274E+02  0.00000000000E+00 0.  1.
<scales pt_clust_5="13000.00000" pt_clust_6="13000.00000" pt_clust_7="13000.00000" pt_clust_8="13000.00000" pt_clust_9="43.34220" pt_clust_10="43.58428"></scales>
<clustering>
<clus scale="   43.584">  2 10  1 -1</clus>
<clus scale="   43.342">  1  9  2 -1</clus>
<clus scale="   90.016">  5  6 -1 -1</clus>
<clus scale="   91.519">  7  8 -1 -1</clus>
<clus scale="  126.104">  2  5  1 -1</clus>
<clus scale="   43.584">  2  5  1 -1</clus>
</clustering>
</event>
<event>
10    2  0.6640105E-006  0.9912854E+02  0.7546771E-02  0.1282655E+00
         21   -1    0    0  503  502  0.00000000000E+00  0.00000000000E+00  0.16645392771E+03  0.16645392771E+03  0.00000000000E+00 0.  1.
          1   -1    0    0  502    0 -0.00000000000E+00 -0.00000000000E+00 -0.21684908104E+03  0.21684908104E+03  0.00000000000E+00 0. -1.
         23    2    1    2    0    0  0.26386248256E+02  0.75074340567E+01 -0.75758591898E+02  0.12304525813E+03  0.92995567842E+02 0.  0.
         23    2    1    2    0    0 -0.35321555547E+02  0.64968527594E+02 -0.33333318193E+02  0.12262744759E+03  0.91966618603E+02 0.  0.
        -11    1    3    3    0    0 -0.32864397115E+02 -0.36733203955E+01 -0.11712642304E+02  0.35082016336E+02  0.00000000000E+00 0. -1.
         11    1    3    3    0    0  0.59250645371E+02  0.11180754452E+02 -0.64045949594E+02  0.87963241791E+02  0.00000000000E+00 0.  1.
        -11    1    4    4    0    0  0.89456460324E+01  0.28131491023E+02  0.26436941548E+02  0.39627228625E+02  0.00000000000E+00 0.  1.
         11    1    4    4    0    0 -0.44267201579E+02  0.36837036571E+02 -0.59770259741E+02  0.83000218967E+02  0.00000000000E+00 0. -1.
         21    1    1    2  503  501  0.34714761886E+02 -0.81072695349E+01  0.58246443159E+02  0.68289755108E+02  0.00000000000E+00 0.  1.
          1    1    1    2  501    0 -0.25779454595E+02 -0.64368692116E+02  0.45031361046E+00  0.69340547923E+02  0.00000000000E+00 0. -1.
<scales pt_clust_5="13000.00000" pt_clust_6="13000.00000" pt_clust_7="13000.00000" pt_clust_8="13000.00000" pt_clust_9="35.64888" pt_clust_10="68.56324"></scales>
<clustering>
<clus scale="   35.649">  1  9  2 -1</clus>
<clus scale="   68.563">  1 10  2 -1</clus>
<clus scale="   91.967">  7  8 -1 -1</clus>
<clus scale="   92.996">  5  6 -1 -1</clus>
<clus scale="   98.164">  1  7  2 -1</clus>
<clus scale="   35.649">  1  5  2 -1</clus>
</clustering>
</event>
<event>
10    2  0.6640105E-006  0.1047645E+03  0.7546771E-02  0.1273079E+00
         -1   -1    0    0    0  501 -0.00000000000E+00  0.00000000000E+00  0.15662566482E+03  0.15662566482E+03  0.00000000000E+00 0.  1.
         21   -1    0    0  503  502  0.00000000000E+00 -0.00000000000E+00 -0.19582305657E+03  0.19582305657E+03  0.00000000000E+00 0. -1.
         23    2    1    2    0    0  0.15670883807E+02  0.29438364464E+02  0.90325403546E+02  0.13662349754E+03  0.96928363512E+02 0.  0.
         23    2    1    2    0    0 -0.26088696671E+02 -0.62921851455E+02 -0.69685980752E+02  0.13373275810E+03  0.91588946890E+02 0.  0.
        -13    1    4    4    0    0 -0.80678819119E+01 -0.28576045666E+02 -0.86503108749E+02  0.91457470595E+02  0.00000000000E+00 0. -1.
         13    1    4    4    0    0 -0.18020814759E+02 -0.34345805790E+02  0.16817127997E+02  0.42275287509E+02  0.00000000000E+00 0.  1.
        -13    1    3    3    0    0  0.58506472949E+01  0.61855790104E+02  0.79836616005E+02  0.10116449030E+03  0.00000000000E+00 0.  1.
         13    1    3    3    0    0  0.98202365117E+01 -0.32417425639E+02  0.10488787541E+02  0.35459007238E+02  0.00000000000E+00 0. -1.
         21    1    1    2  503  501  0.25957095690E+02  0.96624902503E+01 -0.27563934880E+02  0.39075632311E+02  0.00000000000E+00 0. -1.
         -1    1    1    2    0  502 -0.15539282826E+02  0.23820996740E+02 -0.32272879667E+02  0.43016833431E+02  0.00000000000E+00 0.  1.
<scales pt_clust_5="13000.00000" pt_clust_6="13000.00000" pt_clust_7="13000.00000" pt_clust_8="13000.00000" pt_clust_9="27.69719" pt_clust_10="27.74597"></scales>
<clustering>
<clus scale="   27.697">  2  9  1 -1</clus>
<clus scale="   27.746">  2 10  1 -1</clus>
<clus scale="   91.589">  5  6 -1 -1</clus>
<clus scale="   96.928">  7  8 -1 -1</clus>
<clus scale="   99.845">  2  5  1 -1</clus>
<clus scale="   27.697">  2  5  1 -1</clus>
</clustering>
</event>
<event>
10    2  0.6640105E-006  0.1755262E+03  0.7546771E-02  0.1173144E+00
          1   -1    0    0  503    0 -0.00000000000E+00  0.00000000000E+00  0.80482490450E+03  0.80482490450E+03  0.00000000000E+00 0. -1.
         21   -1    0    0  501  502  0.00000000000E+00 -0.00000000000E+00 -0.65237482347E+02  0.65237482347E+02  0.00000000000E+00 0. -1.
         23    2    1    2    0    0  0.13770557125E+03  0.76128184683E+02  0.38854863534E+03  0.42761002349E+03  0.84391737202E+02 0.  0.
         23    2    1    2    0    0 -0.12387152061E+03 -0.57488355867E+02  0.24121190707E+03  0.29196683887E+03  0.91719061309E+02 0.  0.
        -11    1    3    3    0    0  0.10023308376E+03  0.68552957402E+02  0.35990578490E+03  0.37983990450E+03  0.00000000000E+00 0. -1.
         11    1    3    3    0    0  0.37472487485E+02  0.75752272808E+01  0.28642850445E+02  0.47770118989E+02  0.00000000000E+00 0.  1.
        -11    1    4    4    0    0 -0.63206251036E+02 -0.42682023377E+02  0.50953680620E+02  0.91722749949E+02  0.00000000000E+00 0.  1.
         11    1    4    4    0    0 -0.60665269571E+02 -0.14806332490E+02  0.19025822645E+03  0.20024408892E+03  0.00000000000E+00 0. -1.
         21    1    1    2  503  502  0.41032208791E+02 -0.13640345752E+02  0.70835316550E+02  0.82990019046E+02  0.00000000000E+00 0. -1.
          1    1    1    2  501    0 -0.54866259431E+02 -0.49994830644E+01  0.38991563187E+02  0.67495505441E+02  0.00000000000E+00 0. -1.
<scales pt_clust_5="13000.00000" pt_clust_6="13000.00000" pt_clust_7="13000.00000" pt_clust_8="13000.00000" pt_clust_9="43.24004" pt_clust_10="52.21052"></scales>
<clustering>
<clus scale="   43.240">  1  9  2 -1</clus>
<clus scale="   52.211">  2 10  1 -1</clus>
<clus scale="   84.392">  5  6 -1 -1</clus>
<clus scale="   91.719">  7  8 -1 -1</clus>
<clus scale="  171.811">  1  5  2 -1</clus>
<clus scale="   52.211">  2  5  1 -1</clus>
</clustering>
</event>
<event>
10    2  0.6640105E-006  0.2546271E+03  0.7546771E-02  0.1116253E+00
         -2   -1    0    0    0  501 -0.00000000000E+00  0.00000000000E+00  0.36374656219E+03  0.36374656219E+03  0.00000000000E+00 0.  1.
         21   -1    0    0  503  502  0.00000000000E+00 -0.00000000000E+00 -0.11945703464E+04  0.11945703464E+04  0.00000000000E+00 0. -1.
         23    2    1    2    0    0 -0.63965245560E+02  0.16702067060E+03 -0.27005949398E+03  0.33662361936E+03  0.91629000734E+02 0.  0.
         23    2    1    2    0    0  0.25989303810E+03 -0.23370870933E+02  0.23432651772E+03  0.36093054584E+03  0.85272229665E+02 0.  0.
        -13    1    3    3    0    0 -0.47731546328E+02  0.48581933525E+02 -0.44538761024E+02  0.81376937847E+02  0.00000000000E+00 0.  1.
         13    1    3    3    0    0 -0.16233699232E+02  0.11843873707E+03 -0.22552073295E+03  0.25524668151E+03  0.00000000000E+00 0. -1.
        -13    1    4    4    0    0  0.20022830351E+03 -0.24456152306E+02  0.22207493832E+03  0.30001125836E+03  0.00000000000E+00 0.  1.
         13    1    4    4    0    0  0.59664734588E+02  0.10852813731E+01  0.12251579398E+02  0.60919287478E+02  0.00000000000E+00 0. -1.
         21    1    1    2  503  501 -0.35593611521E+02  0.54206865159E+02 -0.26288165385E+03  0.27076198652E+03  0.00000000000E+00 0. -1.
         -2    1    1    2    0  502 -0.16033418102E+03 -0.19785666482E+03 -0.53220915408E+03  0.59000075687E+03  0.00000000000E+00 0.  1.
<scales pt_clust_5="13000.00000" pt_clust_6="13000.00000" pt_clust_7="13000.00000" pt_clust_8="13000.00000" pt_clust_9="64.84820" pt_clust_10="239.92417"></scales>
<clustering>
<clus scale="   64.848">  2  9  1 -1</clus>
<clus scale="   85.272">  7  8 -1 -1</clus>
<clus scale="   91.629">  5  6 -1 -1</clus>
<clus scale="  219.641">  1  5  2 -1</clus>
<clus scale="  239.924">  2 10  1 -1</clus>
<clus scale="   64.848">  2  5  1 -1</clus>
</clustering>
</event>
<event>
10    2  0.6640105E-006  0.2082430E+03  0.7546771E-02  0.1143387E+00
         21   -1    0    0  503  502  0.00000000000E+00  0.00000000000E+00  0.12129589516E+04  0.12129589516E+04  0.00000000000E+00 0. -1.
          4   -1    0    0  502    0 -0.00000000000E+00 -0.00000000000E+00 -0.68881197518E+02  0.68881197518E+02  0.00000000000E+00 0. -1.
         23    2    1    2    0    0 -0.14072676540E+03 -0.11573828687E+03  0.22246656489E+03  0.30299376507E+03  0.95469762908E+02 0.  0.
         23    2    1    2    0    0  0.13838441557E+03  0.13178308720E+03  0.50123755525E+03  0.54406018629E+03  0.90804025072E+02 0.  0.
        -13    1    3    3    0    0 -0.11957099307E+02 -0.24194213371E+02 -0.35608263833E+01  0.27221529513E+02  0.00000000000E+00 0.  1.
         13    1    3    3    0    0 -0.12876966609E+03 -0.91544073504E+02  0.22602739128E+03  0.27577223556E+03  0.00000000000E+00 0. -1.
        -13    1    4    4    0    0  0.23762017248E+02  0.39331780882E+01  0.14950843708E+02  0.28348387629E+02  0.00000000000E+00 0.  1.
         13    1    4    4    0    0  0.11462239833E+03  0.12784990911E+03  0.48628671154E+03  0.51571179866E+03  0.00000000000E+00 0. -1.
         21    1    1    2  503  501 -0.40641521646E+00  0.40279818302E+02  0.28937894640E+03  0.29216913518E+03  0.00000000000E+00 0.  1.
          4    1    1    2  501    0  0.27487650448E+01 -0.56324618625E+02  0.13099468759E+03  0.14261706262E+03  0.00000000000E+00 0. -1.
<scales pt_clust_5="13000.00000" pt_clust_6="13000.00000" pt_clust_7="13000.00000" pt_clust_8="13000.00000" pt_clust_9="40.28187" pt_clust_10="50.42085"></scales>
<clustering>
<clus scale="   40.282">  1  9  2 -1</clus>
<clus scale="   50.421">  1 10  2 -1</clus>
<clus scale="   90.804">  7  8 -1 -1</clus>
<clus scale="   95.470">  5  6 -1 -1</clus>
<clus scale="  206.146">  1  7  2 -1</clus>
<clus scale="   40.282">  1  5  2 -1</clus>
</clustering>
</event>
<event>
10    2  0.6640105E-006  0.1050312E+03  0.7546771E-02  0.1272799E+00
         21   -1    0    0  503  502  0.00000000000E+00  0.00000000000E+00  0.86600088425E+02  0.86600088425E+02  0.00000000000E+00 0.  1.
         -2   -1    0    0    0  501 -0.00000000000E+00 -0.00000000000E+00 -0.25670861616E+03  0.25670861616E+03  0.00000000000E+00 0.  1.
         23    2    1    2    0    0  0.26584000843E+02  0.17222103806E+02 -0.80365181309E+02  0.12680578802E+03  0.92832297986E+02 0.  0.
         23    2    1    2    0    0 -0.49685889968E+02 -0.43524169256E+02 -0.11133477197E+03  0.15578549674E+03  0.86663998140E+02 0.  0.
        -11    1    4    4    0    0  0.29105191897E+01 -0.48642170506E+02 -0.25526464530E+02  0.55010292354E+02  0.00000000000E+00 0. -1.
         11    1    4    4    0    0 -0.52596409158E+02  0.51180012506E+01 -0.85808307443E+02  0.10077520439E+03  0.00000000000E+00 0.  1.
        -13    1    3    3    0    0  0.49705506448E+02 -0.51234296569E+01 -0.12199093695E+02  0.51436415016E+02  0.00000000000E+00 0.  1.
         13    1    3    3    0    0 -0.23121505605E+02  0.22345533463E+02 -0.68166087613E+02  0.75369373009E+02  0.00000000000E+00 0. -1.
         21    1    1    2  503  501 -0.76030041033E+01  0.23551289601E+02  0.15767618705E+02  0.29344279049E+02  0.00000000000E+00 0.  1.
         -2    1    1    2    0  502  0.30704893228E+02  0.27507758487E+01  0.58238068374E+01  0.31373140774E+02  0.00000000000E+00 0.  1.
<scales pt_clust_5="13000.00000" pt_clust_6="13000.00000" pt_clust_7="13000.00000" pt_clust_8="13000.00000" pt_clust_9="24.74811" pt_clust_10="30.06738"></scales>
<clustering>
<clus scale="   24.748">  1  9  2 -1</clus>
<clus scale="   30.067">  1 10  2 -1</clus>
<clus scale="   86.664">  5  6 -1 -1</clus>
<clus scale="   92.832">  7  8 -1 -1</clus>
<clus scale="   99.621">  1  5  2 -1</clus>
<clus scale="   24.748">  1  5  2 -1</clus>
</clustering>
</event>
<event>
10    2  0.6640105E-006  0.1224045E+03  0.7546771E-02  0.1239556E+00
         -4   -1    0    0    0  501 -0.00000000000E+00  0.00000000000E+00  0.72107834455E+03  0.72107834455E+03  0.00000000000E+00 0.  1.
         21   -1    0    0  503  502  0.00000000000E+00 -0.00000000000E+00 -0.14809484111E+03  0.14809484111E+03  0.00000000000E+00 0. -1.
         23    2    1    2    0    0 -0.61529780119E+02  0.64074982270E+02  0.50990804380E+03  0.52579796413E+03  0.92551438442E+02 0.  0.
         23    2    1    2    0    0  0.29444292362E+02 -0.57082206646E+02  0.17549461904E+03  0.20799858196E+03  0.91321980469E+02 0.  0.
        -11    1    3    3    0    0 -0.77582163864E+02  0.25325673779E+02  0.39816110074E+03  0.40643897948E+03  0.00000000000E+00 0.  1.
         11    1    3    3    0    0  0.16052383745E+02  0.38749308491E+02  0.11174694306E+03  0.11935898465E+03  0.00000000000E+00 0. -1.
        -13    1    4    4    0    0  0.49074859007E+02 -0.36777235178E+01  0.49739951939E+02  0.69970924360E+02  0.00000000000E+00 0. -1.
         13    1    4    4    0    0 -0.19630566644E+02 -0.53404483128E+02  0.12575466710E+03  0.13802765760E+03  0.00000000000E+00 0.  1.
         21    1    1    2  503  501 -0.14883424735E+02  0.15320520880E+02 -0.48372943167E+02  0.52878883522E+02  0.00000000000E+00 0. -1.
         -4    1    1    2    0  502  0.46968912492E+02 -0.22313296505E+02 -0.64046216228E+02  0.82497756058E+02  0.00000000000E+00 0.  1.
<scales pt_clust_5="13000.00000" pt_clust_6="13000.00000" pt_clust_7="13000.00000" pt_clust_8="13000.00000" pt_clust_9="21.35965" pt_clust_10="37.37365"></scales>
<clustering>
<clus scale="   21.360">  2  9  1 -1</clus>
<clus scale="   37.374">  2 10  1 -1</clus>
<clus scale="   91.322">  7  8 -1 -1</clus>
<clus scale="   92.551">  5  6 -1 -1</clus>
<clus scale="  121.478">  2  7  1 -1</clus>
<clus scale="   21.360">  2  5  1 -1</clus>
</clustering>
</event>
<event>
10    2  0.6640105E-006  0.1035932E+03  0.7546771E-02  0.1272994E+00
          1   -1    0    0  503    0 -0.00000000000E+00  0.00000000000E+00  0.99628409032E+03  0.99628409032E+03  0.00000000000E+00 0. -1.
         21   -1    0    0  501  502  0.00000000000E+00 -0.00000000000E+00 -0.35563633626E+02  0.35563633626E+02  0.00000000000E+00 0.  1.
         23    2    1    2    0    0 -0.21420959377E+02 -0.34883868956E+02  0.37856344184E+03  0.39228221333E+03  0.94336173250E+02 0.  0.
         23    2    1    2    0    0  0.51086033118E+02 -0.12765880689E+01  0.28167690181E+03  0.30136436561E+03  0.94165765473E+02 0.  0.
        -11    1    3    3    0    0  0.24884703520E+02  0.36676081702E+01  0.32937851576E+02  0.41443960783E+02  0.00000000000E+00 0.  1.
         11    1    3    3    0    0 -0.46305662897E+02 -0.38551477126E+02  0.34562559027E+03  0.35083825255E+03  0.00000000000E+00 0. -1.
        -13    1    4    4    0    0  0.63963548001E+02 -0.20061436149E+02  0.26443294797E+03  0.27279769182E+03  0.00000000000E+00 0.  1.
         13    1    4    4    0    0 -0.12877514883E+02  0.18784848080E+02  0.17243953846E+02  0.28566673786E+02  0.00000000000E+00 0. -1.
         21    1    1    2  503  502 -0.24323462653E+02 -0.55072360997E+02  0.15633365347E+03  0.16752554130E+03  0.00000000000E+00 0.  1.
          1    1    1    2  501    0 -0.53416110872E+01  0.91232818021E+02  0.14414645957E+03  0.17067560371E+03  0.00000000000E+00 0. -1.
<scales pt_clust_5="13000.00000" pt_clust_6="13000.00000" pt_clust_7="13000.00000" pt_clust_8="13000.00000" pt_clust_9="60.20462" pt_clust_10="81.45039"></scales>
<clustering>
<clus scale="   60.205">  1  9  2 -1</clus>
<clus scale="   81.450">  2 10  1 -1</clus>
<clus scale="   94.166">  7  8 -1 -1</clus>
<clus scale="   94.336">  5  6 -1 -1</clus>
<clus scale="  103.438">  2  7  1 -1</clus>
<clus scale="   81.450">  2  5  1 -1</clus>
</clustering>
</event>
<event>
10    2  0.6640105E-006  0.1099606E+03  0.7546771E-02  0.1265837E+00
         21   -1    0    0  503  502  0.00000000000E+00  0.00000000000E+00  0.25353014428E+03  0.25353014428E+03  0.00000000000E+00 0. -1.
          2   -1    0    0  502    0 -0.00000000000E+00 -0.00000000000E+00 -0.66695354869E+03  0.66695354869E+03  0.00000000000E+00 0. -1.
         23    2    1    2    0    0  0.61488040294E+02  0.45827728585E+01 -0.53843295328E+03  0.54978083793E+03  0.92450763450E+02 0.  0.
         23    2    1    2    0    0  0.58020639481E+01 -0.12932928853E+03  0.90074659547E+02  0.17662912799E+03  0.79527829988E+02 0.  0.
        -13    1    3    3    0    0  0.31105404464E+02 -0.42987351353E+02 -0.30788242117E+03  0.31242126020E+03  0.00000000000E+00 0.  1.
         13    1    3    3    0    0  0.30382635830E+02  0.47570124212E+02 -0.23055053212E+03  0.23735957772E+03  0.00000000000E+00 0. -1.
        -13    1    4    4    0    0 -0.35517148793E+02 -0.71148511734E+02  0.37068243280E+02  0.87736156972E+02  0.00000000000E+00 0. -1.
         13    1    4    4    0    0  0.41319212741E+02 -0.58180776798E+02  0.53006416267E+02  0.88892971015E+02  0.00000000000E+00 0.  1.
         21    1    1    2  503  501 -0.31315996922E+00  0.57216513841E+02  0.72025047449E+02  0.91986058646E+02  0.00000000000E+00 0. -1.
          2    1    1    2  501    0 -0.66976944273E+02  0.67530001832E+02 -0.37090158118E+02  0.10208766841E+03  0.00000000000E+00 0. -1.
<scales pt_clust_5="13000.00000" pt_clust_6="13000.00000" pt_clust_7="13000.00000" pt_clust_8="13000.00000" pt_clust_9="57.21737" pt_clust_10="103.13024"></scales>
<clustering>
<clus scale="   57.217">  1  9  2 -1</clus>
<clus scale="   79.528">  7  8 -1 -1</clus>
<clus scale="   92.451">  5  6 -1 -1</clus>
<clus scale="  103.130">  1 10  2 -1</clus>
<clus scale="   99.342">  1  7  2 -1</clus>
<clus scale="   57.217">  1  5  2 -1</clus>
</clustering>
</event>
<event>
10    2  0.6640105E-006  0.1064503E+03  0.7546771E-02  0.1268441E+00
          2   -1    0    0  502    0 -0.00000000000E+00  0.00000000000E+00  0.10890185139E+03  0.10890185139E+03  0.00000000000E+00 0. -1.
         21   -1    0    0  503  502  0.00000000000E+00 -0.00000000000E+00 -0.26380738309E+03  0.26380738309E+03  0.00000000000E+00 0. -1.
         23    2    1    2    0    0  0.39693909344E+02 -0.86776257314E+01 -0.43741518735E+02  0.11058095883E+03  0.93080182460E+02 0.  0.
         23    2    1    2    0    0 -0.56942070250E+02  0.47144528348E+02 -0.10149640895E+03  0.15470882770E+03  0.90378617048E+02 0.  0.
        -13    1    4    4    0    0 -0.13506304216E+02 -0.15265765045E+02  0.75785398088E+01  0.21746220399E+02  0.00000000000E+00 0.  1.
         13    1    4    4    0    0 -0.43435766034E+02  0.62410293393E+02 -0.10907494876E+03  0.13296260730E+03  0.00000000000E+00 0. -1.
        -13    1    3    3    0    0  0.67056013260E+02 -0.65665795077E+01 -0.11686063059E+02  0.68382694818E+02  0.00000000000E+00 0.  1.
         13    1    3    3    0    0 -0.27362103916E+02 -0.21110462237E+01 -0.32055455676E+02  0.42198264010E+02  0.00000000000E+00 0. -1.
         21    1    1    2  503  501 -0.25526540215E+02  0.71483521333E+01 -0.31513336723E+02  0.41180014388E+02  0.00000000000E+00 0. -1.
          2    1    1    2  501    0  0.42774701122E+02 -0.45615254750E+02  0.21845732711E+02  0.66239433570E+02  0.00000000000E+00 0. -1.
<scales pt_clust_5="13000.00000" pt_clust_6="13000.00000" pt_clust_7="13000.00000" pt_clust_8="13000.00000" pt_clust_9="26.50855" pt_clust_10="60.33553"></scales>
<clustering>
<clus scale="   26.509">  2  9  1 -1</clus>
<clus scale="   60.336">  2 10  1 -1</clus>
<clus scale="   90.379">  5  6 -1 -1</clus>
<clus scale="   93.080">  7  8 -1 -1</clus>
<clus scale="  104.096">  2  5  1 -1</clus>
<clus scale="   26.509">  2  5  1 -1</clus>
</clustering>
</event>
<event>
10    2  0.6640105E-006  0.9253857E+02  0.7546771E-02  0.1297603E+00
          3   -1    0    0  502    0 -0.00000000000E+00  0.00000000000E+00  0.69502966586E+03  0.69502966586E+03  0.00000000000E+00 0. -1.
         21   -1    0    0  503  502  0.00000000000E+00 -0.00000000000E+00 -0.41890337838E+02  0.41890337838E+02  0.00000000000E+00 0. -1.
         23    2    1    2    0    0  0.11619054776E+02  0.56607101398E+00  0.39641543421E+03  0.40688027231E+03  0.90945239829E+02 0.  0.
         23    2    1    2    0    0  0.19053425109E+02  0.21920955758E+02  0.19815120841E+03  0.22050817994E+03  0.92284314576E+02 0.  0.
        -11    1    4    4    0    0 -0.30897220499E+02 -0.61347172671E+01  0.11703729069E+03  0.12120231187E+03  0.00000000000E+00 0.  1.
         11    1    4    4    0    0  0.49950645607E+02  0.28055673025E+02  0.81113917722E+02  0.99305868072E+02  0.00000000000E+00 0. -1.
        -11    1    3    3    0    0 -0.37607215651E+02  0.97017507702E+01  0.12531970003E+03  0.13120005279E+03  0.00000000000E+00 0.  1.
         11    1    3    3    0    0  0.49226270427E+02 -0.91356797562E+01  0.27109573418E+03  0.27568021952E+03  0.00000000000E+00 0. -1.
         21    1    1    2  503  501  0.57939655132E+01 -0.35156199656E+02 -0.41597269112E+01  0.35872437031E+02  0.00000000000E+00 0. -1.
          3    1    1    2  501    0 -0.36466445398E+02  0.12669172884E+02  0.62732412313E+02  0.73659114413E+02  0.00000000000E+00 0. -1.
<scales pt_clust_5="13000.00000" pt_clust_6="13000.00000" pt_clust_7="13000.00000" pt_clust_8="13000.00000" pt_clust_9="35.63044" pt_clust_10="35.23456"></scales>
<clustering>
<clus scale="   35.630">  2  9  1 -1</clus>
<clus scale="   35.235">  2 10  1 -1</clus>
<clus scale="   90.945">  7  8 -1 -1</clus>
<clus scale="   91.203">  1  7  2 -1</clus>
<clus scale="   92.284">  5  6 -1 -1</clus>
<clus scale="   35.630">  2  5  1 -1</clus>
</clustering>
</event>
<event>
10    2  0.6640105E-006  0.1214361E+03  0.7546771E-02  0.1242299E+00
         21   -1    0    0  501  502  0.00000000000E+00  0.00000000000E+00  0.18188185170E+03  0.18188185170E+03  0.00000000000E+00 0.  1.
         -3   -1    0    0    0  501 -0.00000000000E+00 -0.00000000000E+00 -0.53594180709E+03  0.53594180709E+03  0.00000000000E+00 0.  1.
         23    2    1    2    0    0  0.91827408419E+02  0.35625756654E+02 -0.34501180622E+03  0.36886989069E+03  0.85617652127E+02 0.  0.
         23    2    1    2    0    0 -0.23709272929E+01 -0.29360767490E+02 -0.55934025305E+01  0.95543182813E+02  0.90716799251E+02 0.  0.
        -11    1    4    4    0    0  0.17583856408E+02 -0.51677783083E+02  0.17943955571E+02  0.57461037339E+02  0.00000000000E+00 0.  1.
         11    1    4    4    0    0 -0.19954783701E+02  0.22317015593E+02 -0.23537358102E+02  0.38082145474E+02  0.00000000000E+00 0. -1.
        -11    1    3    3    0    0  0.86295785535E+00  0.34791356901E+02 -0.56517288026E+02  0.66373089857E+02  0.00000000000E+00 0. -1.
         11    1    3    3    0    0  0.90964450564E+02  0.83439975265E+00 -0.28849451819E+03  0.30249680083E+03  0.00000000000E+00 0.  1.
         21    1    1    2  503  502 -0.33842168337E+00 -0.38806798254E+02  0.10344323432E+03  0.11048341435E+03  0.00000000000E+00 0.  1.
         -3    1    1    2    0  503 -0.89118059443E+02  0.32541809089E+02 -0.10689798096E+03  0.14292717093E+03  0.00000000000E+00 0.  1.
<scales pt_clust_5="13000.00000" pt_clust_6="13000.00000" pt_clust_7="13000.00000" pt_clust_8="13000.00000" pt_clust_9="38.80827" pt_clust_10="92.16977"></scales>
<clustering>
<clus scale="   38.808">  1  9  2 -1</clus>
<clus scale="   85.618">  7  8 -1 -1</clus>
<clus scale="   90.717">  5  6 -1 -1</clus>
<clus scale="   92.170">  1 10  2 -1</clus>
<clus scale="  117.676">  2  7  1 -1</clus>
<clus scale="   38.808">  1  5  2 -1</clus>
</clustering>
</event>
<event>
10    2  0.6640105E-006  0.9427528E+02  0.7546771E-02  0.1294209E+00
         -1   -1    0    0    0  501 -0.00000000000E+00  0.00000000000E+00  0.35892658729E+03  0.35892658729E+03  0.00000000000E+00 0.  1.
         21   -1    0    0  503  502  0.00000000000E+00 -0.00000000000E+00 -0.18037004406E+03  0.18037004406E+03  0.00000000000E+00 0.  1.
         23    2    1    2    0    0 -0.82741127215E+01 -0.26856450800E+02  0.28652443231E+03  0.30214852747E+03  0.91693797219E+02 0.  0.
         23    2    1    2    0    0 -0.33300916808E+02 -0.88385275421E+01  0.13470085770E+01  0.95641640087E+02  0.89210079346E+02 0.  0.
        -11    1    4    4    0    0 -0.38408500156E+02  0.19824982256E+02 -0.30187965828E+02  0.52721495488E+02  0.00000000000E+00 0. -1.
         11    1    4    4    0    0  0.51075833473E+01 -0.28663509798E+02  0.31534974405E+02  0.42920144598E+02  0.00000000000E+00 0.  1.
        -13    1    3    3    0    0  0.93370994169E+01 -0.44580600983E+02  0.26583413108E+03  0.26970798404E+03  0.00000000000E+00 0.  1.
         13    1    3    3    0    0 -0.17611212138E+02  0.17724150183E+02  0.20690301235E+02  0.32440543428E+02  0.00000000000E+00 0. -1.
         21    1    1    2  503  501  0.54109908916E+02  0.19193804655E+02 -0.10595949009E+03  0.12051430587E+03  0.00000000000E+00 0.  1.
         -1    1    1    2    0  502 -0.12534879386E+02  0.16501173687E+02 -0.33554075645E+01  0.20992157922E+02  0.00000000000E+00 0.  1.
<scales pt_clust_5="13000.00000" pt_clust_6="13000.00000" pt_clust_7="13000.00000" pt_clust_8="13000.00000" pt_clust_9="54.80975" pt_clust_10="20.72226"></scales>
<clustering>
<clus scale="   20.722">  2 10  1 -1</clus>
<clus scale="   54.810">  2  9  1 -1</clus>
<clus scale="   89.210">  5  6 -1 -1</clus>
<clus scale="   91.694">  7  8 -1 -1</clus>
<clus scale="   91.861">  2  5  1 -1</clus>
<clus scale="   20.722">  2  5  1 -1</clus>
</clustering>
</event>
<event>
10    2  0.6640105E-006  0.1101716E+03  0.7546771E-02  0.1263810E+00
          2   -1    0    0  503    0 -0.00000000000E+00  0.00000000000E+00  0.54775921451E+03  0.54775921451E+03  0.00000000000E+00 0. -1.
         21   -1    0    0  501  502  0.00000000000E+00 -0.00000000000E+00 -0.22354471843E+03  0.22354471843E+03  0.00000000000E+00 0. -1.
         23    2    1    2    0    0 -0.17204804129E+02 -0.66208774567E+02  0.31538367898E+03  0.33792711655E+03  0.10024102960E+03 0.  0.
         23    2    1    2    0    0  0.31081418493E+01  0.23381299895E+02  0.19310088824E+03  0.21520504135E+03  0.92026686641E+02 0.  0.
        -11    1    3    3    0    0  0.28806726812E+02 -0.16052072773E+02  0.30141747946E+02  0.44676856639E+02  0.00000000000E+00 0.  1.
         11    1    3    3    0    0 -0.46011530941E+02 -0.50156701794E+02  0.28524193104E+03  0.29325025991E+03  0.00000000000E+00 0. -1.
        -11    1    4    4    0    0 -0.43165051530E+02  0.26684356326E+01  0.10501633539E+03  0.11357276487E+03  0.00000000000E+00 0. -1.
         11    1    4    4    0    0  0.46273193380E+02  0.20712864263E+02  0.88084552849E+02  0.10163227648E+03  0.00000000000E+00 0.  1.
         21    1    1    2  503  502  0.95768378561E+01 -0.18225434171E+02 -0.14268712761E+03  0.14416483157E+03  0.00000000000E+00 0. -1.
          2    1    1    2  501    0  0.45198244234E+01  0.61052908843E+02 -0.41582943523E+02  0.74006943478E+02  0.00000000000E+00 0. -1.
<scales pt_clust_5="13000.00000" pt_clust_6="13000.00000" pt_clust_7="13000.00000" pt_clust_8="13000.00000" pt_clust_9="20.58840" pt_clust_10="49.24998"></scales>
<clustering>
<clus scale="   20.588">  2  9  1 -1</clus>
<clus scale="   49.250">  2 10  1 -1</clus>
<clus scale="   92.027">  7  8 -1 -1</clus>
<clus scale="  100.241">  5  6 -1 -1</clus>
<clus scale="  102.754">  2  7  1 -1</clus>
<clus scale="   20.588">  2  5  1 -1</clus>
</clustering>
</event>
<event>
10    2  0.6640105E-006  0.1033133E+03  0.7546771E-02  0.1274429E+00
          1   -1    0    0  503    0 -0.00000000000E+00  0.00000000000E+00  0.85364015368E+03  0.85364015368E+03  0.00000000000E+00 0. -1.
         21   -1    0    0  501  502  0.00000000000E+00 -0.00000000000E+00 -0.41334022867E+02  0.41334022867E+02  0.00000000000E+00 0.  1.
         23    2    1    2    0    0  0.60111704238E+01  0.31802279316E+02  0.28435608852E+03  0.29977920166E+03  0.89228165554E+02 0.  0.
         23    2    1    2    0    0 -0.26172115299E+02 -0.63608939939E+02  0.32737322393E+03  0.34676895209E+03  0.91347695803E+02 0.  0.
        -11    1    3    3    0    0  0.25764386236E+02  0.51082275749E+02  0.11787826576E+03  0.13102857716E+03  0.00000000000E+00 0.  1.
         11    1    3    3    0    0 -0.19753215813E+02 -0.19279996433E+02  0.16647782276E+03  0.16875062450E+03  0.00000000000E+00 0. -1.
        -11    1    4    4    0    0  0.27691504133E+02 -0.52346780928E+02  0.16244836153E+03  0.17290597167E+03  0.00000000000E+00 0. -1.
         11    1    4    4    0    0 -0.53863619432E+02 -0.11262159011E+02  0.16492486239E+03  0.17386298042E+03  0.00000000000E+00 0.  1.
         21    1    1    2  503  502  0.55776524213E+02  0.57304314175E+02  0.56699032544E+02  0.98028492632E+02  0.00000000000E+00 0.  1.
          1    1    1    2  501    0 -0.35615579338E+02 -0.25497653552E+02  0.14387778582E+03  0.15039753016E+03  0.00000000000E+00 0. -1.
<scales pt_clust_5="13000.00000" pt_clust_6="13000.00000" pt_clust_7="13000.00000" pt_clust_8="13000.00000" pt_clust_9="56.72364" pt_clust_10="43.80185"></scales>
<clustering>
<clus scale="   43.802">  2 10  1 -1</clus>
<clus scale="   56.724">  2  9  1 -1</clus>
<clus scale="   89.228">  5  6 -1 -1</clus>
<clus scale="   91.348">  7  8 -1 -1</clus>
<clus scale="  101.444">  1  5  2 -1</clus>
<clus scale="   43.802">  2  5  1 -1</clus>
</clustering>
</event>
<event>
10    2  0.6640105E-006  0.1430578E+03  0.7546771E-02  0.1213197E+00
          1   -1    0    0  503    0 -0.00000000000E+00  0.00000000000E+00  0.50463395254E+03  0.50463395254E+03  0.00000000000E+00 0. -1.
         21   -1    0    0  501  502  0.00000000000E+00 -0.00000000000E+00 -0.20006663190E+03  0.20006663190E+03  0.00000000000E+00 0.  1.
         23    2    1    2    0    0 -0.10701139225E+03  0.48190462006E+02  0.28030738998E+03  0.31675660087E+03  0.89379822200E+02 0.  0.
         23    2    1    2    0    0  0.54677083969E+02 -0.31561666359E+02  0.98651638672E+02  0.15766601997E+03  0.10554954167E+03 0.  0.
        -11    1    4    4    0    0  0.33222046313E+02 -0.48263558483E+02  0.34900206325E+01  0.58696300417E+02  0.00000000000E+00 0.  1.
         11    1    4    4    0    0  0.21455037657E+02  0.16701892125E+02  0.95161618040E+02  0.98969719558E+02  0.00000000000E+00 0. -1.
        -11    1    3    3    0    0 -0.11174638994E+03  0.13587481456E+02  0.21645232235E+03  0.24397434940E+03  0.00000000000E+00 0.  1.
         11    1    3    3    0    0  0.47349976883E+01  0.34602980550E+02  0.63855067637E+02  0.72782251469E+02  0.00000000000E+00 0. -1.
         21    1    1    2  503  502  0.18291576932E+02 -0.25647342377E+02 -0.14659627923E+03  0.14994277922E+03  0.00000000000E+00 0.  1.
          1    1    1    2  501    0  0.34042731352E+02  0.90185467297E+01  0.72204571215E+02  0.80335184367E+02  0.00000000000E+00 0. -1.
<scales pt_clust_5="13000.00000" pt_clust_6="13000.00000" pt_clust_7="13000.00000" pt_clust_8="13000.00000" pt_clust_9="31.50187" pt_clust_10="36.16342"></scales>
<clustering>
<clus scale="   31.502">  2  9  1 -1</clus>
<clus scale="   36.163">  2 10  1 -1</clus>
<clus scale="   89.380">  7  8 -1 -1</clus>
<clus scale="  105.550">  5  6 -1 -1</clus>
<clus scale="  131.581">  1  7  2 -1</clus>
<clus scale="   31.502">  2  5  1 -1</clus>
</clustering>
</event>
<event>
10    2  0.6640105E-006  0.2225094E+03  0.7546771E-02  0.1161253E+00
         21   -1    0    0  501  502  0.00000000000E+00  0.00000000000E+00  0.38043006055E+03  0.38043006055E+03  0.00000000000E+00 0. -1.
          1   -1    0    0  503    0 -0.00000000000E+00 -0.00000000000E+00 -0.42868833349E+03  0.42868833349E+03  0.00000000000E+00 0. -1.
         23    2    1    2    0    0 -0.10321520167E+02 -0.67726648553E+02  0.17628408425E+02  0.11401577168E+03  0.89417015747E+02 0.  0.
         23    2    1    2    0    0  0.68328879227E+02  0.23166563654E+03 -0.27518312171E+03  0.37730898779E+03  0.91096206884E+02 0.  0.
        -11    1    4    4    0    0  0.84125392552E+02  0.18220101248E+03 -0.18344128005E+03  0.27189151117E+03  0.00000000000E+00 0. -1.
         11    1    4    4    0    0 -0.15796513326E+02  0.49464624054E+02 -0.91741841660E+02  0.10541747662E+03  0.00000000000E+00 0.  1.
        -13    1    3    3    0    0 -0.34280680673E+02 -0.19424575936E+02  0.39535875342E+02  0.55817243364E+02  0.00000000000E+00 0.  1.
         13    1    3    3    0    0  0.23959160506E+02 -0.48302072617E+02 -0.21907466917E+02  0.58198528315E+02  0.00000000000E+00 0. -1.
         21    1    1    2  503  502 -0.11548718678E+01  0.26142788682E+02 -0.40184526961E+01  0.26475027690E+02  0.00000000000E+00 0. -1.
          1    1    1    2  501    0 -0.56852487192E+02 -0.19008177667E+03  0.21331489303E+03  0.29131860687E+03  0.00000000000E+00 0. -1.
<scales pt_clust_5="13000.00000" pt_clust_6="13000.00000" pt_clust_7="13000.00000" pt_clust_8="13000.00000" pt_clust_9="26.16828" pt_clust_10="203.00721"></scales>
<clustering>
<clus scale="   26.168">  2  9  1 -1</clus>
<clus scale="   89.417">  7  8 -1 -1</clus>
<clus scale="   91.096">  5  6 -1 -1</clus>
<clus scale="  110.852">  2  7  1 -1</clus>
<clus scale="  203.007">  1 10  2 -1</clus>
<clus scale="  203.007">  1  5  2 -1</clus>
</clustering>
</event>
<event>
10    2  0.6640105E-006  0.1488196E+03  0.7546771E-02  0.1206208E+00
         21   -1    0    0  503  502  0.00000000000E+00  0.00000000000E+00  0.33721881859E+03  0.33721881859E+03  0.00000000000E+00 0.  1.
         -1   -1    0    0    0  501 -0.00000000000E+00 -0.00000000000E+00 -0.50136540832E+03  0.50136540832E+03  0.00000000000E+00 0.  1.
         23    2    1    2    0    0  0.64872858769E+02 -0.83867984633E+01 -0.11331184947E+03  0.15608786549E+03  0.85117685180E+02 0.  0.
         23    2    1    2    0    0 -0.15192013543E+03 -0.22411342924E+02 -0.32949464608E+03  0.37831862276E+03  0.10476766052E+03 0.  0.
        -11    1    4    4    0    0 -0.52565757677E+01  0.25834922739E+02 -0.22395868304E+02  0.34592625498E+02  0.00000000000E+00 0. -1.
         11    1    4    4    0    0 -0.14666355966E+03 -0.48246265663E+02 -0.30709877778E+03  0.34372599726E+03  0.00000000000E+00 0.  1.
        -13    1    3    3    0    0  0.69237113659E+02 -0.32158066833E+02 -0.58479403665E+02  0.96165273479E+02  0.00000000000E+00 0.  1.
         13    1    3    3    0    0 -0.43642548898E+01  0.23771268370E+02 -0.54832445806E+02  0.59922592015E+02  0.00000000000E+00 0. -1.
         21    1    1    2  503  501  0.26455504632E+02 -0.15847234165E+02  0.16048405986E+03  0.16342020079E+03  0.00000000000E+00 0.  1.
         -1    1    1    2    0  502  0.60591772024E+02  0.46645375552E+02  0.11817584596E+03  0.14075753787E+03  0.00000000000E+00 0.  1.
<scales pt_clust_5="13000.00000" pt_clust_6="13000.00000" pt_clust_7="13000.00000" pt_clust_8="13000.00000" pt_clust_9="30.83875" pt_clust_10="87.41977"></scales>
<clustering>
<clus scale="   30.839">  1  9  2 -1</clus>
<clus scale="   85.118">  7  8 -1 -1</clus>
<clus scale="   87.420">  1 10  2 -1</clus>
<clus scale="  104.768">  5  6 -1 -1</clus>
<clus scale="  135.706">  2  7  1 -1</clus>
<clus scale="   30.839">  1  5  2 -1</clus>
</clustering>
</event>
<event>
10    2  0.6640105E-006  0.1064775E+03  0.7546771E-02  0.1268917E+00
         21   -1    0    0  501  502  0.00000000000E+00  0.00000000000E+00  0.13653625508E+03  0.13653625508E+03  0.00000000000E+00 0. -1.
          1   -1    0    0  503    0 -0.00000000000E+00 -0.00000000000E+00 -0.23468060786E+03  0.23468060786E+03  0.00000000000E+00 0. -1.
         23    2    1    2    0    0  0.32912372118E+02  0.15542591907E+02 -0.29688537090E+02  0.10352200429E+03  0.92252911801E+02 0.  0.
         23    2    1    2    0    0 -0.68164897435E+02  0.51495003932E+02  0.82139583082E+01  0.12881021054E+03  0.96054216757E+02 0.  0.
        -11    1    3    3    0    0  0.23217237275E+02  0.51588267984E+02 -0.12322905924E+01  0.56585404836E+02  0.00000000000E+00 0.  1.
         11    1    3    3    0    0  0.96951348428E+01 -0.36045676077E+02 -0.28456246498E+02  0.46936599453E+02  0.00000000000E+00 0. -1.
        -13    1    4    4    0    0  0.22525474022E+02 -0.24381526350E+01  0.52282188267E+01  0.23252437298E+02  0.00000000000E+00 0.  1.
         13    1    4    4    0    0 -0.90690371457E+02  0.53933156567E+02  0.29857394815E+01  0.10555777325E+03  0.00000000000E+00 0. -1.
         21    1    1    2  503  502  0.24034468265E+02  0.14863008045E+02 -0.34751642995E+01  0.28471765660E+02  0.00000000000E+00 0. -1.
          1    1    1    2  501    0  0.11218057053E+02 -0.81900603884E+02 -0.73194609707E+02  0.11041288245E+03  0.00000000000E+00 0. -1.
<scales pt_clust_5="13000.00000" pt_clust_6="13000.00000" pt_clust_7="13000.00000" pt_clust_8="13000.00000" pt_clust_9="28.25889" pt_clust_10="81.03815"></scales>
<clustering>
<clus scale="   28.259">  1  9  2 -1</clus>
<clus scale="   81.038">  1 10  2 -1</clus>
<clus scale="   92.253">  5  6 -1 -1</clus>
<clus scale="   96.054">  7  8 -1 -1</clus>
<clus scale="  103.061">  2  5  1 -1</clus>
<clus scale="   28.259">  1  5  2 -1</clus>
</clustering>
</event>
<event>
10    2  0.6640105E-006  0.3352717E+03  0.7546771E-02  0.1068892E+00
         21   -1    0    0  503  502  0.00000000000E+00  0.00000000000E+00  0.11222956712E+03  0.11222956712E+03  0.00000000000E+00 0.  1.
          2   -1    0    0  502    0 -0.00000000000E+00 -0.00000000000E+00 -0.15491560413E+04  0.15491560413E+04  0.00000000000E+00 0. -1.
         23    2    1    2    0    0 -0.20544807776E+03  0.23160668534E+03 -0.84039720174E+03  0.90024142753E+03  0.91195404489E+02 0.  0.
         23    2    1    2    0    0  0.23414830311E+03 -0.25365154021E+03 -0.56250822514E+03  0.66596051671E+03  0.89013340367E+02 0.  0.
        -11    1    3    3    0    0 -0.13340332102E+03  0.16535545926E+03 -0.67922612922E+03  0.71167900671E+03  0.00000000000E+00 0. -1.
         11    1    3    3    0    0 -0.72044756740E+02  0.66251226083E+02 -0.16117107252E+03  0.18856242083E+03  0.00000000000E+00 0.  1.
        -13    1    4    4    0    0  0.15829144612E+03 -0.21003356671E+03 -0.47028868964E+03  0.53883367811E+03  0.00000000000E+00 0.  1.
         13    1    4    4    0    0  0.75856856989E+02 -0.43617973501E+02 -0.92219535499E+02  0.12712683860E+03  0.00000000000E+00 0. -1.
         21    1    1    2  503  501 -0.92204395841E+01 -0.17805282213E+02  0.17911818493E+02  0.26886387309E+02  0.00000000000E+00 0. -1.
          2    1    1    2  501    0 -0.19479785766E+02  0.39850137086E+02 -0.51932865811E+02  0.68297276890E+02  0.00000000000E+00 0. -1.
<scales pt_clust_5="13000.00000" pt_clust_6="13000.00000" pt_clust_7="13000.00000" pt_clust_8="13000.00000" pt_clust_9="20.05105" pt_clust_10="43.29311"></scales>
<clustering>
<clus scale="   20.051">  1  9  2 -1</clus>
<clus scale="   43.293">  1 10  2 -1</clus>
<clus scale="   89.013">  7  8 -1 -1</clus>
<clus scale="   91.195">  5  6 -1 -1</clus>
<clus scale="  334.685">  1  7  2 -1</clus>
<clus scale="   20.051">  1  5  2 -1</clus>
</clustering>
</event>
<event>
10    2  0.6640105E-006  0.1121737E+03  0.7546771E-02  0.1259062E+00
         21   -1    0    0  501  502  0.00000000000E+00  0.00000000000E+00  0.44845531642E+03  0.44845531642E+03  0.00000000000E+00 0.  1.
          2   -1    0    0  503    0 -0.00000000000E+00 -0.00000000000E+00 -0.69039490715E+03  0.69039490715E+03  0.00000000000E+00 0.  1.
         23    2    1    2    0    0 -0.32480038923E+02 -0.10030393448E+02 -0.28732687914E+03  0.30292373801E+03  0.89724544314E+02 0.  0.
         23    2    1    2    0    0  0.89225433003E+02  0.28203493538E+02 -0.37783972032E+03  0.40091886251E+03  0.96002422511E+02 0.  0.
        -11    1    4    4    0    0 -0.15818748933E+02  0.23253743538E+02 -0.63334126827E+02  0.69297770724E+02  0.00000000000E+00 0. -1.
         11    1    4    4    0    0  0.10504418194E+03  0.49497499996E+01 -0.31450559349E+03  0.33162109179E+03  0.00000000000E+00 0.  1.
        -13    1    3    3    0    0  0.13956114354E+02  0.15160985980E+02 -0.14918434949E+02  0.25439896326E+02  0.00000000000E+00 0.  1.
         13    1    3    3    0    0 -0.46436153278E+02 -0.25191379428E+02 -0.27240844420E+03  0.27748384169E+03  0.00000000000E+00 0. -1.
         21    1    1    2  503  502  0.10903600962E+02  0.20024608339E+02  0.89761521684E+02  0.92612117069E+02  0.00000000000E+00 0.  1.
          2    1    1    2  501    0 -0.67648995042E+02 -0.38197708428E+02  0.33346548705E+03  0.34239550598E+03  0.00000000000E+00 0.  1.
<scales pt_clust_5="13000.00000" pt_clust_6="13000.00000" pt_clust_7="13000.00000" pt_clust_8="13000.00000" pt_clust_9="22.80073" pt_clust_10="60.48305"></scales>
<clustering>
<clus scale="   22.801">  1  9  2 -1</clus>
<clus scale="   60.483">  1 10  2 -1</clus>
<clus scale="   89.725">  7  8 -1 -1</clus>
<clus scale="   96.002">  5  6 -1 -1</clus>
<clus scale="  106.850">  2  7  1 -1</clus>
<clus scale="   22.801">  1  5  2 -1</clus>
</clustering>
</event>
<event>
10    2  0.6640105E-006  0.1060621E+03  0.7546771E-02  0.1268284E+00
          1   -1    0    0  503    0 -0.00000000000E+00  0.00000000000E+00  0.24555958570E+03  0.24555958570E+03  0.00000000000E+00 0. -1.
         21   -1    0    0  501  502  0.00000000000E+00 -0.00000000000E+00 -0.32302608554E+03  0.32302608554E+03  0.00000000000E+00 0.  1.
         23    2    1    2    0    0  0.53396142174E+02  0.10814023805E+02  0.16119382784E+03  0.19249232235E+03  0.90009737915E+02 0.  0.
         23    2    1    2    0    0 -0.63243035838E+02 -0.50434618590E+02 -0.14139111158E+03  0.18582473004E+03  0.89420643738E+02 0.  0.
        -11    1    3    3    0    0  0.24784861351E+02  0.48871383946E+02  0.63934323293E+02  0.84203914492E+02  0.00000000000E+00 0. -1.
         11    1    3    3    0    0  0.28611280824E+02 -0.38057360141E+02  0.97259504547E+02  0.10828840786E+03  0.00000000000E+00 0.  1.
        -11    1    4    4    0    0  0.21406236053E+02 -0.14533292204E+01 -0.15795909990E+02  0.26643008092E+02  0.00000000000E+00 0. -1.
         11    1    4    4    0    0 -0.84649271891E+02 -0.48981289370E+02 -0.12559520159E+03  0.15918172195E+03  0.00000000000E+00 0.  1.
         21    1    1    2  503  502  0.24091149826E+02  0.20641017873E+02 -0.13883091402E+03  0.14240947232E+03  0.00000000000E+00 0.  1.
          1    1    1    2  501    0 -0.14244256163E+02  0.18979576913E+02  0.41561697919E+02  0.47859146538E+02  0.00000000000E+00 0. -1.
<scales pt_clust_5="13000.00000" pt_clust_6="13000.00000" pt_clust_7="13000.00000" pt_clust_8="13000.00000" pt_clust_9="34.02923" pt_clust_10="23.73023"></scales>
<clustering>
<clus scale="   23.730">  2 10  1 -1</clus>
<clus scale="   34.029">  2  9  1 -1</clus>
<clus scale="   89.421">  7  8 -1 -1</clus>
<clus scale="   90.010">  5  6 -1 -1</clus>
<clus scale="  105.563">  2  7  1 -1</clus>
<clus scale="   23.730">  2  5  1 -1</clus>
</clustering>
</event>
<event>
10    2  0.6640105E-006  0.9180031E+02  0.7546771E-02  0.1299141E+00
          1   -1    0    0  502    0 -0.00000000000E+00  0.00000000000E+00  0.13198665220E+03  0.13198665220E+03  0.00000000000E+00 0.  1.
         21   -1    0    0  503  502  0.00000000000E+00 -0.00000000000E+00 -0.28146762475E+03  0.28146762475E+03  0.00000000000E+00 0. -1.
         23    2    1    2    0    0 -0.11695261407E+02 -0.15245081687E+02  0.87077615844E+02  0.12630142869E+03  0.89444664753E+02 0.  0.
         23    2    1    2    0    0  0.19018638126E+02 -0.33382078079E+02 -0.12306015428E+03  0.15748792349E+03  0.90457574263E+02 0.  0.
        -11    1    4    4    0    0  0.26914995184E+02 -0.62461939683E+02 -0.81457953432E+02  0.10611931517E+03  0.00000000000E+00 0. -1.
         11    1    4    4    0    0 -0.78963570579E+01  0.29079861603E+02 -0.41602200847E+02  0.51368608322E+02  0.00000000000E+00 0.  1.
        -13    1    3    3    0    0 -0.11890293267E-01  0.29176161951E+02  0.15462341708E+01  0.29217108133E+02  0.00000000000E+00 0. -1.
         13    1    3    3    0    0 -0.11683371114E+02 -0.44421243638E+02  0.85531381674E+02  0.97084320556E+02  0.00000000000E+00 0.  1.
         21    1    1    2  503  501 -0.13965209948E+02  0.17649157209E+02 -0.81833295590E+02  0.84871715584E+02  0.00000000000E+00 0. -1.
          1    1    1    2  501    0  0.66418332295E+01  0.30978002557E+02 -0.31665138528E+02  0.44793209185E+02  0.00000000000E+00 0.  1.
<scales pt_clust_5="13000.00000" pt_clust_6="13000.00000" pt_clust_7="13000.00000" pt_clust_8="13000.00000" pt_clust_9="22.50600" pt_clust_10="34.60947"></scales>
<clustering>
<clus scale="   22.506">  2  9  1 -1</clus>
<clus scale="   34.609">  2 10  1 -1</clus>
<clus scale="   89.445">  7  8 -1 -1</clus>
<clus scale="   90.458">  5  6 -1 -1</clus>
<clus scale="   90.802">  1  7  2 -1</clus>
<clus scale="   22.506">  2  5  1 -1</clus>
</clustering>
</event>
<event>
10    2  0.6640105E-006  0.1369777E+03  0.7546771E-02  0.1218725E+00
          1   -1    0    0  503    0 -0.00000000000E+00  0.00000000000E+00  0.29644839848E+03  0.29644839848E+03  0.00000000000E+00 0. -1.
         21   -1    0    0  501  502  0.00000000000E+00 -0.00000000000E+00 -0.67455634186E+03  0.67455634186E+03  0.00000000000E+00 0. -1.
         23    2    1    2    0    0  0.76181167381E+02 -0.83645544841E+02  0.16041881383E+03  0.21567113362E+03  0.89329136394E+02 0.  0.
         23    2    1    2    0    0 -0.73990950027E+02  0.38104456421E+02  0.67935322517E+02  0.14317479082E+03  0.94642497832E+02 0.  0.
        -11    1    4    4    0    0 -0.31041405444E+02  0.66742921663E+02  0.47789014696E+02  0.87760904563E+02  0.00000000000E+00 0.  1.
         11    1    4    4    0    0 -0.42949544583E+02 -0.28638465242E+02  0.20146307821E+02  0.55413886257E+02  0.00000000000E+00 0. -1.
        -13    1    3    3    0    0 -0.14303810911E+02 -0.39983040774E+02  0.35396737611E+02  0.55282651796E+02  0.00000000000E+00 0.  1.
         13    1    3    3    0    0  0.90484978292E+02 -0.43662504067E+02  0.12502207622E+03  0.16038848182E+03  0.00000000000E+00 0. -1.
         21    1    1    2  503  502  0.33448440959E+02  0.24771845464E+02 -0.27288363061E+03  0.27603970436E+03  0.00000000000E+00 0. -1.
          1    1    1    2  501    0 -0.35638658313E+02  0.20769242956E+02 -0.33357844912E+03  0.33611911154E+03  0.00000000000E+00 0. -1.
<scales pt_clust_5="13000.00000" pt_clust_6="13000.00000" pt_clust_7="13000.00000" pt_clust_8="13000.00000" pt_clust_9="41.81195" pt_clust_10="41.24894"></scales>
<clustering>
<clus scale="   41.249">  2 10  1 -1</clus>
<clus scale="   41.812">  2  9  1 -1</clus>
<clus scale="   89.329">  7  8 -1 -1</clus>
<clus scale="   94.642">  5  6 -1 -1</clus>
<clus scale="  133.362">  1  7  2 -1</clus>
<clus scale="   41.249">  2  5  1 -1</clus>
</clustering>
</event>
<event>
10    2  0.6640105E-006  0.1637013E+03  0.7546771E-02  0.1184952E+00
          1   -1    0    0  503    0 -0.00000000000E+00  0.00000000000E+00  0.11360175052E+04  0.11360175052E+04  0.00000000000E+00 0. -1.
         21   -1    0    0  501  502  0.00000000000E+00 -0.00000000000E+00 -0.68001179398E+02  0.68001179398E+02  0.00000000000E+00 0.  1.
         23    2    1    2    0    0  0.12650312823E+03  0.72840660644E+02  0.55881850159E+03  0.58496248903E+03  0.92704868079E+02 0.  0.
         23    2    1    2    0    0 -0.13446140607E+03  0.38219930926E+02  0.29916917573E+03  0.34362459124E+03  0.95052780906E+02 0.  0.
        -13    1    4    4    0    0 -0.12064542166E+03  0.61916072270E+02  0.27679176207E+03  0.30822491353E+03  0.00000000000E+00 0.  1.
         13    1    4    4    0    0 -0.13815984404E+02 -0.23696141343E+02  0.22377413655E+02  0.35399677703E+02  0.00000000000E+00 0. -1.
        -13    1    3    3    0    0  0.78736262704E+02  0.15419593321E+00  0.35013785028E+03  0.35888150836E+03  0.00000000000E+00 0.  1.
         13    1    3    3    0    0  0.47766865525E+02  0.72686464711E+02  0.20868065130E+03  0.22608098067E+03  0.00000000000E+00 0. -1.
         21    1    1    2  503  502 -0.34982936127E+02  0.14825104032E+02  0.18528008899E+02  0.42271463701E+02  0.00000000000E+00 0.  1.
          1    1    1    2  501    0  0.42941213964E+02 -0.12588569560E+03  0.19150063959E+03  0.23316014063E+03  0.00000000000E+00 0. -1.
<scales pt_clust_5="13000.00000" pt_clust_6="13000.00000" pt_clust_7="13000.00000" pt_clust_8="13000.00000" pt_clust_9="37.99460" pt_clust_10="124.05589"></scales>
<clustering>
<clus scale="   37.995">  2  9  1 -1</clus>
<clus scale="   92.705">  7  8 -1 -1</clus>
<clus scale="   95.053">  5  6 -1 -1</clus>
<clus scale="  124.056">  2 10  1 -1</clus>
<clus scale="  162.349">  1  7  2 -1</clus>
<clus scale="   37.995">  2  5  1 -1</clus>
</clustering>
</event>
<event>
10    2  0.6640105E-006  0.2368889E+03  0.7546771E-02  0.1152636E+00
         21   -1    0    0  501  502  0.00000000000E+00  0.00000000000E+00  0.20004457053E+03  0.20004457053E+03  0.00000000000E+00 0. -1.
          1   -1    0    0  503    0 -0.00000000000E+00 -0.00000000000E+00 -0.71392983989E+03  0.71392983989E+03  0.00000000000E+00 0. -1.
         23    2    1    2    0    0  0.38688134682E+02 -0.53439094517E+02 -0.34206516264E+03  0.35961305142E+03  0.89221424954E+02 0.  0.
         23    2    1    2    0    0  0.21638154408E+02  0.26006779154E+03 -0.13580164908E+03  0.30855927836E+03  0.93076712688E+02 0.  0.
        -13    1    3    3    0    0 -0.22974473444E+02 -0.33570533339E+02 -0.81148714884E+02  0.90774010961E+02  0.00000000000E+00 0. -1.
         13    1    3    3    0    0  0.61662608127E+02 -0.19868561177E+02 -0.26091644776E+03  0.26883904046E+03  0.00000000000E+00 0.  1.
        -13    1    4    4    0    0 -0.94728666042E+01  0.48958629689E+02 -0.68656891573E+02  0.84855473502E+02  0.00000000000E+00 0.  1.
         13    1    4    4    0    0  0.31111021012E+02  0.21110916185E+03 -0.67144757504E+02  0.22370380486E+03  0.00000000000E+00 0. -1.
         21    1    1    2  503  502  0.32565748481E+02 -0.36973685192E+02 -0.13418609663E+02  0.51065061011E+02  0.00000000000E+00 0. -1.
          1    1    1    2  501    0 -0.92892037572E+02 -0.16965501183E+03 -0.22599847983E+02  0.19473701963E+03  0.00000000000E+00 0. -1.
<scales pt_clust_5="13000.00000" pt_clust_6="13000.00000" pt_clust_7="13000.00000" pt_clust_8="13000.00000" pt_clust_9="49.27049" pt_clust_10="217.83728"></scales>
<clustering>
<clus scale="   49.270">  1  9  2 -1</clus>
<clus scale="   89.221">  5  6 -1 -1</clus>
<clus scale="   93.077">  7  8 -1 -1</clus>
<clus scale="  112.392">  2  5  1 -1</clus>
<clus scale="  217.837">  1 10  2 -1</clus>
<clus scale="   49.270">  1  5  2 -1</clus>
</clustering>
</event>
<event>
10    2  0.6640105E-006  0.1709187E+03  0.7546771E-02  0.1176921E+00
          1   -1    0    0  503    0 -0.00000000000E+00  0.00000000000E+00  0.53417137515E+03  0.53417137515E+03  0.00000000000E+00 0. -1.
         21   -1    0    0  501  502  0.00000000000E+00 -0.00000000000E+00 -0.29852568806E+03  0.29852568806E+03  0.00000000000E+00 0. -1.
         23    2    1    2    0    0  0.14261287463E+03  0.28428116915E+02  0.33814377432E+03  0.37914557543E+03  0.90904155096E+02 0.  0.
         23    2    1    2    0    0 -0.14708628257E+03  0.16140181539E+02  0.11188635002E+03  0.20649401405E+03  0.90699187080E+02 0.  0.
        -11    1    4    4    0    0 -0.10200191253E+03 -0.21081640140E+02  0.34951177718E+02  0.10986542010E+03  0.00000000000E+00 0.  1.
         11    1    4    4    0    0 -0.45084370041E+02  0.37221821679E+02  0.76935172297E+02  0.96628593943E+02  0.00000000000E+00 0. -1.
        -13    1    3    3    0    0  0.48416526848E+02 -0.31169535970E+02  0.14698771809E+03  0.15786414829E+03  0.00000000000E+00 0.  1.
         13    1    3    3    0    0  0.94196347779E+02  0.59597652886E+02  0.19115605623E+03  0.22128142714E+03  0.00000000000E+00 0. -1.
         21    1    1    2  503  502  0.58841656102E+02 -0.14301877417E+02 -0.10708549361E+03  0.12302108410E+03  0.00000000000E+00 0. -1.
          1    1    1    2  501    0 -0.54368248158E+02 -0.30266421038E+02 -0.10729894363E+03  0.12403638964E+03  0.00000000000E+00 0. -1.
<scales pt_clust_5="13000.00000" pt_clust_6="13000.00000" pt_clust_7="13000.00000" pt_clust_8="13000.00000" pt_clust_9="60.55480" pt_clust_10="42.91241"></scales>
<clustering>
<clus scale="   60.555">  2  9  1 -1</clus>
<clus scale="   42.912">  2 10  1 -1</clus>
<clus scale="   90.699">  5  6 -1 -1</clus>
<clus scale="   90.904">  7  8 -1 -1</clus>
<clus scale="  170.810">  2  5  1 -1</clus>
<clus scale="   60.555">  2  5  1 -1</clus>
</clustering>
</event>
<event>
10    2  0.6640105E-006  0.1781969E+03  0.7546771E-02  0.1170132E+00
         21   -1    0    0  501  502  0.00000000000E+00  0.00000000000E+00  0.56463738511E+03  0.56463738511E+03  0.00000000000E+00 0.  1.
          2   -1    0    0  503    0 -0.00000000000E+00 -0.00000000000E+00 -0.43961582749E+03  0.43961582749E+03  0.00000000000E+00 0. -1.
         23    2    1    2    0    0 -0.10451886198E+03  0.11123343336E+03 -0.25173639768E+03  0.30858323284E+03  0.92495018605E+02 0.  0.
         23    2    1    2    0    0  0.72721650830E+02 -0.13718976236E+03 -0.10004441936E+03  0.20457993880E+03  0.87946552628E+02 0.  0.
        -13    1    3    3    0    0 -0.94142137295E+00  0.43830547319E+02 -0.12094133449E+03  0.12864217637E+03  0.00000000000E+00 0. -1.
         13    1    3    3    0    0 -0.10357744061E+03  0.67402886043E+02 -0.13079506319E+03  0.17994105647E+03  0.00000000000E+00 0.  1.
        -13    1    4    4    0    0 -0.13253885173E+02 -0.64034447633E+02 -0.41027377790E+02  0.77196642959E+02  0.00000000000E+00 0. -1.
         13    1    4    4    0    0  0.85975536004E+02 -0.73155314726E+02 -0.59017041567E+02  0.12738329584E+03  0.00000000000E+00 0.  1.
         21    1    1    2  503  502 -0.27296573934E+02 -0.79315690650E+01  0.40371620842E+02  0.49374897527E+02  0.00000000000E+00 0. -1.
          2    1    1    2  501    0  0.59093785084E+02  0.33887898062E+02  0.43643075381E+03  0.44171514344E+03  0.00000000000E+00 0. -1.
<scales pt_clust_5="13000.00000" pt_clust_6="13000.00000" pt_clust_7="13000.00000" pt_clust_8="13000.00000" pt_clust_9="28.42556" pt_clust_10="45.14070"></scales>
<clustering>
<clus scale="   28.426">  1  9  2 -1</clus>
<clus scale="   45.141">  1 10  2 -1</clus>
<clus scale="   87.947">  7  8 -1 -1</clus>
<clus scale="   92.495">  5  6 -1 -1</clus>
<clus scale="  175.879">  1  7  2 -1</clus>
<clus scale="   28.426">  1  5  2 -1</clus>
</clustering>
</event>
<event>
10    2  0.6640105E-006  0.1915860E+03  0.7546771E-02  0.1157163E+00
         21   -1    0    0  503  502  0.00000000000E+00  0.00000000000E+00  0.19817507842E+03  0.19817507842E+03  0.00000000000E+00 0.  1.
         -1   -1    0    0    0  501 -0.00000000000E+00 -0.00000000000E+00 -0.10034723239E+04  0.10034723239E+04  0.00000000000E+00 0.  1.
         23    2    1    2    0    0 -0.16314310625E+03  0.61650484836E+02 -0.83912455765E+03  0.86196168975E+03  0.91823068716E+02 0.  0.
         23    2    1    2    0    0  0.10244888545E+03 -0.25051365002E+02  0.73987541195E+02  0.15753091329E+03  0.90655873333E+02 0.  0.
        -13    1    4    4    0    0  0.50528221792E+02 -0.14603923778E+02  0.88203463174E+02  0.10269482316E+03  0.00000000000E+00 0.  1.
         13    1    4    4    0    0  0.51920663660E+02 -0.10447441224E+02 -0.14215921979E+02  0.54836090130E+02  0.00000000000E+00 0. -1.
        -13    1    3    3    0    0 -0.55672227825E+02  0.57735491579E+02 -0.23421777269E+03  0.24756968510E+03  0.00000000000E+00 0. -1.
         13    1    3    3    0    0 -0.10747087842E+03  0.39149932570E+01 -0.60490678497E+03  0.61439200465E+03  0.00000000000E+00 0.  1.
         21    1    1    2  503  501 -0.14561783065E+02 -0.37145029293E+02  0.50480521957E+02  0.64343467612E+02  0.00000000000E+00 0.  1.
         -1    1    1    2    0  502  0.75256003861E+02  0.54590945919E+00 -0.90640751023E+02  0.11781133171E+03  0.00000000000E+00 0.  1.
<scales pt_clust_5="13000.00000" pt_clust_6="13000.00000" pt_clust_7="13000.00000" pt_clust_8="13000.00000" pt_clust_9="39.89735" pt_clust_10="73.91316"></scales>
<clustering>
<clus scale="   39.897">  1  9  2 -1</clus>
<clus scale="   73.913">  1 10  2 -1</clus>
<clus scale="   90.656">  5  6 -1 -1</clus>
<clus scale="   91.823">  7  8 -1 -1</clus>
<clus scale="  191.029">  1  5  2 -1</clus>
<clus scale="   39.897">  1  5  2 -1</clus>
</clustering>
</event>
<event>
10    2  0.6640105E-006  0.1003924E+03  0.7546771E-02  0.1282131E+00
         -1   -1    0    0    0  501 -0.00000000000E+00  0.00000000000E+00  0.15028091725E+03  0.15028091725E+03  0.00000000000E+00 0.  1.
         21   -1    0    0  501  502  0.00000000000E+00 -0.00000000000E+00 -0.48650026715E+03  0.48650026715E+03  0.00000000000E+00 0.  1.
         23    2    1    2    0    0 -0.50681885395E+02  0.15398827173E+02  0.95999174153E+02  0.13964670658E+03  0.86484587266E+02 0.  0.
         23    2    1    2    0    0 -0.19519240310E+02  0.36299808238E+02 -0.96280473850E+02  0.13934414431E+03  0.91914003766E+02 0.  0.
        -11    1    3    3    0    0 -0.16247913471E+01  0.36235535049E+02  0.73164942858E+02  0.81662493292E+02  0.00000000000E+00 0.  1.
         11    1    3    3    0    0 -0.49057094048E+02 -0.20836707877E+02  0.22834231294E+02  0.57984213286E+02  0.00000000000E+00 0. -1.
        -13    1    4    4    0    0 -0.48330030338E+02  0.10240121517E+02 -0.85965561768E+02  0.99150036466E+02  0.00000000000E+00 0. -1.
         13    1    4    4    0    0  0.28810790028E+02  0.26059686721E+02 -0.10314912081E+02  0.40194107843E+02  0.00000000000E+00 0.  1.
         21    1    1    2  503  502  0.32265936354E+02  0.20138010775E+02 -0.15244721694E+03  0.15712028538E+03  0.00000000000E+00 0. -1.
         -1    1    1    2    0  503  0.37935189352E+02 -0.71836646185E+02 -0.18349083327E+03  0.20067004814E+03  0.00000000000E+00 0.  1.
<scales pt_clust_5="13000.00000" pt_clust_6="13000.00000" pt_clust_7="13000.00000" pt_clust_8="13000.00000" pt_clust_9="38.03459" pt_clust_10="82.62448"></scales>
<clustering>
<clus scale="   38.035">  2  9  1 -1</clus>
<clus scale="   82.624">  2 10  1 -1</clus>
<clus scale="   86.485">  5  6 -1 -1</clus>
<clus scale="   91.914">  7  8 -1 -1</clus>
<clus scale="   95.447">  1  5  2 -1</clus>
<clus scale="   38.035">  2  5  1 -1</clus>
</clustering>
</event>
<event>
10    2  0.6640105E-006  0.9668911E+02  0.7546771E-02  0.1289174E+00
         -1   -1    0    0    0  501 -0.00000000000E+00  0.00000000000E+00  0.10635432687E+03  0.10635432687E+03  0.00000000000E+00 0.  1.
         21   -1    0    0  503  502  0.00000000000E+00 -0.00000000000E+00 -0.39517928317E+03  0.39517928317E+03  0.00000000000E+00 0. -1.
         23    2    1    2    0    0  0.36463461616E+02 -0.15069874756E+02  0.43879603573E+02  0.10474594779E+03  0.86542526023E+02 0.  0.
         23    2    1    2    0    0 -0.26861996647E+02  0.16013501549E+01 -0.46662114163E+02  0.10482441172E+03  0.89925931788E+02 0.  0.
        -11    1    3    3    0    0  0.14341380119E+02 -0.44877469763E+02 -0.20657754315E+00  0.47113746936E+02  0.00000000000E+00 0.  1.
         11    1    3    3    0    0  0.22122081496E+02  0.29807595007E+02  0.44086181116E+02  0.57632200854E+02  0.00000000000E+00 0. -1.
        -11    1    4    4    0    0  0.30386314307E+02  0.12174260111E+02 -0.47203505802E+01  0.33072986197E+02  0.00000000000E+00 0.  1.
         11    1    4    4    0    0 -0.57248310954E+02 -0.10572909956E+02 -0.41941763583E+02  0.71751425522E+02  0.00000000000E+00 0. -1.
         21    1    1    2  503  501  0.21278663490E+01  0.31626542011E+02 -0.22466993753E+03  0.22689501273E+03  0.00000000000E+00 0.  1.
         -1    1    1    2    0  502 -0.11729331318E+02 -0.18158017410E+02 -0.61372508189E+02  0.65068237804E+02  0.00000000000E+00 0.  1.
<scales pt_clust_5="13000.00000" pt_clust_6="13000.00000" pt_clust_7="13000.00000" pt_clust_8="13000.00000" pt_clust_9="20.14442" pt_clust_10="21.61691"></scales>
<clustering>
<clus scale="   21.617">  2 10  1 -1</clus>
<clus scale="   20.144">  2  9  1 -1</clus>
<clus scale="   86.543">  5  6 -1 -1</clus>
<clus scale="   89.926">  7  8 -1 -1</clus>
<clus scale="   93.551">  1  5  2 -1</clus>
<clus scale="   21.617">  2  5  1 -1</clus>
</clustering>
</event>
<event>
10    2  0.6640105E-006  0.1625818E+03  0.7546771E-02  0.1189830E+00
         21   -1    0    0  501  502  0.00000000000E+00  0.00000000000E+00  0.12586185416E+03  0.12586185416E+03  0.00000000000E+00 0. -1.
          2   -1    0    0  503    0 -0.00000000000E+00 -0.00000000000E+00 -0.41802258194E+03  0.41802258194E+03  0.00000000000E+00 0. -1.
         23    2    1    2    0    0  0.76405659097E+02 -0.66283604532E+02 -0.18542094983E+03  0.23933764281E+03  0.11256215020E+03 0.  0.
         23    2    1    2    0    0 -0.14197408673E+03  0.67792639161E+02 -0.74328322875E+02  0.19655245917E+03  0.91409443687E+02 0.  0.
        -11    1    4    4    0    0 -0.79645145446E+01  0.20928285732E+02  0.16676916933E+02  0.27920354475E+02  0.00000000000E+00 0.  1.
         11    1    4    4    0    0 -0.13400957219E+03  0.46864353429E+02 -0.91005239808E+02  0.16863210469E+03  0.00000000000E+00 0. -1.
        -13    1    3    3    0    0  0.21540946199E+00 -0.65396206235E+02 -0.12865269425E+03  0.14431987364E+03  0.00000000000E+00 0. -1.
         13    1    3    3    0    0  0.76190249635E+02 -0.88739829707E+00 -0.56768255588E+02  0.95017769168E+02  0.00000000000E+00 0.  1.
         21    1    1    2  503  502 -0.59952542931E+01 -0.21754682012E+02  0.72573795707E+01  0.23703983246E+02  0.00000000000E+00 0. -1.
          2    1    1    2  501    0  0.71563681928E+02  0.20245647383E+02 -0.39668834638E+02  0.84290350875E+02  0.00000000000E+00 0. -1.
<scales pt_clust_5="13000.00000" pt_clust_6="13000.00000" pt_clust_7="13000.00000" pt_clust_8="13000.00000" pt_clust_9="22.56567" pt_clust_10="72.11493"></scales>
<clustering>
<clus scale="   22.566">  1  9  2 -1</clus>
<clus scale="   72.115">  1 10  2 -1</clus>
<clus scale="   91.409">  5  6 -1 -1</clus>
<clus scale="  112.562">  7  8 -1 -1</clus>
<clus scale="  148.722">  1  5  2 -1</clus>
<clus scale="   22.566">  1  5  2 -1</clus>
</clustering>
</event>
<event>
10    2  0.6640105E-006  0.1014147E+03  0.7546771E-02  0.1278215E+00
         21   -1    0    0  501  502  0.00000000000E+00  0.00000000000E+00  0.29870854671E+03  0.29870854671E+03  0.00000000000E+00 0. -1.
          2   -1    0    0  503    0 -0.00000000000E+00 -0.00000000000E+00 -0.27165741230E+03  0.27165741230E+03  0.00000000000E+00 0. -1.
         23    2    1    2    0    0  0.31345491120E+02 -0.39701346153E+01 -0.13013877999E+03  0.16257106961E+03  0.92168046719E+02 0.  0.
         23    2    1    2    0    0 -0.33699908430E+02  0.75425644653E+02 -0.80716093979E+02  0.14662849890E+03  0.90333366833E+02 0.  0.
        -11    1    3    3    0    0  0.13041832487E+02 -0.41211670619E+02 -0.25936730533E+02  0.50410367788E+02  0.00000000000E+00 0. -1.
         11    1    3    3    0    0  0.18303658632E+02  0.37241536003E+02 -0.10420204945E+03  0.11216070182E+03  0.00000000000E+00 0.  1.
        -11    1    4    4    0    0  0.83531765721E+01  0.69209249312E+02 -0.20025303432E+02  0.72530741942E+02  0.00000000000E+00 0.  1.
         11    1    4    4    0    0 -0.42053085002E+02  0.62163953413E+01 -0.60690790546E+02  0.74097756959E+02  0.00000000000E+00 0. -1.
         21    1    1    2  503  502  0.78647276886E+01 -0.22901007865E+02  0.70844973839E+01  0.25228955706E+02  0.00000000000E+00 0.  1.
          2    1    1    2  501    0 -0.55103103787E+01 -0.48554502173E+02  0.23082151099E+03  0.23593743479E+03  0.00000000000E+00 0. -1.
<scales pt_clust_5="13000.00000" pt_clust_6="13000.00000" pt_clust_7="13000.00000" pt_clust_8="13000.00000" pt_clust_9="24.21384" pt_clust_10="67.47726"></scales>
<clustering>
<clus scale="   24.214">  1  9  2 -1</clus>
<clus scale="   67.477">  1 10  2 -1</clus>
<clus scale="   90.333">  7  8 -1 -1</clus>
<clus scale="   92.168">  5  6 -1 -1</clus>
<clus scale="   99.750">  1  7  2 -1</clus>
<clus scale="   24.214">  1  5  2 -1</clus>
</clustering>
</event>
<event>
10    2  0.6640105E-006  0.1772003E+03  0.7546771E-02  0.1170734E+00
         21   -1    0    0  503  502  0.00000000000E+00  0.00000000000E+00  0.21802593132E+03  0.21802593132E+03  0.00000000000E+00 0. -1.
          3   -1    0    0  502    0 -0.00000000000E+00 -0.00000000000E+00 -0.41729857007E+03  0.41729857007E+03  0.00000000000E+00 0. -1.
         23    2    1    2    0    0 -0.12107321961E+03  0.71818004644E+02 -0.18011620714E+03  0.24541298162E+03  0.89270001555E+02 0.  0.
         23    2    1    2    0    0  0.15725883254E+03 -0.65471900729E+02 -0.13924602358E+03  0.23801574989E+03  0.90802708752E+02 0.  0.
        -11    1    3    3    0    0 -0.10541196020E+03  0.24644136193E+02 -0.83340144647E+02  0.13661842670E+03  0.00000000000E+00 0. -1.
         11    1    3    3    0    0 -0.15661259407E+02  0.47173868451E+02 -0.96776062491E+02  0.10879455493E+03  0.00000000000E+00 0.  1.
        -11    1    4    4    0    0  0.11743027715E+03 -0.31857333410E+02 -0.43894284868E+02  0.12935017560E+03  0.00000000000E+00 0. -1.
         11    1    4    4    0    0  0.39828555385E+02 -0.33614567319E+02 -0.95351738711E+02  0.10866557429E+03  0.00000000000E+00 0.  1.
         21    1    1    2  503  501 -0.50991062969E+01 -0.20819532699E+02  0.11529609515E+03  0.11727166488E+03  0.00000000000E+00 0. -1.
          3    1    1    2  501    0 -0.31086506627E+02  0.14473428784E+02  0.47934968109E+01  0.34624104995E+02  0.00000000000E+00 0. -1.
<scales pt_clust_5="13000.00000" pt_clust_6="13000.00000" pt_clust_7="13000.00000" pt_clust_8="13000.00000" pt_clust_9="21.43487" pt_clust_10="33.73071"></scales>
<clustering>
<clus scale="   21.435">  1  9  2 -1</clus>
<clus scale="   33.731">  1 10  2 -1</clus>
<clus scale="   89.270">  5  6 -1 -1</clus>
<clus scale="   90.803">  7  8 -1 -1</clus>
<clus scale="  176.420">  2  5  1 -1</clus>
<clus scale="   21.435">  1  5  2 -1</clus>
</clustering>
</event>
<event>
10    2  0.6640105E-006  0.1235725E+03  0.7546771E-02  0.1237621E+00
         -2   -1    0    0    0  501 -0.00000000000E+00  0.00000000000E+00  0.35634595721E+03  0.35634595721E+03  0.00000000000E+00 0.  1.
         21   -1    0    0  503  502  0.00000000000E+00 -0.00000000000E+00 -0.27376459027E+03  0.27376459027E+03  0.00000000000E+00 0.  1.
         23    2    1    2    0    0  0.68960207226E+02  0.50354705184E+02  0.28453891037E+03  0.31067908602E+03  0.90928523917E+02 0.  0.
         23    2    1    2    0    0 -0.76090564404E+02  0.81357350788E+01 -0.79309627697E+02  0.14353380342E+03  0.91956356506E+02 0.  0.
        -11    1    3    3    0    0 -0.32673572541E+01  0.43696944083E+02  0.57235953881E+02  0.72083652531E+02  0.00000000000E+00 0. -1.
         11    1    3    3    0    0  0.72227564480E+02  0.66577611011E+01  0.22730295648E+03  0.23859543349E+03  0.00000000000E+00 0.  1.
        -11    1    4    4    0    0 -0.22793634151E+02 -0.27358451321E+02  0.67713627051E+01  0.36247565013E+02  0.00000000000E+00 0. -1.
         11    1    4    4    0    0 -0.53296930253E+02  0.35494186400E+02 -0.86080990402E+02  0.10728623841E+03  0.00000000000E+00 0.  1.
         21    1    1    2  503  501  0.13916108793E+02  0.32018276143E+02 -0.40607534488E+02  0.53551843556E+02  0.00000000000E+00 0.  1.
         -2    1    1    2    0  502 -0.67857516141E+01 -0.90508716406E+02 -0.82040381236E+02  0.12234581449E+03  0.00000000000E+00 0.  1.
<scales pt_clust_5="13000.00000" pt_clust_6="13000.00000" pt_clust_7="13000.00000" pt_clust_8="13000.00000" pt_clust_9="34.91172" pt_clust_10="76.07610"></scales>
<clustering>
<clus scale="   34.912">  2  9  1 -1</clus>
<clus scale="   76.076">  2 10  1 -1</clus>
<clus scale="   90.929">  5  6 -1 -1</clus>
<clus scale="   91.956">  7  8 -1 -1</clus>
<clus scale="  122.810">  1  5  2 -1</clus>
<clus scale="   34.912">  2  5  1 -1</clus>
</clustering>
</event>
<event>
10    2  0.6640105E-006  0.1412803E+03  0.7546771E-02  0.1228967E+00
         21   -1    0    0  501  502  0.00000000000E+00  0.00000000000E+00  0.89949229900E+02  0.89949229900E+02  0.00000000000E+00 0. -1.
          2   -1    0    0  503    0 -0.00000000000E+00 -0.00000000000E+00 -0.10493915033E+04  0.10493915033E+04  0.00000000000E+00 0. -1.
         23    2    1    2    0    0 -0.56541358256E+01  0.35721614147E+02 -0.52429460357E+03  0.53340433553E+03  0.91254319651E+02 0.  0.
         23    2    1    2    0    0  0.16889402875E+02  0.50923518605E+02 -0.19790759087E+03  0.22364978529E+03  0.89293646239E+02 0.  0.
        -11    1    3    3    0    0 -0.46039010081E+02  0.31647301760E+01 -0.26101042662E+03  0.26505857611E+03  0.00000000000E+00 0.  1.
         11    1    3    3    0    0  0.40384874255E+02  0.32556883971E+02 -0.26328417696E+03  0.26834575942E+03  0.00000000000E+00 0. -1.
        -13    1    4    4    0    0  0.35015354889E+02 -0.53106832345E+01 -0.32731983051E+02  0.48225109112E+02  0.00000000000E+00 0.  1.
         13    1    4    4    0    0 -0.18125952014E+02  0.56234201840E+02 -0.16517560782E+03  0.17542467618E+03  0.00000000000E+00 0. -1.
         21    1    1    2  503  502 -0.97856443034E+02 -0.15853449535E+03 -0.13339471784E+03  0.22913581214E+03  0.00000000000E+00 0. -1.
          2    1    1    2  501    0  0.86621175985E+02  0.71889362599E+02 -0.10384536107E+03  0.15315080019E+03  0.00000000000E+00 0. -1.
<scales pt_clust_5="13000.00000" pt_clust_6="13000.00000" pt_clust_7="13000.00000" pt_clust_8="13000.00000" pt_clust_9="141.28034" pt_clust_10="13000.00000"></scales>
<clustering>
<clus scale="   89.294">  7  8 -1 -1</clus>
<clus scale="   91.254">  5  6 -1 -1</clus>
<clus scale="   98.160">  2  5  1 -1</clus>
<clus scale="  111.634">  2  7  1 -1</clus>
<clus scale="  141.280">  2  9  1 -1</clus>
<clus scale="  141.280">  1  5  2 -1</clus>
</clustering>
</event>
<event>
10    2  0.6640105E-006  0.1036076E+03  0.7546771E-02  0.1273253E+00
          1   -1    0    0  502    0 -0.00000000000E+00  0.00000000000E+00  0.28932064924E+03  0.28932064924E+03  0.00000000000E+00 0. -1.
         21   -1    0    0  503  502  0.00000000000E+00 -0.00000000000E+00 -0.14860973561E+03  0.14860973561E+03  0.00000000000E+00 0. -1.
         23    2    1    2    0    0 -0.56036472079E+02 -0.39769247801E+02  0.13541602517E+03  0.17698155329E+03  0.90902646038E+02 0.  0.
         23    2    1    2    0    0  0.36207467426E+02 -0.91582045300E+01  0.76929358407E+02  0.12420310327E+03  0.90074587252E+02 0.  0.
        -11    1    3    3    0    0 -0.47389831510E+02  0.18107086967E+02  0.38174009055E+02  0.63489508554E+02  0.00000000000E+00 0.  1.
         11    1    3    3    0    0 -0.86466405683E+01 -0.57876334768E+02  0.97242016118E+02  0.11349204473E+03  0.00000000000E+00 0. -1.
        -13    1    4    4    0    0  0.37214793074E+02  0.18080535612E+02 -0.12653659000E+01  0.41393812853E+02  0.00000000000E+00 0.  1.
         13    1    4    4    0    0 -0.10073256486E+01 -0.27238740143E+02  0.78194724307E+02  0.82809290414E+02  0.00000000000E+00 0. -1.
         21    1    1    2  503  501  0.43915398684E+02  0.29973553000E+00 -0.69778242732E+02  0.82447894101E+02  0.00000000000E+00 0. -1.
          1    1    1    2  501    0 -0.24086394031E+02  0.48627716801E+02 -0.18562272098E+01  0.54297834194E+02  0.00000000000E+00 0. -1.
<scales pt_clust_5="13000.00000" pt_clust_6="13000.00000" pt_clust_7="13000.00000" pt_clust_8="13000.00000" pt_clust_9="43.91642" pt_clust_10="49.25509"></scales>
<clustering>
<clus scale="   43.916">  2  9  1 -1</clus>
<clus scale="   49.255">  2 10  1 -1</clus>
<clus scale="   90.075">  7  8 -1 -1</clus>
<clus scale="   90.903">  5  6 -1 -1</clus>
<clus scale="  102.882">  2  7  1 -1</clus>
<clus scale="   43.916">  2  5  1 -1</clus>
</clustering>
</event>
<event>
10    2  0.6640105E-006  0.1052235E+03  0.7546771E-02  0.1269830E+00
         21   -1    0    0  501  502  0.00000000000E+00  0.00000000000E+00  0.11316129155E+03  0.11316129155E+03  0.00000000000E+00 0.  1.
         -2   -1    0    0    0  501 -0.00000000000E+00 -0.00000000000E+00 -0.51910555929E+03  0.51910555929E+03  0.00000000000E+00 0.  1.
         23    2    1    2    0    0 -0.66470432222E+02  0.27282466751E+02 -0.31167500330E+03  0.33215965450E+03  0.89588375598E+02 0.  0.
         23    2    1    2    0    0  0.26100689364E+02 -0.10419879795E+02 -0.12533288464E+03  0.15680742635E+03  0.89946745939E+02 0.  0.
        -11    1    4    4    0    0  0.16295122075E+02 -0.47889179017E+02 -0.45338526245E+02  0.67930011280E+02  0.00000000000E+00 0. -1.
         11    1    4    4    0    0  0.98055672889E+01  0.37469299221E+02 -0.79994358399E+02  0.88877415070E+02  0.00000000000E+00 0.  1.
        -13    1    3    3    0    0 -0.35320612336E+02 -0.32123341373E+02 -0.13275820469E+03  0.14108223003E+03  0.00000000000E+00 0. -1.
         13    1    3    3    0    0 -0.31149819886E+02  0.59405808123E+02 -0.17891679861E+03  0.19107742447E+03  0.00000000000E+00 0.  1.
         21    1    1    2  503  502  0.22628275292E+02 -0.85746516935E+00  0.83051812746E+02  0.86083550633E+02  0.00000000000E+00 0.  1.
         -2    1    1    2    0  503  0.17741467565E+02 -0.16005121786E+02 -0.51988192532E+02  0.57216219357E+02  0.00000000000E+00 0.  1.
<scales pt_clust_5="13000.00000" pt_clust_6="13000.00000" pt_clust_7="13000.00000" pt_clust_8="13000.00000" pt_clust_9="22.64452" pt_clust_10="25.51708"></scales>
<clustering>
<clus scale="   22.645">  1  9  2 -1</clus>
<clus scale="   25.517">  1 10  2 -1</clus>
<clus scale="   89.588">  7  8 -1 -1</clus>
<clus scale="   89.947">  5  6 -1 -1</clus>
<clus scale="  104.917">  2  7  1 -1</clus>
<clus scale="   22.645">  1  5  2 -1</clus>
</clustering>
</event>
<event>
10    2  0.6640105E-006  0.1201673E+03  0.7546771E-02  0.1243301E+00
          2   -1    0    0  503    0 -0.00000000000E+00  0.00000000000E+00  0.25426045106E+03  0.25426045106E+03  0.00000000000E+00 0. -1.
         21   -1    0    0  501  502  0.00000000000E+00 -0.00000000000E+00 -0.17971209191E+03  0.17971209191E+03  0.00000000000E+00 0. -1.
         23    2    1    2    0    0  0.57921963040E+02  0.63634683988E+02  0.15321515902E+03  0.19838917957E+03  0.92081783246E+02 0.  0.
         23    2    1    2    0    0 -0.10412217831E+02 -0.64592230470E+02  0.10716942297E+02  0.11223627599E+03  0.90562455125E+02 0.  0.
        -11    1    3    3    0    0  0.55241843457E+02 -0.30749486165E+01  0.45370485363E+02  0.71551362807E+02  0.00000000000E+00 0.  1.
         11    1    3    3    0    0  0.26801195830E+01  0.66709632604E+02  0.10784467366E+03  0.12683781676E+03  0.00000000000E+00 0. -1.
        -11    1    4    4    0    0 -0.33619301988E+02 -0.29330466539E+02 -0.29858100242E+02  0.53684633589E+02  0.00000000000E+00 0.  1.
         11    1    4    4    0    0  0.23207084157E+02 -0.35261763932E+02  0.40575042539E+02  0.58551642400E+02  0.00000000000E+00 0. -1.
         21    1    1    2  503  502  0.11954725715E+01  0.23439849161E+02 -0.54552684775E+02  0.59387297460E+02  0.00000000000E+00 0. -1.
          2    1    1    2  501    0 -0.48705217781E+02 -0.22482302678E+02 -0.34831057391E+02  0.63959789960E+02  0.00000000000E+00 0. -1.
<scales pt_clust_5="13000.00000" pt_clust_6="13000.00000" pt_clust_7="13000.00000" pt_clust_8="13000.00000" pt_clust_9="23.47031" pt_clust_10="49.95849"></scales>
<clustering>
<clus scale="   23.470">  2  9  1 -1</clus>
<clus scale="   49.958">  2 10  1 -1</clus>
<clus scale="   90.562">  7  8 -1 -1</clus>
<clus scale="   92.082">  5  6 -1 -1</clus>
<clus scale="  119.007">  2  7  1 -1</clus>
<clus scale="   23.470">  2  5  1 -1</clus>
</clustering>
</event>
<event>
10    2  0.6640105E-006  0.3574491E+03  0.7546771E-02  0.1059628E+00
          2   -1    0    0  502    0 -0.00000000000E+00  0.00000000000E+00  0.54074417495E+03  0.54074417495E+03  0.00000000000E+00 0. -1.
         21   -1    0    0  503  502  0.00000000000E+00 -0.00000000000E+00 -0.53812572013E+03  0.53812572013E+03  0.00000000000E+00 0. -1.
         23    2    1    2    0    0  0.44232277296E+02 -0.38378359589E+03  0.30231601074E+03  0.49927179103E+03  0.92903219195E+02 0.  0.
         23    2    1    2    0    0  0.33787475959E+02  0.27293317650E+03 -0.65301657233E+02  0.29718114538E+03  0.91750827606E+02 0.  0.
        -11    1    4    4    0    0 -0.14537535610E+02  0.13793893853E+03 -0.66437370281E+02  0.15379341622E+03  0.00000000000E+00 0.  1.
         11    1    4    4    0    0  0.48325011569E+02  0.13499423797E+03  0.11357130475E+01  0.14338772916E+03  0.00000000000E+00 0. -1.
        -11    1    3    3    0    0 -0.19609694809E+02 -0.33272981738E+02  0.47644983745E+02  0.61332502968E+02  0.00000000000E+00 0.  1.
         11    1    3    3    0    0  0.63841972105E+02 -0.35051061416E+03  0.25467102700E+03  0.43793928806E+03  0.00000000000E+00 0. -1.
         21    1    1    2  503  501 -0.21458556358E+02  0.13948220925E+02 -0.11801270483E+03  0.12075603923E+03  0.00000000000E+00 0.  1.
          2    1    1    2  501    0 -0.56561196897E+02  0.96902198470E+02 -0.11638319386E+03  0.16166091944E+03  0.00000000000E+00 0. -1.
<scales pt_clust_5="13000.00000" pt_clust_6="13000.00000" pt_clust_7="13000.00000" pt_clust_8="13000.00000" pt_clust_9="25.59341" pt_clust_10="119.85318"></scales>
<clustering>
<clus scale="   25.593">  2  9  1 -1</clus>
<clus scale="   91.751">  5  6 -1 -1</clus>
<clus scale="   92.903">  7  8 -1 -1</clus>
<clus scale="  119.853">  2 10  1 -1</clus>
<clus scale="  357.151">  2  5  1 -1</clus>
<clus scale="   25.593">  2  5  1 -1</clus>
</clustering>
</event>
<event>
10    2  0.6640105E-006  0.9527675E+02  0.7546771E-02  0.1291293E+00
          1   -1    0    0  503    0 -0.00000000000E+00  0.00000000000E+00  0.67101883571E+03  0.67101883571E+03  0.00000000000E+00 0. -1.
         21   -1    0    0  501  502  0.00000000000E+00 -0.00000000000E+00 -0.26585435472E+02  0.26585435472E+02  0.00000000000E+00 0.  1.
         23    2    1    2    0    0  0.44972666275E+01 -0.15112214111E+01  0.29533921579E+03  0.30891041696E+03  0.90431654457E+02 0.  0.
         23    2    1    2    0    0 -0.35070587487E+02  0.26414750583E+02  0.20908893389E+03  0.23253213765E+03  0.91789583326E+02 0.  0.
        -11    1    4    4    0    0 -0.63810942166E+02  0.27241353063E+02  0.17296840741E+03  0.18636522642E+03  0.00000000000E+00 0. -1.
         11    1    4    4    0    0  0.28740354679E+02 -0.82660248031E+00  0.36120526479E+02  0.46166911223E+02  0.00000000000E+00 0.  1.
        -13    1    3    3    0    0 -0.21865238464E+02 -0.35940947092E+02  0.19688842379E+03  0.20133278857E+03  0.00000000000E+00 0. -1.
         13    1    3    3    0    0  0.26362505091E+02  0.34429725681E+02  0.98450791991E+02  0.10757762838E+03  0.00000000000E+00 0.  1.
         21    1    1    2  503  502  0.88489879729E+01 -0.35633515106E+02  0.11746273442E+03  0.12306724164E+03  0.00000000000E+00 0.  1.
          1    1    1    2  501    0  0.21724332887E+02  0.10729985934E+02  0.22542516139E+02  0.33094474937E+02  0.00000000000E+00 0. -1.
<scales pt_clust_5="13000.00000" pt_clust_6="13000.00000" pt_clust_7="13000.00000" pt_clust_8="13000.00000" pt_clust_9="36.16911" pt_clust_10="24.22972"></scales>
<clustering>
<clus scale="   24.230">  2 10  1 -1</clus>
<clus scale="   36.169">  1  9  2 -1</clus>
<clus scale="   90.432">  7  8 -1 -1</clus>
<clus scale="   91.790">  5  6 -1 -1</clus>
<clus scale="   93.969">  1  7  2 -1</clus>
<clus scale="   24.230">  2  5  1 -1</clus>
</clustering>
</event>
<event>
10    2  0.6640105E-006  0.1267066E+03  0.7546771E-02  0.1245248E+00
         -3   -1    0    0    0  501 -0.00000000000E+00  0.00000000000E+00  0.14251804552E+03  0.14251804552E+03  0.00000000000E+00 0.  1.
         21   -1    0    0  503  502  0.00000000000E+00 -0.00000000000E+00 -0.64794841764E+03  0.64794841764E+03  0.00000000000E+00 0.  1.
         23    2    1    2    0    0  0.24100174055E+02  0.46192575603E+01  0.14538425601E+02  0.98684759375E+02  0.94473064860E+02 0.  0.
         23    2    1    2    0    0 -0.98962487507E+02 -0.38314686354E+02 -0.31825136525E+02  0.14452091264E+03  0.92800138754E+02 0.  0.
        -11    1    3    3    0    0 -0.24420363501E+02 -0.18749130259E+02  0.29656871554E+02  0.42748263935E+02  0.00000000000E+00 0. -1.
         11    1    3    3    0    0  0.48520537557E+02  0.23368387820E+02 -0.15118445953E+02  0.55936495440E+02  0.00000000000E+00 0.  1.
        -13    1    4    4    0    0 -0.19427408327E+01  0.20983504157E+02 -0.21884273112E+02  0.30380966052E+02  0.00000000000E+00 0. -1.
         13    1    4    4    0    0 -0.97019746674E+02 -0.59298190512E+02 -0.99408634138E+01  0.11413994659E+03  0.00000000000E+00 0.  1.
         21    1    1    2  503  501  0.72701439874E+02 -0.84248154644E+02 -0.34083355573E+03  0.35853976576E+03  0.00000000000E+00 0.  1.
         -3    1    1    2    0  502  0.21608735777E+01  0.11794358344E+03 -0.14731010547E+03  0.18872102538E+03  0.00000000000E+00 0.  1.
<scales pt_clust_5="13000.00000" pt_clust_6="13000.00000" pt_clust_7="13000.00000" pt_clust_8="13000.00000" pt_clust_9="112.56360" pt_clust_10="86.27100"></scales>
<clustering>
<clus scale="   92.800">  7  8 -1 -1</clus>
<clus scale="   94.473">  5  6 -1 -1</clus>
<clus scale="   97.608">  1  5  2 -1</clus>
<clus scale="  112.564">  2  9  1 -1</clus>
<clus scale="   86.271">  2 10  1 -1</clus>
<clus scale="  112.564">  2  5  1 -1</clus>
</clustering>
</event>
<event>
10    2  0.6640105E-006  0.1966176E+03  0.7546771E-02  0.1153680E+00
         -1   -1    0    0    0  501 -0.00000000000E+00  0.00000000000E+00  0.18720505179E+04  0.18720505179E+04  0.00000000000E+00 0.  1.
         21   -1    0    0  503  502  0.00000000000E+00 -0.00000000000E+00 -0.33198211766E+02  0.33198211766E+02  0.00000000000E+00 0. -1.
         23    2    1    2    0    0 -0.11149065047E+03  0.14849243264E+03  0.96115688355E+03  0.98243416014E+03  0.82910533212E+02 0.  0.
         23    2    1    2    0    0  0.11141117880E+03 -0.11552631678E+03  0.77802701901E+03  0.79989720014E+03  0.93545218253E+02 0.  0.
        -13    1    3    3    0    0 -0.11720989663E+03  0.12795114645E+03  0.91847664555E+03  0.93472402567E+03  0.00000000000E+00 0.  1.
         13    1    3    3    0    0  0.57192461614E+01  0.20541286195E+02  0.42680238000E+02  0.47710134468E+02  0.00000000000E+00 0. -1.
        -13    1    4    4    0    0 -0.38948213262E+01 -0.51544629801E+02  0.27857091030E+03  0.28332626169E+03  0.00000000000E+00 0.  1.
         13    1    4    4    0    0  0.11530600012E+03 -0.63981686980E+02  0.49945610871E+03  0.51657093845E+03  0.00000000000E+00 0. -1.
         21    1    1    2  503  501 -0.20842916213E+02 -0.58019011459E+00  0.61133323323E+01  0.21728704725E+02  0.00000000000E+00 0. -1.
         -1    1    1    2    0  502  0.20922387883E+02 -0.32385925747E+02  0.93555071278E+02  0.10118866470E+03  0.00000000000E+00 0.  1.
<scales pt_clust_5="13000.00000" pt_clust_6="13000.00000" pt_clust_7="13000.00000" pt_clust_8="13000.00000" pt_clust_9="20.85099" pt_clust_10="37.02649"></scales>
<clustering>
<clus scale="   20.851">  2  9  1 -1</clus>
<clus scale="   37.026">  2 10  1 -1</clus>
<clus scale="   82.911">  5  6 -1 -1</clus>
<clus scale="   93.545">  7  8 -1 -1</clus>
<clus scale="  191.786">  1  5  2 -1</clus>
<clus scale="   20.851">  2  5  1 -1</clus>
</clustering>
</event>
<event>
10    2  0.6640105E-006  0.1563156E+03  0.7546771E-02  0.1193115E+00
          1   -1    0    0  503    0 -0.00000000000E+00  0.00000000000E+00  0.60273347586E+03  0.60273347586E+03  0.00000000000E+00 0. -1.
         21   -1    0    0  501  502  0.00000000000E+00 -0.00000000000E+00 -0.75447686284E+02  0.75447686284E+02  0.00000000000E+00 0.  1.
         23    2    1    2    0    0  0.46151562286E+01 -0.14993037665E+03  0.29767478540E+03  0.34563823880E+03  0.91406218332E+02 0.  0.
         23    2    1    2    0    0  0.49183150046E+02  0.86422766104E+02  0.88470965255E+02  0.16210696716E+03  0.92540155391E+02 0.  0.
        -13    1    3    3    0    0  0.21133330482E+02 -0.63259148193E+02  0.51912078172E+02  0.84517461791E+02  0.00000000000E+00 0.  1.
         13    1    3    3    0    0 -0.16518174254E+02 -0.86671228453E+02  0.24576270722E+03  0.26112077701E+03  0.00000000000E+00 0. -1.
        -13    1    4    4    0    0  0.70869529481E+02  0.81057289558E+02  0.52559027487E+02  0.11981329546E+03  0.00000000000E+00 0.  1.
         13    1    4    4    0    0 -0.21686379434E+02  0.53654765466E+01  0.35911937769E+02  0.42293671700E+02  0.00000000000E+00 0. -1.
         21    1    1    2  503  502 -0.34060976172E+02  0.30323634562E+02  0.34984192133E+02  0.57476661437E+02  0.00000000000E+00 0.  1.
          1    1    1    2  501    0 -0.19737330103E+02  0.33183975980E+02  0.10615584679E+03  0.11295929474E+03  0.00000000000E+00 0. -1.
<scales pt_clust_5="13000.00000" pt_clust_6="13000.00000" pt_clust_7="13000.00000" pt_clust_8="13000.00000" pt_clust_9="51.38120" pt_clust_10="38.61010"></scales>
<clustering>
<clus scale="   38.610">  2 10  1 -1</clus>
<clus scale="   51.381">  2  9  1 -1</clus>
<clus scale="   91.406">  5  6 -1 -1</clus>
<clus scale="   92.540">  7  8 -1 -1</clus>
<clus scale="  155.647">  1  5  2 -1</clus>
<clus scale="   38.610">  2  5  1 -1</clus>
</clustering>
</event>
<event>
10    2  0.6640105E-006  0.2588746E+03  0.7546771E-02  0.1121719E+00
          1   -1    0    0  502    0 -0.00000000000E+00  0.00000000000E+00  0.56546343892E+03  0.56546343892E+03  0.00000000000E+00 0. -1.
         21   -1    0    0  503  502  0.00000000000E+00 -0.00000000000E+00 -0.37378377480E+03  0.37378377480E+03  0.00000000000E+00 0. -1.
         23    2    1    2    0    0 -0.51890525885E+02  0.15360261475E+03  0.28091156250E+02  0.18805601847E+03  0.91047037787E+02 0.  0.
         23    2    1    2    0    0  0.66984210619E+02 -0.35990683340E+03  0.27587528996E+03  0.46775822534E+03  0.93116961737E+02 0.  0.
        -13    1    3    3    0    0 -0.66195383232E+02  0.79579823925E+02  0.41425243925E+02  0.11149362301E+03  0.00000000000E+00 0. -1.
         13    1    3    3    0    0  0.14304857347E+02  0.74022790825E+02 -0.13334087675E+02  0.76562395465E+02  0.00000000000E+00 0.  1.
        -13    1    4    4    0    0  0.38310083172E+02 -0.33470955892E+03  0.26325916206E+03  0.42755530369E+03  0.00000000000E+00 0. -1.
         13    1    4    4    0    0  0.28674127446E+02 -0.25197274480E+02  0.12616127899E+02  0.40202921650E+02  0.00000000000E+00 0.  1.
         21    1    1    2  503  501  0.15439902918E+02 -0.12939265215E+02 -0.49345466937E+02  0.53299064660E+02  0.00000000000E+00 0. -1.
          1    1    1    2  501    0 -0.30533587652E+02  0.21924348386E+03 -0.62941315149E+02  0.23013390524E+03  0.00000000000E+00 0. -1.
<scales pt_clust_5="13000.00000" pt_clust_6="13000.00000" pt_clust_7="13000.00000" pt_clust_8="13000.00000" pt_clust_9="20.14486" pt_clust_10="241.54775"></scales>
<clustering>
<clus scale="   20.145">  2  9  1 -1</clus>
<clus scale="   91.047">  5  6 -1 -1</clus>
<clus scale="   93.117">  7  8 -1 -1</clus>
<clus scale="  182.257">  1  5  2 -1</clus>
<clus scale="  241.548">  2 10  1 -1</clus>
<clus scale="   20.145">  2  5  1 -1</clus>
</clustering>
</event>
<event>
10    2  0.6640105E-006  0.7516857E+03  0.7546771E-02  0.1029208E+00
         21   -1    0    0  503  502  0.00000000000E+00  0.00000000000E+00  0.12756368708E+04  0.12756368708E+04  0.00000000000E+00 0. -1.
          1   -1    0    0  502    0 -0.00000000000E+00 -0.00000000000E+00 -0.10380510479E+04  0.10380510479E+04  0.00000000000E+00 0. -1.
         23    2    1    2    0    0 -0.23116980802E+00  0.66113776406E+01  0.22667904559E+02  0.95109918051E+02  0.92131964382E+02 0.  0.
         23    2    1    2    0    0 -0.98852290952E+02 -0.74533424969E+03 -0.16876579027E+03  0.77601213395E+03  0.91749773191E+02 0.  0.
        -11    1    3    3    0    0 -0.40072055159E+02 -0.18504574340E+02  0.35501550405E+01  0.44280836453E+02  0.00000000000E+00 0. -1.
         11    1    3    3    0    0  0.39840885351E+02  0.25115951981E+02  0.19117749519E+02  0.50829081598E+02  0.00000000000E+00 0.  1.
        -13    1    4    4    0    0 -0.10797527586E+03 -0.69082451916E+03 -0.17388110522E+03  0.72050802579E+03  0.00000000000E+00 0. -1.
         13    1    4    4    0    0  0.91229849049E+01 -0.54509730527E+02  0.51153149433E+01  0.55504108160E+02  0.00000000000E+00 0.  1.
         21    1    1    2  503  501  0.16816700482E+03 -0.73003493394E+01  0.63140707542E+03  0.65345874507E+03  0.00000000000E+00 0. -1.
          1    1    1    2  501    0 -0.69083544061E+02  0.74602322139E+03 -0.24772336676E+03  0.78910712159E+03  0.00000000000E+00 0. -1.
<scales pt_clust_5="13000.00000" pt_clust_6="13000.00000" pt_clust_7="13000.00000" pt_clust_8="13000.00000" pt_clust_9="168.31971" pt_clust_10="746.06560"></scales>
<clustering>
<clus scale="   91.750">  7  8 -1 -1</clus>
<clus scale="   92.132">  5  6 -1 -1</clus>
<clus scale="   92.369">  2  5  1 -1</clus>
<clus scale="  168.320">  1  9  2 -1</clus>
<clus scale="  746.066">  1 10  2 -1</clus>
<clus scale="  168.320">  1  5  2 -1</clus>
</clustering>
</event>
<event>
10    2  0.6640105E-006  0.9891249E+02  0.7546771E-02  0.1283505E+00
         -2   -1    0    0    0  501 -0.00000000000E+00  0.00000000000E+00  0.50713495786E+02  0.50713495786E+02  0.00000000000E+00 0.  1.
         21   -1    0    0  501  502  0.00000000000E+00 -0.00000000000E+00 -0.56955045525E+03  0.56955045525E+03  0.00000000000E+00 0.  1.
         23    2    1    2    0    0  0.46029419936E+02 -0.17231548269E+02 -0.56479793764E+02  0.11826077362E+03  0.91542393009E+02 0.  0.
         23    2    1    2    0    0  0.27055911180E+02  0.34696849601E+02 -0.18627180644E+03  0.21293870558E+03  0.93326377601E+02 0.  0.
        -11    1    4    4    0    0  0.90658018616E+01  0.60744455471E+02 -0.73370800721E+02  0.95683603780E+02  0.00000000000E+00 0. -1.
         11    1    4    4    0    0  0.17990109319E+02 -0.26047605871E+02 -0.11290100572E+03  0.11725510180E+03  0.00000000000E+00 0.  1.
        -13    1    3    3    0    0  0.63386790575E+02  0.99203179916E+01 -0.15276641244E+02  0.65952056042E+02  0.00000000000E+00 0.  1.
         13    1    3    3    0    0 -0.17357370639E+02 -0.27151866261E+02 -0.41203152519E+02  0.52308717576E+02  0.00000000000E+00 0. -1.
         21    1    1    2  503  502 -0.24131102006E+02 -0.95050894828E+01 -0.16988768383E+03  0.17185599183E+03  0.00000000000E+00 0. -1.
         -2    1    1    2    0  503 -0.48954229111E+02 -0.79602118486E+01 -0.10619767543E+03  0.11720848002E+03  0.00000000000E+00 0.  1.
<scales pt_clust_5="13000.00000" pt_clust_6="13000.00000" pt_clust_7="13000.00000" pt_clust_8="13000.00000" pt_clust_9="25.93563" pt_clust_10="56.71911"></scales>
<clustering>
<clus scale="   25.936">  2  9  1 -1</clus>
<clus scale="   56.719">  2 10  1 -1</clus>
<clus scale="   91.542">  7  8 -1 -1</clus>
<clus scale="   93.326">  5  6 -1 -1</clus>
<clus scale="   97.231">  1  7  2 -1</clus>
<clus scale="   25.936">  2  5  1 -1</clus>
</clustering>
</event>
<event>
10    2  0.6640105E-006  0.1393011E+03  0.7546771E-02  0.1216016E+00
          1   -1    0    0  503    0 -0.00000000000E+00  0.00000000000E+00  0.85380707028E+03  0.85380707028E+03  0.00000000000E+00 0. -1.
         21   -1    0    0  501  502  0.00000000000E+00 -0.00000000000E+00 -0.20896365068E+03  0.20896365068E+03  0.00000000000E+00 0. -1.
         23    2    1    2    0    0  0.88559974945E+02 -0.90868503635E+02  0.46202405240E+03  0.48720208795E+03  0.88315884103E+02 0.  0.
         23    2    1    2    0    0 -0.76003391480E+02  0.24109190003E+02  0.27703035809E+03  0.30378339247E+03  0.95816291305E+02 0.  0.
        -11    1    3    3    0    0  0.66852130333E+02 -0.10793414912E+03  0.37631708482E+03  0.39715681563E+03  0.00000000000E+00 0. -1.
         11    1    3    3    0    0  0.21707844612E+02  0.17065645486E+02  0.85706967587E+02  0.90045272316E+02  0.00000000000E+00 0.  1.
        -13    1    4    4    0    0  0.14801006142E+02  0.13685098331E+02  0.12056640650E+02  0.23488598999E+02  0.00000000000E+00 0. -1.
         13    1    4    4    0    0 -0.90804397622E+02  0.10424091672E+02  0.26497371744E+03  0.28029479347E+03  0.00000000000E+00 0.  1.
         21    1    1    2  503  502 -0.10555449905E+03 -0.40412937680E+02 -0.40469166032E+02  0.12005295165E+03  0.00000000000E+00 0. -1.
          1    1    1    2  501    0  0.92997915582E+02  0.10717225131E+03 -0.53741824860E+02  0.15173228889E+03  0.00000000000E+00 0. -1.
<scales pt_clust_5="13000.00000" pt_clust_6="13000.00000" pt_clust_7="13000.00000" pt_clust_8="13000.00000" pt_clust_9="113.02636" pt_clust_10="75.42055"></scales>
<clustering>
<clus scale="   88.316">  5  6 -1 -1</clus>
<clus scale="   95.816">  7  8 -1 -1</clus>
<clus scale="  113.026">  2  9  1 -1</clus>
<clus scale="   75.421">  2 10  1 -1</clus>
<clus scale="  134.252">  1  5  2 -1</clus>
<clus scale="  113.026">  2  5  1 -1</clus>
</clustering>
</event>
<event>
10    2  0.6640105E-006  0.9472371E+02  0.7546771E-02  0.1293749E+00
          3   -1    0    0  503    0 -0.00000000000E+00  0.00000000000E+00  0.86993071017E+02  0.86993071017E+02  0.00000000000E+00 0. -1.
         21   -1    0    0  501  502  0.00000000000E+00 -0.00000000000E+00 -0.41968525445E+03  0.41968525445E+03  0.00000000000E+00 0. -1.
         23    2    1    2    0    0 -0.22656750852E+02  0.59085492525E+01  0.29271627671E+02  0.10074835344E+03  0.93515577425E+02 0.  0.
         23    2    1    2    0    0 -0.12623694162E+02  0.43742112347E+01 -0.10471459114E+03  0.13877862577E+03  0.90088123499E+02 0.  0.
        -11    1    3    3    0    0 -0.25492455395E+02 -0.15240799573E+02  0.57881587939E+02  0.65057093972E+02  0.00000000000E+00 0. -1.
         11    1    3    3    0    0  0.28357045432E+01  0.21149348825E+02 -0.28609960268E+02  0.35691259469E+02  0.00000000000E+00 0.  1.
        -11    1    4    4    0    0  0.35478855794E+02  0.70765665417E+01 -0.20040469949E+02  0.41357555999E+02  0.00000000000E+00 0.  1.
         11    1    4    4    0    0 -0.48102549956E+02 -0.27023553070E+01 -0.84674121189E+02  0.97421069772E+02  0.00000000000E+00 0. -1.
         21    1    1    2  503  502 -0.25681020866E+01 -0.28767768251E+02 -0.82935830060E+02  0.87821019957E+02  0.00000000000E+00 0. -1.
          3    1    1    2  501    0  0.37848547101E+02  0.18485007764E+02 -0.17431338990E+03  0.17933032629E+03  0.00000000000E+00 0. -1.
<scales pt_clust_5="13000.00000" pt_clust_6="13000.00000" pt_clust_7="13000.00000" pt_clust_8="13000.00000" pt_clust_9="28.88217" pt_clust_10="36.63637"></scales>
<clustering>
<clus scale="   28.882">  2  9  1 -1</clus>
<clus scale="   36.636">  2 10  1 -1</clus>
<clus scale="   90.088">  7  8 -1 -1</clus>
<clus scale="   91.342">  2  7  1 -1</clus>
<clus scale="   93.516">  5  6 -1 -1</clus>
<clus scale="   28.882">  2  5  1 -1</clus>
</clustering>
</event>
<event>
10    2  0.6640105E-006  0.1141503E+03  0.7546771E-02  0.1253338E+00
          1   -1    0    0  502    0 -0.00000000000E+00  0.00000000000E+00  0.34866415450E+03  0.34866415450E+03  0.00000000000E+00 0. -1.
         21   -1    0    0  503  502  0.00000000000E+00 -0.00000000000E+00 -0.21969270133E+03  0.21969270133E+03  0.00000000000E+00 0. -1.
         23    2    1    2    0    0 -0.21648166139E+02 -0.51644416461E+02  0.14774822559E+03  0.18212185711E+03  0.90570656522E+02 0.  0.
         23    2    1    2    0    0  0.71984750787E+02  0.57145395306E+02  0.14440960571E+03  0.19401507250E+03  0.91325317343E+02 0.  0.
        -11    1    4    4    0    0  0.57654643261E+02  0.80784970067E+01  0.23569083733E+02  0.62807815687E+02  0.00000000000E+00 0.  1.
         11    1    4    4    0    0  0.14330107526E+02  0.49066898299E+02  0.12084052197E+03  0.13120725682E+03  0.00000000000E+00 0. -1.
        -13    1    3    3    0    0 -0.48059940489E+02 -0.60693300414E+02  0.96037962552E+02  0.12335608962E+03  0.00000000000E+00 0.  1.
         13    1    3    3    0    0  0.26411774350E+02  0.90488839534E+01  0.51710263042E+02  0.58765767492E+02  0.00000000000E+00 0. -1.
         21    1    1    2  503  501  0.16662055618E+02 -0.11227030065E+02 -0.92507772491E+02  0.94664450945E+02  0.00000000000E+00 0. -1.
          1    1    1    2  501    0 -0.66998640266E+02  0.57260512210E+01 -0.70678605637E+02  0.97555475268E+02  0.00000000000E+00 0. -1.
<scales pt_clust_5="13000.00000" pt_clust_6="13000.00000" pt_clust_7="13000.00000" pt_clust_8="13000.00000" pt_clust_9="20.09155" pt_clust_10="55.91232"></scales>
<clustering>
<clus scale="   20.092">  2  9  1 -1</clus>
<clus scale="   55.912">  2 10  1 -1</clus>
<clus scale="   90.571">  7  8 -1 -1</clus>
<clus scale="   91.325">  5  6 -1 -1</clus>
<clus scale="  113.547">  1  7  2 -1</clus>
<clus scale="   20.092">  2  5  1 -1</clus>
</clustering>
</event>
<event>
10    2  0.6640105E-006  0.1711747E+03  0.7546771E-02  0.1200792E+00
         21   -1    0    0  501  502  0.00000000000E+00  0.00000000000E+00  0.17907483225E+03  0.17907483225E+03  0.00000000000E+00 0. -1.
         -1   -1    0    0    0  501 -0.00000000000E+00 -0.00000000000E+00 -0.32094548627E+03  0.32094548627E+03  0.00000000000E+00 0.  1.
         23    2    1    2    0    0 -0.24906142725E+02 -0.12425597742E+01 -0.38629145979E+02  0.10742532273E+03  0.97088254405E+02 0.  0.
         23    2    1    2    0    0 -0.61793301423E+02 -0.11789803632E+03 -0.15735557124E+03  0.22601627489E+03  0.92758943748E+02 0.  0.
        -11    1    3    3    0    0 -0.33763860493E+02  0.28745154105E+02 -0.56177204313E+02  0.71569270252E+02  0.00000000000E+00 0.  1.
         11    1    3    3    0    0  0.88577177680E+01 -0.29987713879E+02  0.17548058334E+02  0.35856052474E+02  0.00000000000E+00 0. -1.
        -11    1    4    4    0    0 -0.58472258329E+02 -0.40851412828E+02 -0.12168073418E+03  0.14104624771E+03  0.00000000000E+00 0.  1.
         11    1    4    4    0    0 -0.33210430937E+01 -0.77046623493E+02 -0.35674837066E+02  0.84970027178E+02  0.00000000000E+00 0. -1.
         21    1    1    2  503  502  0.36444869029E+02  0.12657159720E+02  0.22500440474E+02  0.44662086743E+02  0.00000000000E+00 0. -1.
         -1    1    1    2    0  503  0.50254575119E+02  0.10648343638E+03  0.31613622735E+02  0.12191663416E+03  0.00000000000E+00 0.  1.
<scales pt_clust_5="13000.00000" pt_clust_6="13000.00000" pt_clust_7="13000.00000" pt_clust_8="13000.00000" pt_clust_9="31.91604" pt_clust_10="154.29004"></scales>
<clustering>
<clus scale="   31.916">  9 10 -1 -1</clus>
<clus scale="   92.759">  7  8 -1 -1</clus>
<clus scale="   97.088">  5  6 -1 -1</clus>
<clus scale="  100.240">  2  5  1 -1</clus>
<clus scale="  154.290">  1  9  2 -1</clus>
<clus scale="  154.290">  1  5  2 -1</clus>
</clustering>
</event>
<event>
10    2  0.6640105E-006  0.1038479E+03  0.7546771E-02  0.1275920E+00
         21   -1    0    0  501  502  0.00000000000E+00  0.00000000000E+00  0.66438342792E+02  0.66438342792E+02  0.00000000000E+00 0.  1.
          2   -1    0    0  503    0 -0.00000000000E+00 -0.00000000000E+00 -0.33112586549E+03  0.33112586549E+03  0.00000000000E+00 0. -1.
         23    2    1    2    0    0  0.13534097804E+02  0.44194334956E+02 -0.16268601489E+03  0.19307452406E+03  0.93138184182E+02 0.  0.
         23    2    1    2    0    0 -0.31905182736E+02 -0.36019493813E+02 -0.75821166775E+02  0.12400480363E+03  0.85516064988E+02 0.  0.
        -11    1    4    4    0    0 -0.50577831659E+02 -0.52728151743E+02 -0.56031145394E+02  0.92075318602E+02  0.00000000000E+00 0.  1.
         11    1    4    4    0    0  0.18672648923E+02  0.16708657930E+02 -0.19790021382E+02  0.31929485024E+02  0.00000000000E+00 0. -1.
        -13    1    3    3    0    0 -0.10318862485E+02  0.58039825005E+02 -0.50734893594E+02  0.77776150828E+02  0.00000000000E+00 0.  1.
         13    1    3    3    0    0  0.23852960289E+02 -0.13845490049E+02 -0.11195112130E+03  0.11529837323E+03  0.00000000000E+00 0. -1.
         21    1    1    2  503  502 -0.53414589983E-01 -0.31249590199E+02  0.10889004485E+02  0.33092448677E+02  0.00000000000E+00 0. -1.
          2    1    1    2  501    0  0.18424499522E+02  0.23074749057E+02 -0.37069345514E+02  0.47392431922E+02  0.00000000000E+00 0. -1.
<scales pt_clust_5="13000.00000" pt_clust_6="13000.00000" pt_clust_7="13000.00000" pt_clust_8="13000.00000" pt_clust_9="23.88670" pt_clust_10="29.52807"></scales>
<clustering>
<clus scale="   29.528">  1 10  2 -1</clus>
<clus scale="   23.887">  1  9  2 -1</clus>
<clus scale="   85.516">  5  6 -1 -1</clus>
<clus scale="   93.138">  7  8 -1 -1</clus>
<clus scale="   97.070">  1  5  2 -1</clus>
<clus scale="   29.528">  1  5  2 -1</clus>
</clustering>
</event>
<event>
10    2  0.6640105E-006  0.9355405E+02  0.7546771E-02  0.1295120E+00
         21   -1    0    0  501  502  0.00000000000E+00  0.00000000000E+00  0.16797706566E+03  0.16797706566E+03  0.00000000000E+00 0. -1.
          4   -1    0    0  503    0 -0.00000000000E+00 -0.00000000000E+00 -0.44797601645E+03  0.44797601645E+03  0.00000000000E+00 0. -1.
         23    2    1    2    0    0 -0.28518780258E+02  0.17336179331E+02 -0.28416038227E+03  0.30024588518E+03  0.91030790236E+02 0.  0.
         23    2    1    2    0    0 -0.37815303589E+02  0.37365961707E+02 -0.52293260736E+01  0.10454725856E+03  0.89869745415E+02 0.  0.
        -13    1    3    3    0    0 -0.60453127150E+00 -0.36033406815E+02 -0.89587092459E+02  0.96564066816E+02  0.00000000000E+00 0.  1.
         13    1    3    3    0    0 -0.27914248986E+02  0.53369586146E+02 -0.19457328981E+03  0.20368181836E+03  0.00000000000E+00 0. -1.
        -13    1    4    4    0    0  0.19677467774E+01  0.21988971687E+02 -0.42509024986E+02  0.47899938502E+02  0.00000000000E+00 0. -1.
         13    1    4    4    0    0 -0.39783050367E+02  0.15376990020E+02  0.37279698912E+02  0.56647320056E+02  0.00000000000E+00 0.  1.
         21    1    1    2  503  502  0.11100496299E+03  0.39385855335E-02 -0.47233438201E+02  0.12063622801E+03  0.00000000000E+00 0. -1.
          4    1    1    2  501    0 -0.44670879147E+02 -0.54706079624E+02  0.56624195762E+02  0.90523710360E+02  0.00000000000E+00 0. -1.
<scales pt_clust_5="13000.00000" pt_clust_6="13000.00000" pt_clust_7="13000.00000" pt_clust_8="13000.00000" pt_clust_9="96.02223" pt_clust_10="70.62749"></scales>
<clustering>
<clus scale="   70.627">  1 10  2 -1</clus>
<clus scale="   89.870">  7  8 -1 -1</clus>
<clus scale="   91.031">  5  6 -1 -1</clus>
<clus scale="   96.022">  1  9  2 -1</clus>
<clus scale="   92.425">  1  7  2 -1</clus>
<clus scale="   70.627">  1  5  2 -1</clus>
</clustering>
</event>
<event>
10    2  0.6640105E-006  0.2156412E+03  0.7546771E-02  0.1137320E+00
         21   -1    0    0  501  502  0.00000000000E+00  0.00000000000E+00  0.36685904490E+02  0.36685904490E+02  0.00000000000E+00 0. -1.
          1   -1    0    0  503    0 -0.00000000000E+00 -0.00000000000E+00 -0.18533361009E+04  0.18533361009E+04  0.00000000000E+00 0. -1.
         23    2    1    2    0    0 -0.15231098121E+03  0.13938186563E+03 -0.10852772046E+04  0.11083699599E+04  0.89618178148E+02 0.  0.
         23    2    1    2    0    0  0.11477159967E+03 -0.13990553688E+03 -0.53428298088E+03  0.57088607177E+03  0.87786809594E+02 0.  0.
        -11    1    3    3    0    0 -0.33849704326E+02  0.73149212783E+02 -0.26655092891E+03  0.27847083782E+03  0.00000000000E+00 0.  1.
         11    1    3    3    0    0 -0.11846127688E+03  0.66232652852E+02 -0.81872627566E+03  0.82989912211E+03  0.00000000000E+00 0. -1.
        -13    1    4    4    0    0  0.14526925847E+02 -0.84830787760E+02 -0.25297155589E+03  0.26721134373E+03  0.00000000000E+00 0. -1.
         13    1    4    4    0    0  0.10024467382E+03 -0.55074749117E+02 -0.28131142499E+03  0.30367472804E+03  0.00000000000E+00 0.  1.
         21    1    1    2  503  502  0.66684225932E+00 -0.27768884988E+02 -0.63061695454E+02  0.68908149632E+02  0.00000000000E+00 0. -1.
          1    1    1    2  501    0  0.36872539278E+02  0.28292556230E+02 -0.13402831553E+03  0.14185782409E+03  0.00000000000E+00 0. -1.
<scales pt_clust_5="13000.00000" pt_clust_6="13000.00000" pt_clust_7="13000.00000" pt_clust_8="13000.00000" pt_clust_9="27.77689" pt_clust_10="44.65351"></scales>
<clustering>
<clus scale="   27.777">  1  9  2 -1</clus>
<clus scale="   44.654">  1 10  2 -1</clus>
<clus scale="   87.787">  7  8 -1 -1</clus>
<clus scale="   89.618">  5  6 -1 -1</clus>
<clus scale="  214.887">  1  7  2 -1</clus>
<clus scale="   27.777">  1  5  2 -1</clus>
</clustering>
</event>
<event>
10    2  0.6640105E-006  0.2560390E+03  0.7546771E-02  0.1131094E+00
         21   -1    0    0  503  502  0.00000000000E+00  0.00000000000E+00  0.14518304676E+03  0.14518304676E+03  0.00000000000E+00 0. -1.
          1   -1    0    0  502    0 -0.00000000000E+00 -0.00000000000E+00 -0.24306531015E+04  0.24306531015E+04  0.00000000000E+00 0. -1.
         23    2    1    2    0    0  0.67765372388E+02 -0.10606863065E+03 -0.32670406843E+03  0.36136120227E+03  0.89463233118E+02 0.  0.
         23    2    1    2    0    0 -0.31391238241E+02  0.32152951777E+03 -0.17269282860E+04  0.17592988489E+04  0.92111314769E+02 0.  0.
        -11    1    4    4    0    0 -0.55451145751E+02  0.29479276360E+03 -0.15401118227E+04  0.15690513151E+04  0.00000000000E+00 0. -1.
         11    1    4    4    0    0  0.24059907511E+02  0.26736754176E+02 -0.18681646330E+03  0.19024753384E+03  0.00000000000E+00 0.  1.
        -13    1    3    3    0    0 -0.19232467728E+02 -0.35666249232E+02 -0.63189930492E+02  0.75066213870E+02  0.00000000000E+00 0.  1.
         13    1    3    3    0    0  0.86997840116E+02 -0.70402381420E+02 -0.26351413793E+03  0.28629498840E+03  0.00000000000E+00 0. -1.
         21    1    1    2  503  501 -0.24031042194E+02  0.15735392072E+02  0.69478405448E+02  0.75182061532E+02  0.00000000000E+00 0. -1.
          1    1    1    2  501    0 -0.12343091953E+02 -0.23119627919E+03 -0.30131610583E+03  0.37999403557E+03  0.00000000000E+00 0. -1.
<scales pt_clust_5="13000.00000" pt_clust_6="13000.00000" pt_clust_7="13000.00000" pt_clust_8="13000.00000" pt_clust_9="28.72444" pt_clust_10="238.89636"></scales>
<clustering>
<clus scale="   28.724">  1  9  2 -1</clus>
<clus scale="   89.463">  7  8 -1 -1</clus>
<clus scale="   92.111">  5  6 -1 -1</clus>
<clus scale="  149.414">  2  7  1 -1</clus>
<clus scale="  238.896">  1 10  2 -1</clus>
<clus scale="   28.724">  1  5  2 -1</clus>
</clustering>
</event>
<event>
10    2  0.6640105E-006  0.1154312E+03  0.7546771E-02  0.1250987E+00
         21   -1    0    0  501  502  0.00000000000E+00  0.00000000000E+00  0.97925125246E+02  0.97925125246E+02  0.00000000000E+00 0.  1.
          1   -1    0    0  503    0 -0.00000000000E+00 -0.00000000000E+00 -0.37354184884E+03  0.37354184884E+03  0.00000000000E+00 0. -1.
         23    2    1    2    0    0 -0.26017551007E+02  0.61121168067E+02 -0.15469686216E+03  0.19128487330E+03  0.90807893084E+02 0.  0.
         23    2    1    2    0    0  0.29956172844E+02 -0.69062801380E+02 -0.15689844569E+03  0.19650215488E+03  0.91262981476E+02 0.  0.
        -11    1    3    3    0    0  0.29752925280E+02  0.74751691220E+00 -0.33065246988E+02  0.44487143115E+02  0.00000000000E+00 0.  1.
         11    1    3    3    0    0 -0.55770476287E+02  0.60373651155E+02 -0.12163161517E+03  0.14679773019E+03  0.00000000000E+00 0. -1.
        -13    1    4    4    0    0  0.12038407907E+02  0.16859366504E+02 -0.53889967590E+01  0.21405671910E+02  0.00000000000E+00 0.  1.
         13    1    4    4    0    0  0.17917764937E+02 -0.85922167884E+02 -0.15150944893E+03  0.17509648297E+03  0.00000000000E+00 0. -1.
         21    1    1    2  503  502  0.20795778672E+02 -0.20189137217E+02  0.36005081472E+02  0.46221548697E+02  0.00000000000E+00 0.  1.
          1    1    1    2  501    0 -0.24734400509E+02  0.28130770530E+02 -0.26497220773E-01  0.37458397206E+02  0.00000000000E+00 0. -1.
<scales pt_clust_5="13000.00000" pt_clust_6="13000.00000" pt_clust_7="13000.00000" pt_clust_8="13000.00000" pt_clust_9="28.98389" pt_clust_10="27.94990"></scales>
<clustering>
<clus scale="   28.984">  1  9  2 -1</clus>
<clus scale="   27.950">  1 10  2 -1</clus>
<clus scale="   90.808">  5  6 -1 -1</clus>
<clus scale="   91.263">  7  8 -1 -1</clus>
<clus scale="  115.072">  2  5  1 -1</clus>
<clus scale="   28.984">  1  5  2 -1</clus>
</clustering>
</event>
<event>
10    2  0.6640105E-006  0.1612404E+03  0.7546771E-02  0.1188807E+00
         21   -1    0    0  501  502  0.00000000000E+00  0.00000000000E+00  0.66153078905E+02  0.66153078905E+02  0.00000000000E+00 0.  1.
          2   -1    0    0  503    0 -0.00000000000E+00 -0.00000000000E+00 -0.12381679052E+04  0.12381679052E+04  0.00000000000E+00 0. -1.
         23    2    1    2    0    0  0.14581638765E+03 -0.70446368849E+02 -0.68968306711E+03  0.71411911195E+03  0.89879158883E+02 0.  0.
         23    2    1    2    0    0 -0.10400714402E+03 -0.17325399246E+02 -0.22023936748E+03  0.25695201490E+03  0.80008146504E+02 0.  0.
        -13    1    4    4    0    0 -0.72106372391E+02 -0.48903371207E+02 -0.15397732514E+03  0.17691773600E+03  0.00000000000E+00 0.  1.
         13    1    4    4    0    0 -0.31900771632E+02  0.31577971961E+02 -0.66262042342E+02  0.80034278901E+02  0.00000000000E+00 0. -1.
        -13    1    3    3    0    0  0.59695800733E+02  0.17384485736E+02 -0.23744713733E+03  0.24545254531E+03  0.00000000000E+00 0. -1.
         13    1    3    3    0    0  0.86120586912E+02 -0.87830854584E+02 -0.45223592978E+03  0.46866656664E+03  0.00000000000E+00 0.  1.
         21    1    1    2  503  502 -0.77264788816E+01  0.43573986329E+02  0.17908907157E+02  0.47740126896E+02  0.00000000000E+00 0.  1.
          2    1    1    2  501    0 -0.34082764741E+02  0.44197781766E+02 -0.28000129884E+03  0.28550973034E+03  0.00000000000E+00 0. -1.
<scales pt_clust_5="13000.00000" pt_clust_6="13000.00000" pt_clust_7="13000.00000" pt_clust_8="13000.00000" pt_clust_9="44.25371" pt_clust_10="59.07861"></scales>
<clustering>
<clus scale="   44.254">  1  9  2 -1</clus>
<clus scale="   59.079">  1 10  2 -1</clus>
<clus scale="   80.008">  5  6 -1 -1</clus>
<clus scale="   89.879">  7  8 -1 -1</clus>
<clus scale="  155.953">  1  5  2 -1</clus>
<clus scale="   44.254">  1  5  2 -1</clus>
</clustering>
</event>
<event>
10    2  0.6640105E-006  0.1279169E+03  0.7546771E-02  0.1230735E+00
         -3   -1    0    0    0  501 -0.00000000000E+00  0.00000000000E+00  0.15216442949E+03  0.15216442949E+03  0.00000000000E+00 0.  1.
         21   -1    0    0  503  502  0.00000000000E+00 -0.00000000000E+00 -0.22916182504E+03  0.22916182504E+03  0.00000000000E+00 0. -1.
         23    2    1    2    0    0 -0.80249090492E+02 -0.50237484375E+02 -0.83033624915E+01  0.13138914709E+03  0.90721776790E+02 0.  0.
         23    2    1    2    0    0  0.84995378424E+02  0.18984707070E+02 -0.14107306673E+02  0.12695919029E+03  0.91296146911E+02 0.  0.
        -11    1    4    4    0    0  0.62999447780E+02  0.54911183200E+02 -0.41564161357E+01  0.83674633289E+02  0.00000000000E+00 0.  1.
         11    1    4    4    0    0  0.21995930645E+02 -0.35926476130E+02 -0.99508905378E+01  0.43284556998E+02  0.00000000000E+00 0. -1.
        -13    1    3    3    0    0 -0.12135585476E+02  0.19680218509E+02 -0.23076241699E+02  0.32666440980E+02  0.00000000000E+00 0.  1.
         13    1    3    3    0    0 -0.68113505017E+02 -0.69917702883E+02  0.14772879207E+02  0.98722706113E+02  0.00000000000E+00 0. -1.
         21    1    1    2  503  501 -0.51041785437E+02  0.10230985076E+02 -0.49576044841E+02  0.71886863462E+02  0.00000000000E+00 0. -1.
         -3    1    1    2    0  502  0.46295497505E+02  0.21021792228E+02 -0.50106815383E+01  0.51091053691E+02  0.00000000000E+00 0.  1.
<scales pt_clust_5="13000.00000" pt_clust_6="13000.00000" pt_clust_7="13000.00000" pt_clust_8="13000.00000" pt_clust_9="40.60075" pt_clust_10="50.84478"></scales>
<clustering>
<clus scale="   50.845">  2 10  1 -1</clus>
<clus scale="   40.601">  2  9  1 -1</clus>
<clus scale="   90.722">  7  8 -1 -1</clus>
<clus scale="   91.296">  5  6 -1 -1</clus>
<clus scale="  127.508">  1  7  2 -1</clus>
<clus scale="   50.845">  2  5  1 -1</clus>
</clustering>
</event>
<event>
10    2  0.6640105E-006  0.1125327E+03  0.7546771E-02  0.1256181E+00
          1   -1    0    0  503    0 -0.00000000000E+00  0.00000000000E+00  0.26522697001E+03  0.26522697001E+03  0.00000000000E+00 0. -1.
         21   -1    0    0  501  502  0.00000000000E+00 -0.00000000000E+00 -0.35048103236E+03  0.35048103236E+03  0.00000000000E+00 0. -1.
         23    2    1    2    0    0 -0.51996240020E+02 -0.29211163778E+02  0.12844320839E+03  0.16910119301E+03  0.92415662262E+02 0.  0.
         23    2    1    2    0    0  0.44707544642E+01  0.11562490926E+03  0.16934828563E+02  0.14866527075E+03  0.91790342751E+02 0.  0.
        -11    1    4    4    0    0  0.47767423533E+02  0.53916177608E+02  0.12867835125E+02  0.73172823778E+02  0.00000000000E+00 0.  1.
         11    1    4    4    0    0 -0.43296669068E+02  0.61708731650E+02  0.40669934380E+01  0.75492446972E+02  0.00000000000E+00 0. -1.
        -13    1    3    3    0    0 -0.26387322115E+02 -0.46208890332E+02  0.20762259578E+02  0.57119381447E+02  0.00000000000E+00 0.  1.
         13    1    3    3    0    0 -0.25608917905E+02  0.16997726554E+02  0.10768094881E+03  0.11198181157E+03  0.00000000000E+00 0. -1.
         21    1    1    2  503  502  0.50497557144E+02  0.10206953521E+01 -0.19836744873E+03  0.20469657987E+03  0.00000000000E+00 0. -1.
          1    1    1    2  501    0 -0.29720715877E+01 -0.87434440832E+02 -0.32264650570E+02  0.93244958735E+02  0.00000000000E+00 0. -1.
<scales pt_clust_5="13000.00000" pt_clust_6="13000.00000" pt_clust_7="13000.00000" pt_clust_8="13000.00000" pt_clust_9="50.50787" pt_clust_10="88.90884"></scales>
<clustering>
<clus scale="   50.508">  2  9  1 -1</clus>
<clus scale="   88.909">  2 10  1 -1</clus>
<clus scale="   91.790">  5  6 -1 -1</clus>
<clus scale="   92.416">  7  8 -1 -1</clus>
<clus scale="  112.020">  2  5  1 -1</clus>
<clus scale="   50.508">  2  5  1 -1</clus>
</clustering>
</event>
<event>
10    2  0.6640105E-006  0.1861026E+03  0.7546771E-02  0.1187269E+00
          4   -1    0    0  503    0 -0.00000000000E+00  0.00000000000E+00  0.90676108099E+02  0.90676108099E+02  0.00000000000E+00 0. -1.
         21   -1    0    0  501  502  0.00000000000E+00 -0.00000000000E+00 -0.11022745464E+04  0.11022745464E+04  0.00000000000E+00 0.  1.
         23    2    1    2    0    0 -0.37602439813E+02 -0.36023867309E+02 -0.54278344227E+02  0.11815345374E+03  0.91117712232E+02 0.  0.
         23    2    1    2    0    0  0.46900089791E+02 -0.95689169865E+02 -0.24406449344E+03  0.28246377150E+03  0.94139628221E+02 0.  0.
        -13    1    4    4    0    0 -0.28866930723E+02 -0.20321057310E+02 -0.58581539890E+02  0.68396212435E+02  0.00000000000E+00 0. -1.
         13    1    4    4    0    0  0.75767020514E+02 -0.75368112555E+02 -0.18548295355E+03  0.21406755907E+03  0.00000000000E+00 0.  1.
        -13    1    3    3    0    0  0.18074590028E+02  0.19102378816E+02 -0.17587984457E+02  0.31637460049E+02  0.00000000000E+00 0.  1.
         13    1    3    3    0    0 -0.55677029842E+02 -0.55126246125E+02 -0.36690359770E+02  0.86515993688E+02  0.00000000000E+00 0. -1.
         21    1    1    2  503  502  0.95210510494E+02 -0.53519691461E+02 -0.12077920091E+03  0.16284045583E+03  0.00000000000E+00 0.  1.
          4    1    1    2  501    0 -0.10450816047E+03  0.18523272863E+03 -0.59247639970E+03  0.62949297340E+03  0.00000000000E+00 0. -1.
<scales pt_clust_5="13000.00000" pt_clust_6="13000.00000" pt_clust_7="13000.00000" pt_clust_8="13000.00000" pt_clust_9="105.32776" pt_clust_10="160.53638"></scales>
<clustering>
<clus scale="   91.118">  7  8 -1 -1</clus>
<clus scale="   94.140">  5  6 -1 -1</clus>
<clus scale="  104.948">  1  7  2 -1</clus>
<clus scale="  105.328">  1  9  2 -1</clus>
<clus scale="  160.536">  2 10  1 -1</clus>
<clus scale="  160.536">  2  5  1 -1</clus>
</clustering>
</event>
<event>
10    2  0.6640105E-006  0.1052458E+03  0.7546771E-02  0.1270461E+00
         -1   -1    0    0    0  501 -0.00000000000E+00  0.00000000000E+00  0.62425450148E+03  0.62425450148E+03  0.00000000000E+00 0.  1.
         21   -1    0    0  503  502  0.00000000000E+00 -0.00000000000E+00 -0.28424929757E+03  0.28424929757E+03  0.00000000000E+00 0.  1.
         23    2    1    2    0    0 -0.37469960901E+02 -0.11772480865E+02  0.29170645062E+03  0.30803706155E+03  0.90838255589E+02 0.  0.
         23    2    1    2    0    0  0.63413061668E+02  0.25607572035E+01  0.30842086625E+03  0.32825409443E+03  0.92733736586E+02 0.  0.
        -13    1    4    4    0    0 -0.20522846920E+02  0.11784232246E+02  0.36300328018E+02  0.43333234238E+02  0.00000000000E+00 0. -1.
         13    1    4    4    0    0  0.83935908588E+02 -0.92234750422E+01  0.27212053824E+03  0.28492086019E+03  0.00000000000E+00 0.  1.
        -13    1    3    3    0    0 -0.32211563133E+02 -0.43450605017E+02  0.24783921177E+03  0.25367265277E+03  0.00000000000E+00 0.  1.
         13    1    3    3    0    0 -0.52583977685E+01  0.31678124151E+02  0.43867238851E+02  0.54364408773E+02  0.00000000000E+00 0. -1.
         21    1    1    2  503  501 -0.46252963092E+02  0.25271495069E+02 -0.19835534442E+03  0.20523846549E+03  0.00000000000E+00 0.  1.
         -1    1    1    2    0  502  0.20309862325E+02 -0.16059771407E+02 -0.61766768547E+02  0.66974177577E+02  0.00000000000E+00 0.  1.
<scales pt_clust_5="13000.00000" pt_clust_6="13000.00000" pt_clust_7="13000.00000" pt_clust_8="13000.00000" pt_clust_9="29.55378" pt_clust_10="25.89221"></scales>
<clustering>
<clus scale="   25.892">  2 10  1 -1</clus>
<clus scale="   29.554">  2  9  1 -1</clus>
<clus scale="   90.838">  7  8 -1 -1</clus>
<clus scale="   92.734">  5  6 -1 -1</clus>
<clus scale="  103.580">  1  7  2 -1</clus>
<clus scale="   25.892">  2  5  1 -1</clus>
</clustering>
</event>
<event>
10    2  0.6640105E-006  0.1002648E+03  0.7546771E-02  0.1280887E+00
         21   -1    0    0  503  502  0.00000000000E+00  0.00000000000E+00  0.10744368039E+03  0.10744368039E+03  0.00000000000E+00 0.  1.
         -3   -1    0    0    0  501 -0.00000000000E+00 -0.00000000000E+00 -0.26569254800E+03  0.26569254800E+03  0.00000000000E+00 0.  1.
         23    2    1    2    0    0 -0.20554792663E+02 -0.31786406851E+02 -0.15901426812E+03  0.18772710841E+03  0.92320391057E+02 0.  0.
         23    2    1    2    0    0  0.88918437377E+01  0.46424527993E+02  0.20476487227E+02  0.10367015383E+03  0.89966174657E+02 0.  0.
        -11    1    4    4    0    0 -0.32867704015E+01  0.72451008440E+02  0.18607530314E+02  0.74874506129E+02  0.00000000000E+00 0.  1.
         11    1    4    4    0    0  0.12178614139E+02 -0.26026480447E+02  0.18689569129E+01  0.28795647705E+02  0.00000000000E+00 0. -1.
        -13    1    3    3    0    0  0.14747082228E+02  0.16123743694E+02 -0.10535303479E+03  0.10759513690E+03  0.00000000000E+00 0. -1.
         13    1    3    3    0    0 -0.35301874891E+02 -0.47910150545E+02 -0.53661233334E+02  0.80131971516E+02  0.00000000000E+00 0.  1.
         21    1    1    2  503  501  0.22900202511E+02  0.17899038219E+02  0.15124399655E+02  0.32764955504E+02  0.00000000000E+00 0.  1.
         -3    1    1    2    0  502 -0.11237253586E+02 -0.32537159361E+02 -0.34835486373E+02  0.48974010641E+02  0.00000000000E+00 0.  1.
<scales pt_clust_5="13000.00000" pt_clust_6="13000.00000" pt_clust_7="13000.00000" pt_clust_8="13000.00000" pt_clust_9="29.06535" pt_clust_10="32.38538"></scales>
<clustering>
<clus scale="   29.065">  1  9  2 -1</clus>
<clus scale="   32.385">  1 10  2 -1</clus>
<clus scale="   89.966">  5  6 -1 -1</clus>
<clus scale="   92.320">  7  8 -1 -1</clus>
<clus scale="   98.101">  1  5  2 -1</clus>
<clus scale="   29.065">  1  5  2 -1</clus>
</clustering>
</event>
<event>
10    2  0.6640105E-006  0.1246169E+03  0.7546771E-02  0.1236372E+00
          1   -1    0    0  503    0 -0.00000000000E+00  0.00000000000E+00  0.51016658301E+03  0.51016658301E+03  0.00000000000E+00 0. -1.
         21   -1    0    0  501  502  0.00000000000E+00 -0.00000000000E+00 -0.13623181475E+03  0.13623181475E+03  0.00000000000E+00 0. -1.
         23    2    1    2    0    0 -0.66385719526E+01 -0.85330557419E+02  0.42341262643E+03  0.44165548647E+03  0.91956195249E+02 0.  0.
         23    2    1    2    0    0  0.39508140609E+02  0.68977956061E+02 -0.19706406586E+02  0.12133996823E+03  0.89533199618E+02 0.  0.
        -13    1    4    4    0    0  0.43288502754E+02  0.42423530925E+00 -0.28926891099E+02  0.52065722649E+02  0.00000000000E+00 0. -1.
         13    1    4    4    0    0 -0.37803621442E+01  0.68553720752E+02  0.92204845138E+01  0.69274245586E+02  0.00000000000E+00 0.  1.
        -13    1    3    3    0    0 -0.31947738728E+02  0.36231075157E+01  0.86598291403E+02  0.92374504014E+02  0.00000000000E+00 0.  1.
         13    1    3    3    0    0  0.25309166775E+02 -0.88953664935E+02  0.33681433502E+03  0.34928098246E+03  0.00000000000E+00 0. -1.
         21    1    1    2  503  502  0.50774132203E+01 -0.22520193885E+02 -0.46378645930E+01  0.23546741720E+02  0.00000000000E+00 0. -1.
          1    1    1    2  501    0 -0.37946981877E+02  0.38872795243E+02 -0.25133586989E+02  0.59856201337E+02  0.00000000000E+00 0. -1.
<scales pt_clust_5="13000.00000" pt_clust_6="13000.00000" pt_clust_7="13000.00000" pt_clust_8="13000.00000" pt_clust_9="23.08548" pt_clust_10="47.66921"></scales>
<clustering>
<clus scale="   23.085">  2  9  1 -1</clus>
<clus scale="   47.669">  2 10  1 -1</clus>
<clus scale="   89.533">  5  6 -1 -1</clus>
<clus scale="   91.956">  7  8 -1 -1</clus>
<clus scale="  122.840">  2  5  1 -1</clus>
<clus scale="   23.085">  2  5  1 -1</clus>
</clustering>
</event>
<event>
10    2  0.6640105E-006  0.1239779E+03  0.7546771E-02  0.1236969E+00
          2   -1    0    0  502    0 -0.00000000000E+00  0.00000000000E+00  0.43854873758E+03  0.43854873758E+03  0.00000000000E+00 0. -1.
         21   -1    0    0  503  502  0.00000000000E+00 -0.00000000000E+00 -0.29030122967E+03  0.29030122967E+03  0.00000000000E+00 0. -1.
         23    2    1    2    0    0  0.60788513329E+01  0.48071873327E+02  0.13899605456E+03  0.17248463110E+03  0.89906547836E+02 0.  0.
         23    2    1    2    0    0 -0.50485325270E+02 -0.13498764494E+03  0.23840692348E+03  0.29304366271E+03  0.90919165940E+02 0.  0.
        -13    1    3    3    0    0 -0.24798575338E+02  0.62644583185E+02  0.83041954826E+02  0.10693586584E+03  0.00000000000E+00 0. -1.
         13    1    3    3    0    0  0.30877426671E+02 -0.14572709858E+02  0.55954099734E+02  0.65548765263E+02  0.00000000000E+00 0.  1.
        -13    1    4    4    0    0  0.93440414596E+01 -0.51781724028E+02  0.29427247154E+02  0.60287817419E+02  0.00000000000E+00 0.  1.
         13    1    4    4    0    0 -0.59829366730E+02 -0.83205920914E+02  0.20897967633E+03  0.23275584529E+03  0.00000000000E+00 0. -1.
         21    1    1    2  503  501  0.41505655909E+02  0.23864458966E+02 -0.17072091843E+03  0.17730725835E+03  0.00000000000E+00 0. -1.
          2    1    1    2  501    0  0.29008180285E+01  0.63051312649E+02 -0.58434551703E+02  0.86014415099E+02  0.00000000000E+00 0. -1.
<scales pt_clust_5="13000.00000" pt_clust_6="13000.00000" pt_clust_7="13000.00000" pt_clust_8="13000.00000" pt_clust_9="47.87726" pt_clust_10="82.98645"></scales>
<clustering>
<clus scale="   47.877">  2  9  1 -1</clus>
<clus scale="   82.986">  2 10  1 -1</clus>
<clus scale="   89.907">  5  6 -1 -1</clus>
<clus scale="   90.919">  7  8 -1 -1</clus>
<clus scale="  123.237">  1  5  2 -1</clus>
<clus scale="   47.877">  2  5  1 -1</clus>
</clustering>
</event>
<event>
10    2  0.6640105E-006  0.1337533E+03  0.7546771E-02  0.1222005E+00
         21   -1    0    0  501  502  0.00000000000E+00  0.00000000000E+00  0.26433374119E+03  0.26433374119E+03  0.00000000000E+00 0. -1.
         -2   -1    0    0    0  501 -0.00000000000E+00 -0.00000000000E+00 -0.27645377542E+03  0.27645377542E+03  0.00000000000E+00 0.  1.
         23    2    1    2    0    0  0.57809799374E+02  0.56985595587E+02 -0.82341439123E+02  0.14738750936E+03  0.91398218313E+02 0.  0.
         23    2    1    2    0    0 -0.19982156834E+03 -0.12738489875E+02  0.52307337382E+02  0.22620804633E+03  0.91340540730E+02 0.  0.
        -11    1    3    3    0    0 -0.11456272049E+02  0.50523110018E+02 -0.43908846429E+02  0.67910364524E+02  0.00000000000E+00 0.  1.
         11    1    3    3    0    0  0.69266071424E+02  0.64624855689E+01 -0.38432592694E+02  0.79477144837E+02  0.00000000000E+00 0. -1.
        -13    1    4    4    0    0 -0.18118486263E+03 -0.30707505284E+02  0.67986799209E+02  0.19594159894E+03  0.00000000000E+00 0. -1.
         13    1    4    4    0    0 -0.18636705713E+02  0.17969015409E+02 -0.15679461827E+02  0.30266447393E+02  0.00000000000E+00 0.  1.
         21    1    1    2  503  502  0.49306221227E+02 -0.10484647205E+02  0.42022352543E+02  0.65627047716E+02  0.00000000000E+00 0.  1.
         -2    1    1    2    0  503  0.92705547743E+02 -0.33762458507E+02 -0.24108285026E+02  0.10156491320E+03  0.00000000000E+00 0.  1.
<scales pt_clust_5="13000.00000" pt_clust_6="13000.00000" pt_clust_7="13000.00000" pt_clust_8="13000.00000" pt_clust_9="50.40864" pt_clust_10="107.85346"></scales>
<clustering>
<clus scale="   50.409">  1  9  2 -1</clus>
<clus scale="   91.341">  7  8 -1 -1</clus>
<clus scale="   91.398">  5  6 -1 -1</clus>
<clus scale="  107.853">  1 10  2 -1</clus>
<clus scale="  133.714">  1  7  2 -1</clus>
<clus scale="   50.409">  1  5  2 -1</clus>
</clustering>
</event>
<event>
10    2  0.6907661E-006  0.2183102E+03  0.7546771E-02  0.1135289E+00
          2   -1    0    0  502    0 -0.00000000000E+00  0.00000000000E+00  0.77817564533E+03  0.77817564533E+03  0.00000000000E+00 0. -1.
         21   -1    0    0  503  502  0.00000000000E+00 -0.00000000000E+00 -0.11392331193E+03  0.11392331193E+03  0.00000000000E+00 0.  1.
         23    2    1    2    0    0 -0.17757474842E+03  0.74775868006E+02  0.44682179566E+03  0.49506497090E+03  0.91188741754E+02 0.  0.
         23    2    1    2    0    0  0.20452352443E+03 -0.69910669963E+02  0.11089893455E+03  0.25886091854E+03  0.89403733951E+02 0.  0.
        -13    1    4    4    0    0  0.15107114902E+02  0.18451557079E+02  0.19206777917E+02  0.30620013018E+02  0.00000000000E+00 0. -1.
         13    1    4    4    0    0  0.18941640953E+03 -0.88362227042E+02  0.91692156629E+02  0.22824090552E+03  0.00000000000E+00 0.  1.
        -13    1    3    3    0    0 -0.82711729131E+02  0.50144029018E+01  0.27154820010E+03  0.28390984370E+03  0.00000000000E+00 0.  1.
         13    1    3    3    0    0 -0.94863019287E+02  0.69761465104E+02  0.17527359556E+03  0.21115512720E+03  0.00000000000E+00 0. -1.
         21    1    1    2  503  501 -0.34012613640E+01  0.31702163877E+02  0.11913091567E+02  0.34037002277E+02  0.00000000000E+00 0. -1.
          2    1    1    2  501    0 -0.23547514647E+02 -0.36567361920E+02  0.94618511626E+02  0.10413606554E+03  0.00000000000E+00 0. -1.
<scales pt_clust_5="13000.00000" pt_clust_6="13000.00000" pt_clust_7="13000.00000" pt_clust_8="13000.00000" pt_clust_9="31.88410" pt_clust_10="42.35542"></scales>
<clustering>
<clus scale="   31.884">  2  9  1 -1</clus>
<clus scale="   42.355">  2 10  1 -1</clus>
<clus scale="   89.404">  5  6 -1 -1</clus>
<clus scale="   91.189">  7  8 -1 -1</clus>
<clus scale="  217.571">  2  5  1 -1</clus>
<clus scale="   31.884">  2  5  1 -1</clus>
</clustering>
</event>
<event>
10    2  0.6640105E-006  0.3363791E+03  0.7546771E-02  0.1103031E+00
          1   -1    0    0  502    0 -0.00000000000E+00  0.00000000000E+00  0.67167717546E+03  0.67167717546E+03  0.00000000000E+00 0. -1.
         21   -1    0    0  503  502  0.00000000000E+00 -0.00000000000E+00 -0.32374276021E+03  0.32374276021E+03  0.00000000000E+00 0. -1.
         23    2    1    2    0    0 -0.14593484594E+02 -0.92250885620E+02  0.79814646624E+02  0.15341718463E+03  0.91887208212E+02 0.  0.
         23    2    1    2    0    0  0.32193580626E+03  0.15822671144E+03  0.30414910161E+03  0.47896709902E+03  0.90688755458E+02 0.  0.
        -11    1    3    3    0    0 -0.32831855292E+02  0.38048106914E+01  0.23883654729E+02  0.40777889469E+02  0.00000000000E+00 0.  1.
         11    1    3    3    0    0  0.18238370698E+02 -0.96055696311E+02  0.55930991895E+02  0.11263929516E+03  0.00000000000E+00 0. -1.
        -13    1    4    4    0    0  0.28000609343E+03  0.98105025475E+02  0.24528078897E+03  0.38495541797E+03  0.00000000000E+00 0. -1.
         13    1    4    4    0    0  0.41929712824E+02  0.60121685968E+02  0.58868312641E+02  0.94011681052E+02  0.00000000000E+00 0.  1.
         21    1    1    2  503  501  0.39588922452E+01 -0.26440679245E+02 -0.41290012416E+02  0.49189912300E+02  0.00000000000E+00 0. -1.
          1    1    1    2  501    0 -0.31130121391E+03 -0.39535146579E+02  0.52606794298E+01  0.31384573973E+03  0.00000000000E+00 0. -1.
<scales pt_clust_5="13000.00000" pt_clust_6="13000.00000" pt_clust_7="13000.00000" pt_clust_8="13000.00000" pt_clust_9="26.73541" pt_clust_10="323.92354"></scales>
<clustering>
<clus scale="   26.735">  2  9  1 -1</clus>
<clus scale="   90.689">  7  8 -1 -1</clus>
<clus scale="   91.887">  5  6 -1 -1</clus>
<clus scale="  133.448">  1  5  2 -1</clus>
<clus scale="  323.924">  2 10  1 -1</clus>
<clus scale="   26.735">  2  5  1 -1</clus>
</clustering>
</event>
<event>
10    2  0.6640105E-006  0.1447851E+03  0.7546771E-02  0.1209429E+00
          3   -1    0    0  502    0 -0.00000000000E+00  0.00000000000E+00  0.34722655764E+03  0.34722655764E+03  0.00000000000E+00 0. -1.
         21   -1    0    0  503  502  0.00000000000E+00 -0.00000000000E+00 -0.28962643966E+03  0.28962643966E+03  0.00000000000E+00 0.  1.
         23    2    1    2    0    0 -0.10817810150E+03 -0.10213370541E+02  0.27968288183E+03  0.31429722039E+03  0.93559680272E+02 0.  0.
         23    2    1    2    0    0  0.24906189535E+02  0.51246328181E+02 -0.13174190052E+03  0.17720496685E+03  0.10391904298E+03 0.  0.
        -13    1    3    3    0    0 -0.27370094668E+02 -0.41157047150E+01  0.52782738284E+01  0.28176608775E+02  0.00000000000E+00 0.  1.
         13    1    3    3    0    0 -0.80808006828E+02 -0.60976658262E+01  0.27440460800E+03  0.28612061161E+03  0.00000000000E+00 0. -1.
        -13    1    4    4    0    0 -0.33686751694E+02  0.38848700844E+02 -0.91792104126E+02  0.10521316066E+03  0.00000000000E+00 0.  1.
         13    1    4    4    0    0  0.58592941228E+02  0.12397627337E+02 -0.39949796395E+02  0.71991806182E+02  0.00000000000E+00 0. -1.
         21    1    1    2  503  501  0.22454070238E+02 -0.67226118332E+01 -0.68170392695E+02  0.72087316639E+02  0.00000000000E+00 0. -1.
          3    1    1    2  501    0  0.60817841724E+02 -0.34310345806E+02 -0.22170470630E+02  0.73263493428E+02  0.00000000000E+00 0. -1.
<scales pt_clust_5="13000.00000" pt_clust_6="13000.00000" pt_clust_7="13000.00000" pt_clust_8="13000.00000" pt_clust_9="23.43883" pt_clust_10="74.80643"></scales>
<clustering>
<clus scale="   23.439">  2  9  1 -1</clus>
<clus scale="   74.806">  2 10  1 -1</clus>
<clus scale="   93.560">  5  6 -1 -1</clus>
<clus scale="  103.919">  7  8 -1 -1</clus>
<clus scale="  137.539">  1  5  2 -1</clus>
<clus scale="   23.439">  2  5  1 -1</clus>
</clustering>
</event>
<event>
10    2  0.6966674E-006  0.1874560E+03  0.7546771E-02  0.1161207E+00
         21   -1    0    0  501  502  0.00000000000E+00  0.00000000000E+00  0.75353885827E+02  0.75353885827E+02  0.00000000000E+00 0. -1.
          2   -1    0    0  503    0 -0.00000000000E+00 -0.00000000000E+00 -0.12204633897E+04  0.12204633897E+04  0.00000000000E+00 0. -1.
         23    2    1    2    0    0 -0.57294810932E+02 -0.16330802352E+03 -0.83032694693E+03  0.85284754750E+03  0.89184609552E+02 0.  0.
         23    2    1    2    0    0  0.51785163698E+02  0.17946349222E+03 -0.12393743018E+03  0.24269199693E+03  0.93005755495E+02 0.  0.
        -13    1    3    3    0    0 -0.70045016352E+02 -0.80582412809E+02 -0.37558015399E+03  0.39046162634E+03  0.00000000000E+00 0.  1.
         13    1    3    3    0    0  0.12750205421E+02 -0.82725610715E+02 -0.45474679294E+03  0.46238592117E+03  0.00000000000E+00 0. -1.
        -13    1    4    4    0    0  0.78211379323E+02  0.12039968796E+03 -0.92134763711E+02  0.17059284686E+03  0.00000000000E+00 0. -1.
         13    1    4    4    0    0 -0.26426215625E+02  0.59063804261E+02 -0.31802666468E+02  0.72099150068E+02  0.00000000000E+00 0.  1.
         21    1    1    2  503  502  0.12587566048E-01  0.22095080098E+02 -0.68856888857E+02  0.72315032090E+02  0.00000000000E+00 0. -1.
          2    1    1    2  501    0  0.54970596681E+01 -0.38250548795E+02 -0.12198823790E+03  0.12796269900E+03  0.00000000000E+00 0. -1.
<scales pt_clust_5="13000.00000" pt_clust_6="13000.00000" pt_clust_7="13000.00000" pt_clust_8="13000.00000" pt_clust_9="22.09508" pt_clust_10="36.26836"></scales>
<clustering>
<clus scale="   22.095">  2  9  1 -1</clus>
<clus scale="   36.268">  1 10  2 -1</clus>
<clus scale="   89.185">  5  6 -1 -1</clus>
<clus scale="   93.006">  7  8 -1 -1</clus>
<clus scale="  185.590">  2  5  1 -1</clus>
<clus scale="   36.268">  1  5  2 -1</clus>
</clustering>
</event>
<event>
10    2  0.6640105E-006  0.1052717E+03  0.7546771E-02  0.1270211E+00
         21   -1    0    0  501  502  0.00000000000E+00  0.00000000000E+00  0.11854300821E+03  0.11854300821E+03  0.00000000000E+00 0.  1.
          1   -1    0    0  503    0 -0.00000000000E+00 -0.00000000000E+00 -0.20519932200E+03  0.20519932200E+03  0.00000000000E+00 0. -1.
         23    2    1    2    0    0  0.15325950187E+02  0.57574275833E+02 -0.85124953560E+02  0.13743056227E+03  0.89951207559E+02 0.  0.
         23    2    1    2    0    0 -0.41178857160E+02 -0.27156231362E+02 -0.27824724124E+02  0.10753346112E+03  0.91411546362E+02 0.  0.
        -11    1    3    3    0    0  0.34291133827E+02  0.16234223723E+02  0.32084821810E+01  0.38075270674E+02  0.00000000000E+00 0. -1.
         11    1    3    3    0    0 -0.18965183640E+02  0.41340052110E+02 -0.88333435741E+02  0.99355291599E+02  0.00000000000E+00 0.  1.
        -13    1    4    4    0    0 -0.22837052703E+02 -0.12206195890E+02  0.33186893690E+02  0.42093848804E+02  0.00000000000E+00 0.  1.
         13    1    4    4    0    0 -0.18341804457E+02 -0.14950035472E+02 -0.61011617814E+02  0.65439612313E+02  0.00000000000E+00 0. -1.
         21    1    1    2  503  502  0.19471358080E+02  0.13941545364E+02  0.23998660223E+02  0.33903335605E+02  0.00000000000E+00 0.  1.
          1    1    1    2  501    0  0.63815488931E+01 -0.44359589835E+02  0.22947036710E+01  0.44874971215E+02  0.00000000000E+00 0. -1.
<scales pt_clust_5="13000.00000" pt_clust_6="13000.00000" pt_clust_7="13000.00000" pt_clust_8="13000.00000" pt_clust_9="23.94787" pt_clust_10="42.28541"></scales>
<clustering>
<clus scale="   23.948">  1  9  2 -1</clus>
<clus scale="   42.285">  1 10  2 -1</clus>
<clus scale="   89.951">  5  6 -1 -1</clus>
<clus scale="   91.412">  7  8 -1 -1</clus>
<clus scale="  104.006">  2  5  1 -1</clus>
<clus scale="   23.948">  1  5  2 -1</clus>
</clustering>
</event>
<event>
10    2  0.6640105E-006  0.1001519E+03  0.7546771E-02  0.1280013E+00
          1   -1    0    0  503    0 -0.00000000000E+00  0.00000000000E+00  0.26718655084E+03  0.26718655084E+03  0.00000000000E+00 0. -1.
         21   -1    0    0  501  502  0.00000000000E+00 -0.00000000000E+00 -0.41675350748E+03  0.41675350748E+03  0.00000000000E+00 0. -1.
         23    2    1    2    0    0 -0.33415159637E+02 -0.25599624957E+02  0.23734935676E+03  0.25788414812E+03  0.91638436295E+02 0.  0.
         23    2    1    2    0    0  0.18189523788E+02  0.14655780852E+01 -0.13792500276E+03  0.16655388775E+03  0.91563554127E+02 0.  0.
        -11    1    3    3    0    0 -0.84056385348E+01 -0.50474096859E+02  0.69134947249E+02  0.86011221036E+02  0.00000000000E+00 0.  1.
         11    1    3    3    0    0 -0.25009521102E+02  0.24874471902E+02  0.16821440951E+03  0.17187292708E+03  0.00000000000E+00 0. -1.
        -13    1    4    4    0    0  0.46206886248E+02 -0.25995764763E+02 -0.91717468820E+02  0.10593842650E+03  0.00000000000E+00 0.  1.
         13    1    4    4    0    0 -0.28017362460E+02  0.27461342848E+02 -0.46207533939E+02  0.60615461253E+02  0.00000000000E+00 0. -1.
         21    1    1    2  503  502 -0.10140327165E+02 -0.17954262797E+02 -0.42420246466E+02  0.47166291966E+02  0.00000000000E+00 0.  1.
          1    1    1    2  501    0  0.25365963014E+02  0.42088309669E+02 -0.20657106417E+03  0.21233573049E+03  0.00000000000E+00 0. -1.
<scales pt_clust_5="13000.00000" pt_clust_6="13000.00000" pt_clust_7="13000.00000" pt_clust_8="13000.00000" pt_clust_9="20.61994" pt_clust_10="37.53605"></scales>
<clustering>
<clus scale="   20.620">  2  9  1 -1</clus>
<clus scale="   37.536">  2 10  1 -1</clus>
<clus scale="   91.564">  7  8 -1 -1</clus>
<clus scale="   91.638">  5  6 -1 -1</clus>
<clus scale="  100.083">  2  7  1 -1</clus>
<clus scale="   20.620">  2  5  1 -1</clus>
</clustering>
</event>
<event>
10    2  0.6640105E-006  0.9848477E+02  0.7546771E-02  0.1284748E+00
          1   -1    0    0  503    0 -0.00000000000E+00  0.00000000000E+00  0.25691796772E+03  0.25691796772E+03  0.00000000000E+00 0. -1.
         21   -1    0    0  501  502  0.00000000000E+00 -0.00000000000E+00 -0.24428958164E+03  0.24428958164E+03  0.00000000000E+00 0. -1.
         23    2    1    2    0    0  0.27071868260E+02 -0.19628703486E+02  0.21592190530E+03  0.23771628070E+03  0.93640743647E+02 0.  0.
         23    2    1    2    0    0 -0.72747048055E-01  0.12935639872E+02 -0.58944851272E+02  0.10940082762E+03  0.91250805593E+02 0.  0.
        -11    1    3    3    0    0 -0.16449001603E+02 -0.23808285953E+02  0.15994236634E+02  0.33063873627E+02  0.00000000000E+00 0.  1.
         11    1    3    3    0    0  0.43520869863E+02  0.41795824666E+01  0.19992766867E+03  0.20465240708E+03  0.00000000000E+00 0. -1.
        -13    1    4    4    0    0 -0.34531367952E+02 -0.10246199646E+02 -0.57493671360E+02  0.67844839349E+02  0.00000000000E+00 0.  1.
         13    1    4    4    0    0  0.34458620904E+02  0.23181839518E+02 -0.14511799122E+01  0.41555988271E+02  0.00000000000E+00 0. -1.
         21    1    1    2  503  502 -0.13321943661E+02  0.23699605552E+02 -0.11065793026E+03  0.11394877365E+03  0.00000000000E+00 0. -1.
          1    1    1    2  501    0 -0.13677177552E+02 -0.17006541938E+02 -0.33690737687E+02  0.40141667384E+02  0.00000000000E+00 0. -1.
<scales pt_clust_5="13000.00000" pt_clust_6="13000.00000" pt_clust_7="13000.00000" pt_clust_8="13000.00000" pt_clust_9="25.29102" pt_clust_10="21.82402"></scales>
<clustering>
<clus scale="   21.824">  2 10  1 -1</clus>
<clus scale="   25.291">  2  9  1 -1</clus>
<clus scale="   91.251">  7  8 -1 -1</clus>
<clus scale="   93.641">  5  6 -1 -1</clus>
<clus scale="   96.215">  2  7  1 -1</clus>
<clus scale="   21.824">  2  5  1 -1</clus>
</clustering>
</event>
<event>
10    2  0.6640105E-006  0.1152721E+03  0.7546771E-02  0.1252644E+00
         21   -1    0    0  501  502  0.00000000000E+00  0.00000000000E+00  0.10021961395E+03  0.10021961395E+03  0.00000000000E+00 0.  1.
          2   -1    0    0  503    0 -0.00000000000E+00 -0.00000000000E+00 -0.41648901076E+03  0.41648901076E+03  0.00000000000E+00 0. -1.
         23    2    1    2    0    0  0.31113595334E+02 -0.59810221207E+02 -0.24701662148E+03  0.27140720761E+03  0.89996348158E+02 0.  0.
         23    2    1    2    0    0 -0.75950409865E+02  0.24790719339E+02 -0.71249239271E+02  0.14264716459E+03  0.94279981682E+02 0.  0.
        -11    1    3    3    0    0  0.64899170977E+01 -0.77006430676E+02 -0.20981965544E+03  0.22359874150E+03  0.00000000000E+00 0.  1.
         11    1    3    3    0    0  0.24623678237E+02  0.17196209469E+02 -0.37196966040E+02  0.47808466118E+02  0.00000000000E+00 0. -1.
        -13    1    4    4    0    0 -0.24330769503E+02  0.22523545456E+02  0.19321370230E+02  0.38374624325E+02  0.00000000000E+00 0.  1.
         13    1    4    4    0    0 -0.51619640362E+02  0.22671738824E+01 -0.90570609501E+02  0.10427254027E+03  0.00000000000E+00 0. -1.
         21    1    1    2  503  502  0.40552210623E+02 -0.19475686637E+02  0.13140772247E+02  0.46866449104E+02  0.00000000000E+00 0.  1.
          2    1    1    2  501    0  0.42846039081E+01  0.54495188506E+02 -0.11144308302E+02  0.55787803402E+02  0.00000000000E+00 0. -1.
<scales pt_clust_5="13000.00000" pt_clust_6="13000.00000" pt_clust_7="13000.00000" pt_clust_8="13000.00000" pt_clust_9="44.98649" pt_clust_10="51.26679"></scales>
<clustering>
<clus scale="   44.986">  1  9  2 -1</clus>
<clus scale="   51.267">  1 10  2 -1</clus>
<clus scale="   89.996">  5  6 -1 -1</clus>
<clus scale="   94.280">  7  8 -1 -1</clus>
<clus scale="  111.796">  2  5  1 -1</clus>
<clus scale="   44.986">  1  5  2 -1</clus>
</clustering>
</event>
<event>
10    2  0.6640105E-006  0.1050504E+03  0.7546771E-02  0.1270588E+00
          1   -1    0    0  503    0 -0.00000000000E+00  0.00000000000E+00  0.39460971962E+03  0.39460971962E+03  0.00000000000E+00 0. -1.
         21   -1    0    0  501  502  0.00000000000E+00 -0.00000000000E+00 -0.72327353437E+02  0.72327353437E+02  0.00000000000E+00 0.  1.
         23    2    1    2    0    0  0.53243779313E+02 -0.20167475283E+02  0.19932966016E+03  0.22643342501E+03  0.91094211929E+02 0.  0.
         23    2    1    2    0    0 -0.39655166036E+02  0.10034049956E+02  0.12361178861E+03  0.15965779411E+03  0.92398715279E+02 0.  0.
        -11    1    4    4    0    0 -0.31972262647E+02 -0.26197610282E+02  0.11418998761E+03  0.12144090593E+03  0.00000000000E+00 0. -1.
         11    1    4    4    0    0 -0.76829033885E+01  0.36231660238E+02  0.94218010009E+01  0.38216888180E+02  0.00000000000E+00 0.  1.
        -11    1    3    3    0    0  0.18537846605E+02 -0.42063380757E+02  0.16970860641E+03  0.17582374938E+03  0.00000000000E+00 0.  1.
         11    1    3    3    0    0  0.34705932707E+02  0.21895905474E+02  0.29621053748E+02  0.50609675624E+02  0.00000000000E+00 0. -1.
         21    1    1    2  503  502  0.22265436233E+02 -0.22465228968E+02 -0.56539463895E+01  0.32131032865E+02  0.00000000000E+00 0.  1.
          1    1    1    2  501    0 -0.35854049510E+02  0.32598654294E+02  0.49948638074E+01  0.48714821076E+02  0.00000000000E+00 0. -1.
<scales pt_clust_5="13000.00000" pt_clust_6="13000.00000" pt_clust_7="13000.00000" pt_clust_8="13000.00000" pt_clust_9="31.62967" pt_clust_10="35.54235"></scales>
<clustering>
<clus scale="   31.630">  2  9  1 -1</clus>
<clus scale="   35.542">  2 10  1 -1</clus>
<clus scale="   91.094">  7  8 -1 -1</clus>
<clus scale="   92.399">  5  6 -1 -1</clus>
<clus scale="  103.905">  1  7  2 -1</clus>
<clus scale="   31.630">  2  5  1 -1</clus>
</clustering>
</event>
<event>
10    2  0.6640105E-006  0.9815415E+02  0.7546771E-02  0.1285788E+00
         21   -1    0    0  501  502  0.00000000000E+00  0.00000000000E+00  0.16172339899E+03  0.16172339899E+03  0.00000000000E+00 0. -1.
          1   -1    0    0  503    0 -0.00000000000E+00 -0.00000000000E+00 -0.76714665516E+03  0.76714665516E+03  0.00000000000E+00 0. -1.
         23    2    1    2    0    0  0.32439147167E+01 -0.25792112859E+02 -0.40184724260E+03  0.41327570956E+03  0.92950791610E+02 0.  0.
         23    2    1    2    0    0 -0.77443896681E+02  0.13827319872E+01 -0.25210302542E+03  0.27864577980E+03  0.89933676082E+02 0.  0.
        -11    1    3    3    0    0  0.53919322842E+01 -0.60074944932E+02 -0.21515334035E+03  0.22344805169E+03  0.00000000000E+00 0. -1.
         11    1    3    3    0    0 -0.21480175675E+01  0.34282832073E+02 -0.18669390225E+03  0.18982765787E+03  0.00000000000E+00 0.  1.
        -13    1    4    4    0    0 -0.68711822797E+02  0.32531100100E+02 -0.22123297538E+03  0.23393079417E+03  0.00000000000E+00 0.  1.
         13    1    4    4    0    0 -0.87320738849E+01 -0.31148368113E+02 -0.30870050040E+02  0.44714985630E+02  0.00000000000E+00 0. -1.
         21    1    1    2  503  502  0.11621478793E+03  0.27030689562E+02  0.11010502823E+03  0.16235655932E+03  0.00000000000E+00 0. -1.
          1    1    1    2  501    0 -0.42014805964E+02 -0.26213086910E+01 -0.61578016382E+02  0.74592005477E+02  0.00000000000E+00 0. -1.
<scales pt_clust_5="13000.00000" pt_clust_6="13000.00000" pt_clust_7="13000.00000" pt_clust_8="13000.00000" pt_clust_9="83.10396" pt_clust_10="42.09652"></scales>
<clustering>
<clus scale="   42.097">  1 10  2 -1</clus>
<clus scale="   83.104">  1  9  2 -1</clus>
<clus scale="   89.934">  7  8 -1 -1</clus>
<clus scale="   92.951">  5  6 -1 -1</clus>
<clus scale="   95.302">  1  7  2 -1</clus>
<clus scale="   42.097">  1  5  2 -1</clus>
</clustering>
</event>
<event>
10    2  0.6640105E-006  0.1713814E+03  0.7546771E-02  0.1200068E+00
          1   -1    0    0  502    0 -0.00000000000E+00  0.00000000000E+00  0.72223624698E+03  0.72223624698E+03  0.00000000000E+00 0. -1.
         21   -1    0    0  503  502  0.00000000000E+00 -0.00000000000E+00 -0.10548738673E+03  0.10548738673E+03  0.00000000000E+00 0.  1.
         23    2    1    2    0    0  0.62511254188E+01  0.44162092974E+02  0.36342882292E+03  0.37760877600E+03  0.92295781924E+02 0.  0.
         23    2    1    2    0    0  0.55178627486E+02  0.12737977117E+03  0.13691297379E+03  0.21522456632E+03  0.91138161716E+02 0.  0.
        -13    1    3    3    0    0  0.43182692526E+02  0.22910237514E+00  0.12087769087E+03  0.12835970385E+03  0.00000000000E+00 0. -1.
         13    1    3    3    0    0 -0.36931567107E+02  0.43932990599E+02  0.24255113205E+03  0.24924907216E+03  0.00000000000E+00 0.  1.
        -13    1    4    4    0    0  0.13282288283E+02  0.95954604346E+02  0.39475687376E+02  0.10460418333E+03  0.00000000000E+00 0.  1.
         13    1    4    4    0    0  0.41896339203E+02  0.31425166828E+02  0.97437286411E+02  0.11062038299E+03  0.00000000000E+00 0. -1.
         21    1    1    2  503  501  0.32857998591E+01 -0.29663946629E+02 -0.12704849727E+02  0.32437006904E+02  0.00000000000E+00 0.  1.
          1    1    1    2  501    0 -0.64715552764E+02 -0.14187791752E+03  0.12911191327E+03  0.20245328448E+03  0.00000000000E+00 0. -1.
<scales pt_clust_5="13000.00000" pt_clust_6="13000.00000" pt_clust_7="13000.00000" pt_clust_8="13000.00000" pt_clust_9="29.84537" pt_clust_10="145.13940"></scales>
<clustering>
<clus scale="   29.845">  2  9  1 -1</clus>
<clus scale="   91.138">  7  8 -1 -1</clus>
<clus scale="   92.296">  5  6 -1 -1</clus>
<clus scale="  101.459">  1  5  2 -1</clus>
<clus scale="  145.139">  2 10  1 -1</clus>
<clus scale="   29.845">  2  5  1 -1</clus>
</clustering>
</event>
<event>
10    2  0.6640105E-006  0.1284376E+03  0.7546771E-02  0.1230566E+00
          1   -1    0    0  503    0 -0.00000000000E+00  0.00000000000E+00  0.32333179814E+03  0.32333179814E+03  0.00000000000E+00 0. -1.
         21   -1    0    0  501  502  0.00000000000E+00 -0.00000000000E+00 -0.15410382412E+03  0.15410382412E+03  0.00000000000E+00 0.  1.
         23    2    1    2    0    0 -0.18266957720E+02  0.79136158816E+02  0.21826535469E+03  0.25037188736E+03  0.91924444750E+02 0.  0.
         23    2    1    2    0    0  0.30611406424E+02 -0.11822138827E+03 -0.43822206683E+02  0.16062998342E+03  0.94700849668E+02 0.  0.
        -13    1    4    4    0    0  0.49484604593E+01 -0.28560665395E+02  0.29978843676E+02  0.41700478857E+02  0.00000000000E+00 0. -1.
         13    1    4    4    0    0  0.25662945965E+02 -0.89660722878E+02 -0.73801050359E+02  0.11892950457E+03  0.00000000000E+00 0.  1.
        -13    1    3    3    0    0  0.23508400790E+02  0.73939842791E+02  0.11369128793E+03  0.13764248694E+03  0.00000000000E+00 0.  1.
         13    1    3    3    0    0 -0.41775358510E+02  0.51963160245E+01  0.10457406677E+03  0.11272940042E+03  0.00000000000E+00 0. -1.
         21    1    1    2  503  502  0.20446943697E+02  0.17827153611E+02 -0.29862654669E+01  0.27291073520E+02  0.00000000000E+00 0. -1.
          1    1    1    2  501    0 -0.32791392401E+02  0.21258075846E+02 -0.22289085243E+01  0.39142677955E+02  0.00000000000E+00 0. -1.
<scales pt_clust_5="13000.00000" pt_clust_6="13000.00000" pt_clust_7="13000.00000" pt_clust_8="13000.00000" pt_clust_9="27.12720" pt_clust_10="38.16674"></scales>
<clustering>
<clus scale="   27.127">  2  9  1 -1</clus>
<clus scale="   38.167">  2 10  1 -1</clus>
<clus scale="   91.924">  7  8 -1 -1</clus>
<clus scale="   94.701">  5  6 -1 -1</clus>
<clus scale="  126.404">  1  7  2 -1</clus>
<clus scale="   27.127">  2  5  1 -1</clus>
</clustering>
</event>
<event>
10    2  0.6640105E-006  0.9471558E+02  0.7546771E-02  0.1293098E+00
         21   -1    0    0  501  502  0.00000000000E+00  0.00000000000E+00  0.28772749352E+03  0.28772749352E+03  0.00000000000E+00 0. -1.
          3   -1    0    0  503    0 -0.00000000000E+00 -0.00000000000E+00 -0.24143589567E+03  0.24143589567E+03  0.00000000000E+00 0. -1.
         23    2    1    2    0    0  0.36122437565E+01  0.72730195810E+01 -0.19545828690E+03  0.21615310496E+03  0.91936270027E+02 0.  0.
         23    2    1    2    0    0  0.29631242458E+01 -0.26465512475E+02  0.42368327111E+02  0.10665367178E+03  0.94184537512E+02 0.  0.
        -13    1    3    3    0    0 -0.24893090719E+02  0.37630390862E+02 -0.13801954132E+03  0.14520711438E+03  0.00000000000E+00 0.  1.
         13    1    3    3    0    0  0.28505334475E+02 -0.30357371281E+02 -0.57438745580E+02  0.70945990573E+02  0.00000000000E+00 0. -1.
        -13    1    4    4    0    0  0.39423798873E+02  0.12902742698E+00 -0.66982566273E+01  0.39988988578E+02  0.00000000000E+00 0. -1.
         13    1    4    4    0    0 -0.36460674627E+02 -0.26594539902E+02  0.49066583738E+02  0.66664683203E+02  0.00000000000E+00 0.  1.
         21    1    1    2  503  502 -0.19479348486E+02 -0.73430975759E+01  0.51282353095E+02  0.55346597351E+02  0.00000000000E+00 0.  1.
          3    1    1    2  501    0  0.12903980484E+02  0.26535590470E+02  0.14809920455E+03  0.15101001510E+03  0.00000000000E+00 0. -1.
<scales pt_clust_5="13000.00000" pt_clust_6="13000.00000" pt_clust_7="13000.00000" pt_clust_8="13000.00000" pt_clust_9="20.81745" pt_clust_10="21.85591"></scales>
<clustering>
<clus scale="   20.817">  1  9  2 -1</clus>
<clus scale="   21.856">  1 10  2 -1</clus>
<clus scale="   91.936">  5  6 -1 -1</clus>
<clus scale="   92.480">  2  5  1 -1</clus>
<clus scale="   94.185">  7  8 -1 -1</clus>
<clus scale="   20.817">  1  5  2 -1</clus>
</clustering>
</event>
<event>
10    2  0.6640105E-006  0.9868883E+02  0.7546771E-02  0.1286014E+00
         21   -1    0    0  503  502  0.00000000000E+00  0.00000000000E+00  0.31892071800E+03  0.31892071800E+03  0.00000000000E+00 0.  1.
         -1   -1    0    0    0  501 -0.00000000000E+00 -0.00000000000E+00 -0.40904955161E+03  0.40904955161E+03  0.00000000000E+00 0.  1.
         23    2    1    2    0    0 -0.17847030452E+02 -0.18495058385E+02 -0.27812690735E+03  0.29397267514E+03  0.91677551533E+02 0.  0.
         23    2    1    2    0    0  0.40799466126E+02  0.64351868135E+02 -0.87764208740E+02  0.14453498194E+03  0.85918829724E+02 0.  0.
        -11    1    3    3    0    0  0.27886219172E+02  0.20857151662E+02 -0.10665655064E+03  0.11219751241E+03  0.00000000000E+00 0.  1.
         11    1    3    3    0    0 -0.45733249624E+02 -0.39352210047E+02 -0.17147035671E+03  0.18177516273E+03  0.00000000000E+00 0. -1.
        -13    1    4    4    0    0  0.56746458706E+02  0.43058069291E+02 -0.93277649426E+02  0.11736642531E+03  0.00000000000E+00 0.  1.
         13    1    4    4    0    0 -0.15946992580E+02  0.21293798844E+02  0.55134406856E+01  0.27168556638E+02  0.00000000000E+00 0. -1.
         21    1    1    2  503  501  0.92736372467E+01 -0.22025898464E+02  0.21770586699E+02  0.32327990908E+02  0.00000000000E+00 0.  1.
         -1    1    1    2    0  502 -0.32226072921E+02 -0.23830911287E+02  0.25399169578E+03  0.25713462161E+03  0.00000000000E+00 0.  1.
<scales pt_clust_5="13000.00000" pt_clust_6="13000.00000" pt_clust_7="13000.00000" pt_clust_8="13000.00000" pt_clust_9="23.89855" pt_clust_10="49.39801"></scales>
<clustering>
<clus scale="   23.899">  1  9  2 -1</clus>
<clus scale="   49.398">  1 10  2 -1</clus>
<clus scale="   85.919">  7  8 -1 -1</clus>
<clus scale="   91.678">  5  6 -1 -1</clus>
<clus scale="   93.364">  1  7  2 -1</clus>
<clus scale="   23.899">  1  5  2 -1</clus>
</clustering>
</event>
<event>
10    2  0.6640105E-006  0.1351767E+03  0.7546771E-02  0.1232895E+00
          1   -1    0    0  503    0 -0.00000000000E+00  0.00000000000E+00  0.96056488126E+03  0.96056488126E+03  0.00000000000E+00 0. -1.
         21   -1    0    0  501  502  0.00000000000E+00 -0.00000000000E+00 -0.22289642199E+03  0.22289642199E+03  0.00000000000E+00 0. -1.
         23    2    1    2    0    0 -0.29518030837E+02 -0.43542032821E+02  0.34826568974E+03  0.36332500557E+03  0.89156302379E+02 0.  0.
         23    2    1    2    0    0  0.30896871206E+02 -0.58117546622E+02  0.55846573548E+03  0.56941268708E+03  0.89524100818E+02 0.  0.
        -13    1    3    3    0    0  0.57771849642E+01 -0.55579835018E+02  0.28015734123E+03  0.28567574236E+03  0.00000000000E+00 0. -1.
         13    1    3    3    0    0 -0.35295215801E+02  0.12037802198E+02  0.68108348510E+02  0.77649263209E+02  0.00000000000E+00 0.  1.
        -13    1    4    4    0    0  0.57263659318E+02 -0.61883791593E+02  0.41055889360E+03  0.41912687274E+03  0.00000000000E+00 0. -1.
         13    1    4    4    0    0 -0.26366788111E+02  0.37662449706E+01  0.14790684188E+03  0.15028581434E+03  0.00000000000E+00 0.  1.
         21    1    1    2  503  502  0.47400582987E+02 -0.21964998647E+02 -0.48616505557E+02  0.71364143977E+02  0.00000000000E+00 0. -1.
          1    1    1    2  501    0 -0.48779423356E+02  0.12362457809E+03 -0.12044646039E+03  0.17935946664E+03  0.00000000000E+00 0. -1.
<scales pt_clust_5="13000.00000" pt_clust_6="13000.00000" pt_clust_7="13000.00000" pt_clust_8="13000.00000" pt_clust_9="52.24248" pt_clust_10="101.28266"></scales>
<clustering>
<clus scale="   52.242">  2  9  1 -1</clus>
<clus scale="   89.156">  5  6 -1 -1</clus>
<clus scale="   89.524">  7  8 -1 -1</clus>
<clus scale="  103.349">  1  5  2 -1</clus>
<clus scale="  101.283">  2 10  1 -1</clus>
<clus scale="   52.242">  2  5  1 -1</clus>
</clustering>
</event>
<event>
10    2  0.6640105E-006  0.9366607E+02  0.7546771E-02  0.1296159E+00
          2   -1    0    0  502    0 -0.00000000000E+00  0.00000000000E+00  0.53697160953E+03  0.53697160953E+03  0.00000000000E+00 0. -1.
         21   -1    0    0  503  502  0.00000000000E+00 -0.00000000000E+00 -0.54881808768E+02  0.54881808768E+02  0.00000000000E+00 0. -1.
         23    2    1    2    0    0  0.67110241932E+01  0.10694764885E+02  0.26328866936E+03  0.27913109022E+03  0.91835865940E+02 0.  0.
         23    2    1    2    0    0 -0.12629071654E+02  0.75641647639E+02  0.17935442202E+03  0.21415151967E+03  0.88383892018E+02 0.  0.
        -11    1    4    4    0    0  0.12469183034E+02  0.21701161445E+02 -0.16673253041E+00  0.25028957895E+02  0.00000000000E+00 0.  1.
         11    1    4    4    0    0 -0.25098254688E+02  0.53940486194E+02  0.17952115455E+03  0.18912256177E+03  0.00000000000E+00 0. -1.
        -13    1    3    3    0    0  0.26676659082E+02 -0.28435667508E+02  0.18767658037E+03  0.19168393293E+03  0.00000000000E+00 0.  1.
         13    1    3    3    0    0 -0.19965634889E+02  0.39130432393E+02  0.75612088990E+02  0.87447157285E+02  0.00000000000E+00 0. -1.
         21    1    1    2  503  501  0.15716557647E+02 -0.43902091014E+02  0.23252652033E+02  0.52106521725E+02  0.00000000000E+00 0. -1.
          2    1    1    2  501    0 -0.97985101854E+01 -0.42434321510E+02  0.16194057347E+02  0.46464286686E+02  0.00000000000E+00 0. -1.
<scales pt_clust_5="13000.00000" pt_clust_6="13000.00000" pt_clust_7="13000.00000" pt_clust_8="13000.00000" pt_clust_9="25.03671" pt_clust_10="90.33361"></scales>
<clustering>
<clus scale="   25.037">  9 10 -1 -1</clus>
<clus scale="   88.384">  5  6 -1 -1</clus>
<clus scale="   90.334">  2  9  1 -1</clus>
<clus scale="   90.334">  2  5  1 -1</clus>
<clus scale="   91.836">  7  8 -1 -1</clus>
<clus scale="   90.334">  2  5  1 -1</clus>
</clustering>
</event>
<event>
10    2  0.6640105E-006  0.3258293E+03  0.7546771E-02  0.1105294E+00
         21   -1    0    0  503  502  0.00000000000E+00  0.00000000000E+00  0.14618928558E+03  0.14618928558E+03  0.00000000000E+00 0. -1.
          2   -1    0    0  502    0 -0.00000000000E+00 -0.00000000000E+00 -0.13120251155E+04  0.13120251155E+04  0.00000000000E+00 0. -1.
         23    2    1    2    0    0  0.24893856296E+02 -0.10221220958E+03 -0.36252876439E+03  0.38809253362E+03  0.90120307227E+02 0.  0.
         23    2    1    2    0    0  0.22862487105E+03 -0.73726410013E+02 -0.63650388875E+03  0.68630869839E+03  0.90429607448E+02 0.  0.
        -11    1    3    3    0    0  0.21591329386E+02 -0.23012692222E+02 -0.22020767544E+02  0.38479653210E+02  0.00000000000E+00 0.  1.
         11    1    3    3    0    0  0.33025269096E+01 -0.79199517357E+02 -0.34050799685E+03  0.34961288041E+03  0.00000000000E+00 0. -1.
        -13    1    4    4    0    0  0.54412068265E+01 -0.28413227290E+02 -0.69942767408E+02  0.75689556277E+02  0.00000000000E+00 0.  1.
         13    1    4    4    0    0  0.22318366423E+03 -0.45313182723E+02 -0.56656112134E+03  0.61061914212E+03  0.00000000000E+00 0. -1.
         21    1    1    2  503  501 -0.76989388298E+02  0.10599009390E+03  0.10566041241E+00  0.13100105755E+03  0.00000000000E+00 0. -1.
          2    1    1    2  501    0 -0.17652933905E+03  0.69948525690E+02 -0.16690883718E+03  0.25281211150E+03  0.00000000000E+00 0. -1.
<scales pt_clust_5="13000.00000" pt_clust_6="13000.00000" pt_clust_7="13000.00000" pt_clust_8="13000.00000" pt_clust_9="129.38024" pt_clust_10="129.38024"></scales>
<clustering>
<clus scale="   90.120">  5  6 -1 -1</clus>
<clus scale="   90.430">  7  8 -1 -1</clus>
<clus scale="  129.380">  9 10 -1 -1</clus>
<clus scale="  138.523">  2  5  1 -1</clus>
<clus scale="  300.132">  2  7  1 -1</clus>
<clus scale="  325.829">  1  5  2 -1</clus>
</clustering>
</event>
<event>
10    2  0.6640105E-006  0.1007439E+03  0.7546771E-02  0.1279663E+00
         21   -1    0    0  501  502  0.00000000000E+00  0.00000000000E+00  0.65826060084E+02  0.65826060084E+02  0.00000000000E+00 0.  1.
          2   -1    0    0  503    0 -0.00000000000E+00 -0.00000000000E+00 -0.40335631735E+03  0.40335631735E+03  0.00000000000E+00 0. -1.
         23    2    1    2    0    0 -0.36715063417E+02 -0.18745965904E+02 -0.24800713301E+03  0.26712717894E+03  0.90277265066E+02 0.  0.
         23    2    1    2    0    0  0.45983686959E+02 -0.12378567834E+02 -0.98400538338E+02  0.14300804327E+03  0.92200358394E+02 0.  0.
        -11    1    4    4    0    0  0.32268323440E+02  0.25070416947E+02 -0.46491618213E+01  0.41126453885E+02  0.00000000000E+00 0.  1.
         11    1    4    4    0    0  0.13715363519E+02 -0.37448984782E+02 -0.93751376517E+02  0.10188158939E+03  0.00000000000E+00 0. -1.
        -13    1    3    3    0    0 -0.66125256737E+02 -0.21843161993E+02 -0.17096302091E+03  0.18460235054E+03  0.00000000000E+00 0. -1.
         13    1    3    3    0    0  0.29410193321E+02  0.30971960893E+01 -0.77044112092E+02  0.82524828402E+02  0.00000000000E+00 0.  1.
         21    1    1    2  503  502  0.13271881396E+02  0.19583299475E+02  0.20388348042E+02  0.31230324846E+02  0.00000000000E+00 0. -1.
          2    1    1    2  501    0 -0.22540504938E+02  0.11541234263E+02 -0.11510933962E+02  0.27816830371E+02  0.00000000000E+00 0. -1.
<scales pt_clust_5="13000.00000" pt_clust_6="13000.00000" pt_clust_7="13000.00000" pt_clust_8="13000.00000" pt_clust_9="23.65689" pt_clust_10="25.19330"></scales>
<clustering>
<clus scale="   23.657">  1  9  2 -1</clus>
<clus scale="   25.193">  1 10  2 -1</clus>
<clus scale="   90.277">  7  8 -1 -1</clus>
<clus scale="   92.200">  5  6 -1 -1</clus>
<clus scale="   98.987">  2  7  1 -1</clus>
<clus scale="   23.657">  1  5  2 -1</clus>
</clustering>
</event>
<event>
10    2  0.6640105E-006  0.2939450E+03  0.7546771E-02  0.1108917E+00
         21   -1    0    0  501  502  0.00000000000E+00  0.00000000000E+00  0.25525023647E+03  0.25525023647E+03  0.00000000000E+00 0.  1.
          2   -1    0    0  503    0 -0.00000000000E+00 -0.00000000000E+00 -0.83131172273E+03  0.83131172273E+03  0.00000000000E+00 0.  1.
         23    2    1    2    0    0 -0.55033469444E+02 -0.13559690148E+03 -0.17236134133E+03  0.24405867727E+03  0.91874934107E+02 0.  0.
         23    2    1    2    0    0 -0.11025847264E+03  0.32489849735E+03 -0.39283458260E+03  0.52945202583E+03  0.91019085929E+02 0.  0.
        -11    1    4    4    0    0  0.83015223114E+01  0.60528145638E+02 -0.10218103782E+03  0.11905266136E+03  0.00000000000E+00 0. -1.
         11    1    4    4    0    0 -0.11855999495E+03  0.26437035171E+03 -0.29065354478E+03  0.41039936447E+03  0.00000000000E+00 0.  1.
        -13    1    3    3    0    0 -0.41170473272E+02 -0.11017228378E+03 -0.17915724335E+03  0.21431345694E+03  0.00000000000E+00 0.  1.
         13    1    3    3    0    0 -0.13862996171E+02 -0.25424617708E+02  0.67959020191E+01  0.29745220333E+02  0.00000000000E+00 0. -1.
         21    1    1    2  503  502 -0.25417731852E+02  0.17992686985E+02  0.51653361819E+00  0.31145861433E+02  0.00000000000E+00 0.  1.
          2    1    1    2  501    0  0.19070967393E+03 -0.20729428285E+03 -0.11382095952E+02  0.28190539467E+03  0.00000000000E+00 0.  1.
<scales pt_clust_5="13000.00000" pt_clust_6="13000.00000" pt_clust_7="13000.00000" pt_clust_8="13000.00000" pt_clust_9="31.14158" pt_clust_10="279.49815"></scales>
<clustering>
<clus scale="   31.142">  1  9  2 -1</clus>
<clus scale="   91.019">  5  6 -1 -1</clus>
<clus scale="   91.875">  7  8 -1 -1</clus>
<clus scale="  171.948">  2  7  1 -1</clus>
<clus scale="  279.498">  1 10  2 -1</clus>
<clus scale="   31.142">  1  5  2 -1</clus>
</clustering>
</event>
<event>
10    2  0.6640105E-006  0.1227935E+03  0.7546771E-02  0.1238910E+00
         21   -1    0    0  503  502  0.00000000000E+00  0.00000000000E+00  0.21023897558E+03  0.21023897558E+03  0.00000000000E+00 0.  1.
          1   -1    0    0  502    0 -0.00000000000E+00 -0.00000000000E+00 -0.28433305711E+03  0.28433305711E+03  0.00000000000E+00 0. -1.
         23    2    1    2    0    0  0.25668344802E+02  0.70919195907E+02 -0.11008688025E+03  0.16312599784E+03  0.93822032028E+02 0.  0.
         23    2    1    2    0    0 -0.95470544483E+02 -0.41130020182E+02 -0.68696824059E+02  0.15528623703E+03  0.92672856597E+02 0.  0.
        -11    1    4    4    0    0 -0.98689380315E+02 -0.35465117717E+01 -0.62999953115E+02  0.11713737928E+03  0.00000000000E+00 0.  1.
         11    1    4    4    0    0  0.32188358320E+01 -0.37583508411E+02 -0.56968709444E+01  0.38148857744E+02  0.00000000000E+00 0. -1.
        -13    1    3    3    0    0  0.42957766523E+02  0.32372945956E+02 -0.10820553915E+03  0.12083797432E+03  0.00000000000E+00 0. -1.
         13    1    3    3    0    0 -0.17289421722E+02  0.38546249951E+02 -0.18813411013E+01  0.42288023519E+02  0.00000000000E+00 0.  1.
         21    1    1    2  503  501 -0.19619340152E+02  0.18275084267E+02  0.59050316352E+02  0.64852425354E+02  0.00000000000E+00 0.  1.
          1    1    1    2  501    0  0.89421539833E+02 -0.48064259991E+02  0.45639306430E+02  0.11130737247E+03  0.00000000000E+00 0. -1.
<scales pt_clust_5="13000.00000" pt_clust_6="13000.00000" pt_clust_7="13000.00000" pt_clust_8="13000.00000" pt_clust_9="26.81226" pt_clust_10="87.87038"></scales>
<clustering>
<clus scale="   26.812">  1  9  2 -1</clus>
<clus scale="   87.870">  1 10  2 -1</clus>
<clus scale="   92.673">  5  6 -1 -1</clus>
<clus scale="   93.822">  7  8 -1 -1</clus>
<clus scale="  121.918">  1  5  2 -1</clus>
<clus scale="   26.812">  1  5  2 -1</clus>
</clustering>
</event>
<event>
10    2  0.6640105E-006  0.9928850E+02  0.7546771E-02  0.1282579E+00
          2   -1    0    0  503    0 -0.00000000000E+00  0.00000000000E+00  0.20334341328E+03  0.20334341328E+03  0.00000000000E+00 0. -1.
         21   -1    0    0  501  502  0.00000000000E+00 -0.00000000000E+00 -0.35231408120E+03  0.35231408120E+03  0.00000000000E+00 0.  1.
         23    2    1    2    0    0  0.31753402967E+02  0.21169436461E+02  0.15179390531E+03  0.18179531921E+03  0.92475535986E+02 0.  0.
         23    2    1    2    0    0 -0.15442558929E+02 -0.70730609377E+01 -0.12909399379E+03  0.15880283664E+03  0.90909740274E+02 0.  0.
        -11    1    3    3    0    0 -0.91691756383E+01 -0.30183842503E+02  0.30562781144E+02  0.43922906568E+02  0.00000000000E+00 0.  1.
         11    1    3    3    0    0  0.40922578606E+02  0.51353278963E+02  0.12123112417E+03  0.13787241264E+03  0.00000000000E+00 0. -1.
        -13    1    4    4    0    0  0.24159109654E+02  0.11487341021E+02 -0.10604208247E+03  0.10936427588E+03  0.00000000000E+00 0.  1.
         13    1    4    4    0    0 -0.39601668583E+02 -0.18560401958E+02 -0.23051911316E+02  0.49438560767E+02  0.00000000000E+00 0. -1.
         21    1    1    2  503  502  0.41146186404E+02 -0.37959402336E+02 -0.38119396963E+02  0.67727492986E+02  0.00000000000E+00 0.  1.
          2    1    1    2  501    0 -0.57457030442E+02  0.23863026813E+02 -0.13355118248E+03  0.14733184564E+03  0.00000000000E+00 0. -1.
<scales pt_clust_5="13000.00000" pt_clust_6="13000.00000" pt_clust_7="13000.00000" pt_clust_8="13000.00000" pt_clust_9="55.98147" pt_clust_10="38.63342"></scales>
<clustering>
<clus scale="   55.981">  2  9  1 -1</clus>
<clus scale="   38.633">  2 10  1 -1</clus>
<clus scale="   90.910">  7  8 -1 -1</clus>
<clus scale="   92.476">  5  6 -1 -1</clus>
<clus scale="   97.832">  2  7  1 -1</clus>
<clus scale="   55.981">  2  5  1 -1</clus>
</clustering>
</event>
<event>
10    2  0.6640105E-006  0.1335138E+03  0.7546771E-02  0.1222366E+00
         21   -1    0    0  501  502  0.00000000000E+00  0.00000000000E+00  0.24902334109E+03  0.24902334109E+03  0.00000000000E+00 0. -1.
          2   -1    0    0  503    0 -0.00000000000E+00 -0.00000000000E+00 -0.34866850006E+03  0.34866850006E+03  0.00000000000E+00 0. -1.
         23    2    1    2    0    0  0.55162098703E+02  0.85251188722E+02 -0.19527336709E+03  0.23824881586E+03  0.91215064847E+02 0.  0.
         23    2    1    2    0    0 -0.75575902950E+02 -0.44922301907E+02  0.42240856655E+02  0.13363593170E+03  0.91348464444E+02 0.  0.
        -11    1    4    4    0    0 -0.10436973478E+02 -0.48421740132E+02  0.46929625547E+02  0.68234779159E+02  0.00000000000E+00 0.  1.
         11    1    4    4    0    0 -0.65138929472E+02  0.34994382255E+01 -0.46887688915E+01  0.65401152546E+02  0.00000000000E+00 0. -1.
        -13    1    3    3    0    0 -0.25111504823E+02  0.26870043641E+02 -0.44416112925E+02  0.57666090617E+02  0.00000000000E+00 0.  1.
         13    1    3    3    0    0  0.80273603526E+02  0.58381145081E+02 -0.15085725416E+03  0.18058272525E+03  0.00000000000E+00 0. -1.
         21    1    1    2  503  502 -0.21684011854E+02 -0.28654912202E+02  0.13149263665E+03  0.13631439343E+03  0.00000000000E+00 0. -1.
          2    1    1    2  501    0  0.42097816100E+02 -0.11673974613E+02 -0.78105285196E+02  0.89492700145E+02  0.00000000000E+00 0. -1.
<scales pt_clust_5="13000.00000" pt_clust_6="13000.00000" pt_clust_7="13000.00000" pt_clust_8="13000.00000" pt_clust_9="35.93467" pt_clust_10="43.06345"></scales>
<clustering>
<clus scale="   35.935">  1  9  2 -1</clus>
<clus scale="   43.063">  1 10  2 -1</clus>
<clus scale="   91.215">  7  8 -1 -1</clus>
<clus scale="   91.348">  5  6 -1 -1</clus>
<clus scale="  133.423">  2  7  1 -1</clus>
<clus scale="   35.935">  1  5  2 -1</clus>
</clustering>
</event>
<event>
10    2  0.6640105E-006  0.1448949E+03  0.7546771E-02  0.1224219E+00
         21   -1    0    0  501  502  0.00000000000E+00  0.00000000000E+00  0.76657413122E+03  0.76657413122E+03  0.00000000000E+00 0.  1.
          3   -1    0    0  503    0 -0.00000000000E+00 -0.00000000000E+00 -0.16756639164E+03  0.16756639164E+03  0.00000000000E+00 0. -1.
         23    2    1    2    0    0  0.34975092396E+02  0.43054798626E+01 -0.10077936136E+03  0.14043513831E+03  0.91234610486E+02 0.  0.
         23    2    1    2    0    0 -0.74427663675E+02 -0.85254143816E+02  0.58943950572E+03  0.60712072671E+03  0.91372313849E+02 0.  0.
        -13    1    4    4    0    0 -0.36958745146E+02 -0.98689175864E+02  0.41097796783E+03  0.42427395904E+03  0.00000000000E+00 0.  1.
         13    1    4    4    0    0 -0.37468918529E+02  0.13435032048E+02  0.17846153789E+03  0.18284676767E+03  0.00000000000E+00 0. -1.
        -13    1    3    3    0    0  0.58647026086E+02  0.98290193071E+01 -0.99720184466E+02  0.11610425694E+03  0.00000000000E+00 0. -1.
         13    1    3    3    0    0 -0.23671933690E+02 -0.55235394445E+01 -0.10591768957E+01  0.24330881371E+02  0.00000000000E+00 0.  1.
         21    1    1    2  503  502  0.30235064240E+01 -0.30539226788E+02  0.10146898720E+02  0.32322523378E+02  0.00000000000E+00 0.  1.
          3    1    1    2  501    0  0.36429064855E+02  0.11148789074E+03  0.10020069650E+03  0.15426213445E+03  0.00000000000E+00 0. -1.
<scales pt_clust_5="13000.00000" pt_clust_6="13000.00000" pt_clust_7="13000.00000" pt_clust_8="13000.00000" pt_clust_9="30.68853" pt_clust_10="112.45289"></scales>
<clustering>
<clus scale="   30.689">  2  9  1 -1</clus>
<clus scale="   91.235">  7  8 -1 -1</clus>
<clus scale="   91.372">  5  6 -1 -1</clus>
<clus scale="  100.426">  2  7  1 -1</clus>
<clus scale="  112.453">  1 10  2 -1</clus>
<clus scale="  112.453">  1  5  2 -1</clus>
</clustering>
</event>
<event>
10    2  0.6640105E-006  0.1253472E+03  0.7546771E-02  0.1235156E+00
         21   -1    0    0  501  502  0.00000000000E+00  0.00000000000E+00  0.91011987913E+02  0.91011987913E+02  0.00000000000E+00 0. -1.
          1   -1    0    0  503    0 -0.00000000000E+00 -0.00000000000E+00 -0.65814285159E+03  0.65814285159E+03  0.00000000000E+00 0. -1.
         23    2    1    2    0    0  0.39189769599E+02 -0.38016848557E+02 -0.16555871740E+03  0.19662545545E+03  0.90943729912E+02 0.  0.
         23    2    1    2    0    0  0.41159753932E+02  0.14945680632E+03 -0.34302811652E+03  0.38777532108E+03  0.93112558866E+02 0.  0.
        -11    1    3    3    0    0 -0.19882382707E+02  0.13157641547E+02 -0.18834870776E+02  0.30383960083E+02  0.00000000000E+00 0.  1.
         11    1    3    3    0    0  0.59072152306E+02 -0.51174490104E+02 -0.14672384662E+03  0.16624149537E+03  0.00000000000E+00 0. -1.
        -13    1    4    4    0    0  0.63118603963E+01  0.14314148092E+03 -0.24874309142E+03  0.28705826702E+03  0.00000000000E+00 0. -1.
         13    1    4    4    0    0  0.34847893535E+02  0.63153253995E+01 -0.94285025106E+02  0.10071705406E+03  0.00000000000E+00 0.  1.
         21    1    1    2  503  502 -0.39678411542E+02 -0.38937316893E+02  0.10639052877E+02  0.56601063908E+02  0.00000000000E+00 0. -1.
          1    1    1    2  501    0 -0.40671111988E+02 -0.72502640866E+02 -0.69183082636E+02  0.10815299906E+03  0.00000000000E+00 0. -1.
<scales pt_clust_5="13000.00000" pt_clust_6="13000.00000" pt_clust_7="13000.00000" pt_clust_8="13000.00000" pt_clust_9="55.59218" pt_clust_10="101.38867"></scales>
<clustering>
<clus scale="   55.592">  1  9  2 -1</clus>
<clus scale="   90.944">  5  6 -1 -1</clus>
<clus scale="   93.113">  7  8 -1 -1</clus>
<clus scale="  101.389">  1 10  2 -1</clus>
<clus scale="  123.745">  2  5  1 -1</clus>
<clus scale="   55.592">  1  5  2 -1</clus>
</clustering>
</event>
<event>
10    2  0.6640105E-006  0.1630180E+03  0.7546771E-02  0.1185495E+00
          2   -1    0    0  503    0 -0.00000000000E+00  0.00000000000E+00  0.10540785414E+03  0.10540785414E+03  0.00000000000E+00 0. -1.
         21   -1    0    0  501  502  0.00000000000E+00 -0.00000000000E+00 -0.45421184183E+03  0.45421184183E+03  0.00000000000E+00 0. -1.
         23    2    1    2    0    0  0.10295585708E+03 -0.41651125775E+02 -0.85246299036E+02  0.16713524513E+03  0.91282714026E+02 0.  0.
         23    2    1    2    0    0 -0.15413806482E+03  0.83304955644E+02 -0.16151125190E+03  0.25480081315E+03  0.90218131385E+02 0.  0.
        -11    1    4    4    0    0 -0.54704193563E+01  0.37653664432E+02 -0.52681250204E+02  0.64984906372E+02  0.00000000000E+00 0.  1.
         11    1    4    4    0    0 -0.14866764546E+03  0.45651291211E+02 -0.10883000170E+03  0.18981590678E+03  0.00000000000E+00 0. -1.
        -13    1    3    3    0    0  0.36821456149E+02  0.27843031430E+02 -0.39933566799E+02  0.61038871135E+02  0.00000000000E+00 0.  1.
         13    1    3    3    0    0  0.66134400932E+02 -0.69494157205E+02 -0.45312732238E+02  0.10609637400E+03  0.00000000000E+00 0. -1.
         21    1    1    2  503  502  0.32812358000E+02  0.59797924785E+00 -0.80279010767E+02  0.86727896241E+02  0.00000000000E+00 0. -1.
          2    1    1    2  501    0  0.18369849740E+02 -0.42251809117E+02 -0.21767425984E+02  0.50955741454E+02  0.00000000000E+00 0. -1.
<scales pt_clust_5="13000.00000" pt_clust_6="13000.00000" pt_clust_7="13000.00000" pt_clust_8="13000.00000" pt_clust_9="32.81781" pt_clust_10="47.39535"></scales>
<clustering>
<clus scale="   32.818">  2  9  1 -1</clus>
<clus scale="   47.395">  2 10  1 -1</clus>
<clus scale="   90.218">  5  6 -1 -1</clus>
<clus scale="   91.283">  7  8 -1 -1</clus>
<clus scale="  162.424">  2  5  1 -1</clus>
<clus scale="   32.818">  2  5  1 -1</clus>
</clustering>
</event>
<event>
10    2  0.6640105E-006  0.9576694E+02  0.7546771E-02  0.1293111E+00
         -3   -1    0    0    0  501 -0.00000000000E+00  0.00000000000E+00  0.11387401738E+03  0.11387401738E+03  0.00000000000E+00 0.  1.
         21   -1    0    0  503  502  0.00000000000E+00 -0.00000000000E+00 -0.17428204491E+03  0.17428204491E+03  0.00000000000E+00 0. -1.
         23    2    1    2    0    0 -0.50363272440E+01 -0.14201845399E+02  0.24154300264E+02  0.99897758941E+02  0.95755287140E+02 0.  0.
         23    2    1    2    0    0 -0.82483285893E+01 -0.26545106641E+02 -0.24190656326E+02  0.96727295363E+02  0.89433238808E+02 0.  0.
        -11    1    3    3    0    0  0.17971133257E+02 -0.42439489549E+02  0.39185229585E+02  0.60494248664E+02  0.00000000000E+00 0.  1.
         11    1    3    3    0    0 -0.23007460501E+02  0.28237644150E+02 -0.15030929321E+02  0.39403510277E+02  0.00000000000E+00 0. -1.
        -11    1    4    4    0    0  0.34046658783E+02  0.69295589210E+00  0.10480631858E+02  0.35630026752E+02  0.00000000000E+00 0.  1.
         11    1    4    4    0    0 -0.42294987373E+02 -0.27238062534E+02 -0.34671288184E+02  0.61097268612E+02  0.00000000000E+00 0. -1.
         21    1    1    2  503  501 -0.16024549094E+02  0.20160986597E+02 -0.60339953170E+01  0.26451099291E+02  0.00000000000E+00 0.  1.
         -3    1    1    2    0  502  0.29309204927E+02  0.20585965443E+02 -0.54337676146E+02  0.65079908694E+02  0.00000000000E+00 0.  1.
<scales pt_clust_5="13000.00000" pt_clust_6="13000.00000" pt_clust_7="13000.00000" pt_clust_8="13000.00000" pt_clust_9="25.75367" pt_clust_10="36.55410"></scales>
<clustering>
<clus scale="   25.754">  2  9  1 -1</clus>
<clus scale="   36.554">  2 10  1 -1</clus>
<clus scale="   89.433">  7  8 -1 -1</clus>
<clus scale="   89.446">  2  7  1 -1</clus>
<clus scale="   95.755">  5  6 -1 -1</clus>
<clus scale="   25.754">  2  5  1 -1</clus>
</clustering>
</event>
<event>
10    2  0.6640105E-006  0.1478658E+03  0.7546771E-02  0.1205802E+00
          2   -1    0    0  503    0 -0.00000000000E+00  0.00000000000E+00  0.55675481586E+03  0.55675481586E+03  0.00000000000E+00 0. -1.
         21   -1    0    0  501  502  0.00000000000E+00 -0.00000000000E+00 -0.43284476776E+03  0.43284476776E+03  0.00000000000E+00 0. -1.
         23    2    1    2    0    0  0.66003117855E+02  0.75676304109E+02  0.23300976860E+03  0.27394188738E+03  0.10328257757E+03 0.  0.
         23    2    1    2    0    0  0.36226607402E+02 -0.13838272661E+03  0.26267040593E+03  0.31263062439E+03  0.90994610009E+02 0.  0.
        -13    1    4    4    0    0 -0.24682464835E+00 -0.11586640844E+03  0.23384446075E+03  0.26097570261E+03  0.00000000000E+00 0. -1.
         13    1    4    4    0    0  0.36473432051E+02 -0.22516318169E+02  0.28825945177E+02  0.51654921787E+02  0.00000000000E+00 0.  1.
        -13    1    3    3    0    0  0.84311708202E+02  0.61421270736E+02  0.22723028738E+03  0.25002927857E+03  0.00000000000E+00 0. -1.
         13    1    3    3    0    0 -0.18308590347E+02  0.14255033372E+02  0.57794812161E+01  0.23912608809E+02  0.00000000000E+00 0.  1.
         21    1    1    2  503  502  0.84657231836E+01  0.24641633281E+02 -0.21712257456E+02  0.33916082964E+02  0.00000000000E+00 0.  1.
          2    1    1    2  501    0 -0.11069544844E+03  0.38064789223E+02 -0.35005786897E+03  0.36911098888E+03  0.00000000000E+00 0. -1.
<scales pt_clust_5="13000.00000" pt_clust_6="13000.00000" pt_clust_7="13000.00000" pt_clust_8="13000.00000" pt_clust_9="26.05530" pt_clust_10="119.32736"></scales>
<clustering>
<clus scale="   26.055">  2  9  1 -1</clus>
<clus scale="   90.995">  5  6 -1 -1</clus>
<clus scale="  103.283">  7  8 -1 -1</clus>
<clus scale="  119.327">  2 10  1 -1</clus>
<clus scale="  139.560">  2  5  1 -1</clus>
<clus scale="   26.055">  2  5  1 -1</clus>
</clustering>
</event>
<event>
10    2  0.6640105E-006  0.1634929E+03  0.7546771E-02  0.1206380E+00
         21   -1    0    0  503  502  0.00000000000E+00  0.00000000000E+00  0.47946790536E+03  0.47946790536E+03  0.00000000000E+00 0. -1.
          3   -1    0    0  502    0 -0.00000000000E+00 -0.00000000000E+00 -0.98254250501E+02  0.98254250501E+02  0.00000000000E+00 0. -1.
         23    2    1    2    0    0 -0.61904285037E+01 -0.31865514287E+02  0.60354466423E+02  0.11849355133E+03  0.96666062728E+02 0.  0.
         23    2    1    2    0    0  0.12173017972E+03  0.75142416134E+02  0.27186860478E+03  0.32050807998E+03  0.91368877132E+02 0.  0.
        -13    1    3    3    0    0 -0.26544631087E+02  0.28063940721E+02  0.21078640529E+02  0.44005809786E+02  0.00000000000E+00 0.  1.
         13    1    3    3    0    0  0.20354202583E+02 -0.59929455008E+02  0.39275825894E+02  0.74487741542E+02  0.00000000000E+00 0. -1.
        -13    1    4    4    0    0  0.12181041634E+03  0.51189601997E+02  0.26413169732E+03  0.29533659849E+03  0.00000000000E+00 0. -1.
         13    1    4    4    0    0 -0.80236621648E-01  0.23952814138E+02  0.77369074640E+01  0.25171481485E+02  0.00000000000E+00 0.  1.
         21    1    1    2  503  501 -0.29347243512E+02 -0.13273229898E+02  0.32910633584E+02  0.46049420589E+02  0.00000000000E+00 0. -1.
          3    1    1    2  501    0 -0.86192507707E+02 -0.30003671950E+02  0.16079950069E+02  0.92671103961E+02  0.00000000000E+00 0. -1.
<scales pt_clust_5="13000.00000" pt_clust_6="13000.00000" pt_clust_7="13000.00000" pt_clust_8="13000.00000" pt_clust_9="23.91811" pt_clust_10="141.43074"></scales>
<clustering>
<clus scale="   23.918">  9 10 -1 -1</clus>
<clus scale="   91.369">  7  8 -1 -1</clus>
<clus scale="   96.666">  5  6 -1 -1</clus>
<clus scale="  101.971">  2  5  1 -1</clus>
<clus scale="  141.431">  1  9  2 -1</clus>
<clus scale="  141.431">  1  5  2 -1</clus>
</clustering>
</event>
<event>
10    2  0.6640105E-006  0.1375517E+03  0.7546771E-02  0.1217188E+00
          1   -1    0    0  503    0 -0.00000000000E+00  0.00000000000E+00  0.70220247444E+03  0.70220247444E+03  0.00000000000E+00 0. -1.
         21   -1    0    0  501  502  0.00000000000E+00 -0.00000000000E+00 -0.22977967819E+03  0.22977967819E+03  0.00000000000E+00 0. -1.
         23    2    1    2    0    0  0.11083658168E+03  0.58478383994E+01  0.33318918550E+03  0.36306471956E+03  0.92097840391E+02 0.  0.
         23    2    1    2    0    0 -0.23473576942E+02  0.13619282627E+03 -0.76635952827E+02  0.18176636441E+03  0.89813402240E+02 0.  0.
        -11    1    3    3    0    0  0.11299935854E+03  0.25923755633E+02  0.22612403737E+03  0.25411213354E+03  0.00000000000E+00 0. -1.
         11    1    3    3    0    0 -0.21627768604E+01 -0.20075917234E+02  0.10706514814E+03  0.10895258603E+03  0.00000000000E+00 0.  1.
        -13    1    4    4    0    0  0.26454506408E+02  0.10023855262E+02 -0.65163154860E+01  0.29030689814E+02  0.00000000000E+00 0.  1.
         13    1    4    4    0    0 -0.49928083350E+02  0.12616897101E+03 -0.70119637341E+02  0.15273567459E+03  0.00000000000E+00 0. -1.
         21    1    1    2  503  502 -0.33472621677E+02 -0.41375162405E+02 -0.64971261676E+02  0.83985625613E+02  0.00000000000E+00 0. -1.
          1    1    1    2  501    0 -0.53890383058E+02 -0.10066550227E+03  0.28084082525E+03  0.30316544305E+03  0.00000000000E+00 0. -1.
<scales pt_clust_5="13000.00000" pt_clust_6="13000.00000" pt_clust_7="13000.00000" pt_clust_8="13000.00000" pt_clust_9="53.21955" pt_clust_10="117.94234"></scales>
<clustering>
<clus scale="   53.220">  2  9  1 -1</clus>
<clus scale="   89.813">  7  8 -1 -1</clus>
<clus scale="   92.098">  5  6 -1 -1</clus>
<clus scale="  117.942">  2 10  1 -1</clus>
<clus scale="  136.033">  2  7  1 -1</clus>
<clus scale="   53.220">  2  5  1 -1</clus>
</clustering>
</event>
<event>
10    2  0.6640105E-006  0.1040229E+03  0.7546771E-02  0.1274207E+00
         21   -1    0    0  503  502  0.00000000000E+00  0.00000000000E+00  0.82735637975E+03  0.82735637975E+03  0.00000000000E+00 0. -1.
          4   -1    0    0  502    0 -0.00000000000E+00 -0.00000000000E+00 -0.31837536129E+02  0.31837536129E+02  0.00000000000E+00 0. -1.
         23    2    1    2    0    0 -0.57688739589E+02 -0.99430207246E+01  0.12788306424E+03  0.16776521527E+03  0.91456191700E+02 0.  0.
         23    2    1    2    0    0 -0.79395840237E+01 -0.15276256870E+02  0.38991657243E+03  0.40193879027E+03  0.96038828877E+02 0.  0.
        -11    1    3    3    0    0 -0.19332878202E+01 -0.36558607185E+02  0.85028643135E+02  0.92575048013E+02  0.00000000000E+00 0.  1.
         11    1    3    3    0    0 -0.55755451769E+02  0.26615586460E+02  0.42854421101E+02  0.75190167259E+02  0.00000000000E+00 0. -1.
        -13    1    4    4    0    0 -0.30617015716E+02  0.32100169334E+02  0.20245584032E+03  0.20725875085E+03  0.00000000000E+00 0. -1.
         13    1    4    4    0    0  0.22677431692E+02 -0.47376426204E+02  0.18746073211E+03  0.19468003942E+03  0.00000000000E+00 0.  1.
         21    1    1    2  503  501  0.93963632662E+01  0.22488481168E+02  0.64116424587E+02  0.68592560308E+02  0.00000000000E+00 0.  1.
          4    1    1    2  501    0  0.56231960346E+02  0.27307964272E+01  0.21360278237E+03  0.22089735003E+03  0.00000000000E+00 0. -1.
<scales pt_clust_5="13000.00000" pt_clust_6="13000.00000" pt_clust_7="13000.00000" pt_clust_8="13000.00000" pt_clust_9="24.37260" pt_clust_10="59.62085"></scales>
<clustering>
<clus scale="   24.373">  1  9  2 -1</clus>
<clus scale="   59.621">  1 10  2 -1</clus>
<clus scale="   91.456">  5  6 -1 -1</clus>
<clus scale="   96.039">  7  8 -1 -1</clus>
<clus scale="   99.808">  2  5  1 -1</clus>
<clus scale="   24.373">  1  5  2 -1</clus>
</clustering>
</event>
<event>
10    2  0.6640105E-006  0.1578230E+03  0.7546771E-02  0.1191363E+00
          1   -1    0    0  503    0 -0.00000000000E+00  0.00000000000E+00  0.52434718688E+03  0.52434718688E+03  0.00000000000E+00 0. -1.
         21   -1    0    0  501  502  0.00000000000E+00 -0.00000000000E+00 -0.25472113038E+03  0.25472113038E+03  0.00000000000E+00 0. -1.
         23    2    1    2    0    0  0.50161957802E+02  0.11006729759E+03  0.19738386061E+03  0.24858624647E+03  0.90574287159E+02 0.  0.
         23    2    1    2    0    0 -0.12285355026E+03 -0.88797341149E+02  0.17879937280E+03  0.25089336845E+03  0.89444418558E+02 0.  0.
        -11    1    3    3    0    0 -0.23111230154E+02  0.27431394605E+02  0.24505958693E+02  0.43441367159E+02  0.00000000000E+00 0.  1.
         11    1    3    3    0    0  0.73273187956E+02  0.82635902988E+02  0.17287790192E+03  0.20514487931E+03  0.00000000000E+00 0. -1.
        -13    1    4    4    0    0 -0.89422910203E+02 -0.88008412890E+02  0.85624814710E+02  0.15189979099E+03  0.00000000000E+00 0.  1.
         13    1    4    4    0    0 -0.33430640053E+02 -0.78892825837E+00  0.93174558095E+02  0.98993577460E+02  0.00000000000E+00 0. -1.
         21    1    1    2  503  502  0.65807888404E+02 -0.57866164753E+02 -0.17834854464E+03  0.19871430390E+03  0.00000000000E+00 0. -1.
          1    1    1    2  501    0  0.68837040493E+01  0.36596208309E+02  0.71791367715E+02  0.80874398436E+02  0.00000000000E+00 0. -1.
<scales pt_clust_5="13000.00000" pt_clust_6="13000.00000" pt_clust_7="13000.00000" pt_clust_8="13000.00000" pt_clust_9="77.18608" pt_clust_10="37.23801"></scales>
<clustering>
<clus scale="   37.238">  2 10  1 -1</clus>
<clus scale="   77.186">  2  9  1 -1</clus>
<clus scale="   89.444">  7  8 -1 -1</clus>
<clus scale="   90.574">  5  6 -1 -1</clus>
<clus scale="  157.177">  2  7  1 -1</clus>
<clus scale="   37.238">  2  5  1 -1</clus>
</clustering>
</event>
<event>
10    2  0.6640105E-006  0.9630464E+02  0.7546771E-02  0.1290415E+00
         -1   -1    0    0    0  501 -0.00000000000E+00  0.00000000000E+00  0.25843848614E+03  0.25843848614E+03  0.00000000000E+00 0.  1.
         21   -1    0    0  503  502  0.00000000000E+00 -0.00000000000E+00 -0.90244866890E+03  0.90244866890E+03  0.00000000000E+00 0.  1.
         23    2    1    2    0    0  0.91948667939E+01  0.33266342465E+01  0.20138547544E+03  0.22172032483E+03  0.92239799738E+02 0.  0.
         23    2    1    2    0    0  0.21337649078E+02  0.60677491884E+02 -0.42414558573E+02  0.12313751402E+03  0.96056229843E+02 0.  0.
        -11    1    4    4    0    0  0.54125755403E+02  0.62389972509E+02 -0.33364400085E+02  0.89080240574E+02  0.00000000000E+00 0.  1.
         11    1    4    4    0    0 -0.32788106325E+02 -0.17124806248E+01 -0.90501584882E+01  0.34057273451E+02  0.00000000000E+00 0. -1.
        -13    1    3    3    0    0 -0.23771364699E+02  0.33219683490E+02  0.53669221495E+02  0.67446352657E+02  0.00000000000E+00 0.  1.
         13    1    3    3    0    0  0.32966231493E+02 -0.29893049244E+02  0.14771625394E+03  0.15427397217E+03  0.00000000000E+00 0. -1.
         21    1    1    2  503  501 -0.17394064942E+02  0.32365114328E+02 -0.10370502411E+03  0.11002175305E+03  0.00000000000E+00 0.  1.
         -1    1    1    2    0  502 -0.13138450930E+02 -0.96369240459E+02 -0.69927607552E+03  0.70600756313E+03  0.00000000000E+00 0.  1.
<scales pt_clust_5="13000.00000" pt_clust_6="13000.00000" pt_clust_7="13000.00000" pt_clust_8="13000.00000" pt_clust_9="36.74308" pt_clust_10="73.53301"></scales>
<clustering>
<clus scale="   36.743">  2  9  1 -1</clus>
<clus scale="   73.533">  2 10  1 -1</clus>
<clus scale="   92.240">  7  8 -1 -1</clus>
<clus scale="   92.498">  1  7  2 -1</clus>
<clus scale="   96.056">  5  6 -1 -1</clus>
<clus scale="   36.743">  2  5  1 -1</clus>
</clustering>
</event>
<event>
10    2  0.6640105E-006  0.1131129E+03  0.7546771E-02  0.1255027E+00
         21   -1    0    0  501  502  0.00000000000E+00  0.00000000000E+00  0.81928820226E+02  0.81928820226E+02  0.00000000000E+00 0. -1.
          2   -1    0    0  503    0 -0.00000000000E+00 -0.00000000000E+00 -0.34626989821E+03  0.34626989821E+03  0.00000000000E+00 0. -1.
         23    2    1    2    0    0  0.29250732047E+02  0.72220246736E+02 -0.14155906210E+03  0.18597855675E+03  0.92074351180E+02 0.  0.
         23    2    1    2    0    0 -0.68081128761E+02 -0.15381160229E+02 -0.11215894287E+03  0.16084270971E+03  0.91755809713E+02 0.  0.
        -11    1    3    3    0    0 -0.32739307229E+02  0.30608087667E+02 -0.65787200262E+02  0.79603222213E+02  0.00000000000E+00 0.  1.
         11    1    3    3    0    0  0.61990039276E+02  0.41612159069E+02 -0.75771861838E+02  0.10637533454E+03  0.00000000000E+00 0. -1.
        -11    1    4    4    0    0 -0.69844244502E+02 -0.36747792723E+02 -0.46116695371E+02  0.91407704008E+02  0.00000000000E+00 0. -1.
         11    1    4    4    0    0  0.17631157408E+01  0.21366632494E+02 -0.66042247503E+02  0.69435005700E+02  0.00000000000E+00 0.  1.
         21    1    1    2  503  502  0.20955495117E+02 -0.86001618319E+01  0.11469739694E+02  0.25389968251E+02  0.00000000000E+00 0. -1.
          2    1    1    2  501    0  0.17874901598E+02 -0.48238924675E+02 -0.22092812708E+02  0.55987483729E+02  0.00000000000E+00 0. -1.
<scales pt_clust_5="13000.00000" pt_clust_6="13000.00000" pt_clust_7="13000.00000" pt_clust_8="13000.00000" pt_clust_9="22.65161" pt_clust_10="55.71754"></scales>
<clustering>
<clus scale="   22.652">  1  9  2 -1</clus>
<clus scale="   55.718">  1 10  2 -1</clus>
<clus scale="   91.756">  7  8 -1 -1</clus>
<clus scale="   92.074">  5  6 -1 -1</clus>
<clus scale="  112.854">  1  7  2 -1</clus>
<clus scale="   22.652">  1  5  2 -1</clus>
</clustering>
</event>
<event>
10    2  0.6640105E-006  0.1077164E+03  0.7546771E-02  0.1264924E+00
         21   -1    0    0  503  502  0.00000000000E+00  0.00000000000E+00  0.62336359827E+02  0.62336359827E+02  0.00000000000E+00 0.  1.
         -4   -1    0    0    0  501 -0.00000000000E+00 -0.00000000000E+00 -0.34777146708E+03  0.34777146708E+03  0.00000000000E+00 0.  1.
         23    2    1    2    0    0 -0.83543586464E+01 -0.51606171812E+02 -0.12086265725E+03  0.16067374774E+03  0.92061278600E+02 0.  0.
         23    2    1    2    0    0  0.77484849217E+01  0.59786074999E+02 -0.10355486466E+03  0.15100882901E+03  0.91900177703E+02 0.  0.
        -11    1    4    4    0    0  0.39330239372E+02  0.17912653728E+01 -0.60479340296E+02  0.72165275329E+02  0.00000000000E+00 0. -1.
         11    1    4    4    0    0 -0.31581754450E+02  0.57994809626E+02 -0.43075524362E+02  0.78843553679E+02  0.00000000000E+00 0.  1.
        -13    1    3    3    0    0  0.41711433715E+02 -0.17191316836E+02 -0.51763857444E+02  0.68664998468E+02  0.00000000000E+00 0.  1.
         13    1    3    3    0    0 -0.50065792362E+02 -0.34414854975E+02 -0.69098799802E+02  0.92008749268E+02  0.00000000000E+00 0. -1.
         21    1    1    2  503  501  0.27821916124E+02  0.10013944890E+02 -0.44562002603E+00  0.29572566447E+02  0.00000000000E+00 0.  1.
         -4    1    1    2    0  502 -0.27216042399E+02 -0.18193848077E+02 -0.60571965326E+02  0.68852683718E+02  0.00000000000E+00 0.  1.
<scales pt_clust_5="13000.00000" pt_clust_6="13000.00000" pt_clust_7="13000.00000" pt_clust_8="13000.00000" pt_clust_9="29.56921" pt_clust_10="30.25669"></scales>
<clustering>
<clus scale="   29.569">  1  9  2 -1</clus>
<clus scale="   30.257">  1 10  2 -1</clus>
<clus scale="   91.900">  5  6 -1 -1</clus>
<clus scale="   92.061">  7  8 -1 -1</clus>
<clus scale="  107.579">  1  5  2 -1</clus>
<clus scale="   29.569">  1  5  2 -1</clus>
</clustering>
</event>
<event>
10    2  0.6640105E-006  0.1660797E+03  0.7546771E-02  0.1203550E+00
          1   -1    0    0  503    0 -0.00000000000E+00  0.00000000000E+00  0.56730786016E+03  0.56730786016E+03  0.00000000000E+00 0. -1.
         21   -1    0    0  501  502  0.00000000000E+00 -0.00000000000E+00 -0.33797141340E+03  0.33797141340E+03  0.00000000000E+00 0. -1.
         23    2    1    2    0    0  0.51733725584E+02  0.68218201770E+01 -0.14429217069E+02  0.10874896047E+03  0.94314466044E+02 0.  0.
         23    2    1    2    0    0 -0.16837993501E+03  0.13021594345E+02  0.43391917009E+03  0.47595257595E+03  0.98608538940E+02 0.  0.
        -11    1    4    4    0    0 -0.41792277135E+02  0.22613452807E+02  0.23658520738E+03  0.24131001436E+03  0.00000000000E+00 0.  1.
         11    1    4    4    0    0 -0.12658765788E+03 -0.95918584617E+01  0.19733396270E+03  0.23464256160E+03  0.00000000000E+00 0. -1.
        -13    1    3    3    0    0 -0.10236333094E+02 -0.28714184807E+02 -0.20990981441E+02  0.37012271292E+02  0.00000000000E+00 0.  1.
         13    1    3    3    0    0  0.61970058678E+02  0.35536004984E+02  0.65617643721E+01  0.71736689179E+02  0.00000000000E+00 0. -1.
         21    1    1    2  503  502 -0.46364295706E+02 -0.60743579029E+02 -0.15074516407E+02  0.77888839730E+02  0.00000000000E+00 0. -1.
          1    1    1    2  501    0  0.16301050514E+03  0.40900164507E+02 -0.17507898985E+03  0.24268889741E+03  0.00000000000E+00 0. -1.
<scales pt_clust_5="13000.00000" pt_clust_6="13000.00000" pt_clust_7="13000.00000" pt_clust_8="13000.00000" pt_clust_9="76.41617" pt_clust_10="133.63692"></scales>
<clustering>
<clus scale="   76.416">  2  9  1 -1</clus>
<clus scale="   94.314">  7  8 -1 -1</clus>
<clus scale="   98.609">  5  6 -1 -1</clus>
<clus scale="  103.393">  1  7  2 -1</clus>
<clus scale="  133.637">  2 10  1 -1</clus>
<clus scale="   76.416">  2  5  1 -1</clus>
</clustering>
</event>
<event>
10    2  0.6640105E-006  0.1554002E+03  0.7546771E-02  0.1194200E+00
          1   -1    0    0  503    0 -0.00000000000E+00  0.00000000000E+00  0.33749077711E+03  0.33749077711E+03  0.00000000000E+00 0. -1.
         21   -1    0    0  501  502  0.00000000000E+00 -0.00000000000E+00 -0.35757859788E+03  0.35757859788E+03  0.00000000000E+00 0.  1.
         23    2    1    2    0    0 -0.37902309761E+02  0.12094184234E+03  0.24753774330E+03  0.29322146080E+03  0.92953625015E+02 0.  0.
         23    2    1    2    0    0  0.30453961407E+02 -0.11176274779E+03 -0.30484589024E+02  0.15088701853E+03  0.91756343837E+02 0.  0.
        -11    1    3    3    0    0 -0.26581024423E+02  0.17742552397E+02  0.92039629132E+01  0.33257509802E+02  0.00000000000E+00 0.  1.
         11    1    3    3    0    0 -0.11321285337E+02  0.10319928994E+03  0.23833378038E+03  0.25996395100E+03  0.00000000000E+00 0. -1.
        -11    1    4    4    0    0  0.50716632183E+02 -0.11214860241E+03 -0.38692441415E+02  0.12902166805E+03  0.00000000000E+00 0.  1.
         11    1    4    4    0    0 -0.20262670776E+02  0.38585462726E+00  0.82078523909E+01  0.21865350480E+02  0.00000000000E+00 0. -1.
         21    1    1    2  503  502  0.16940287244E+02 -0.32664459356E+02 -0.21235993264E+03  0.21552420102E+03  0.00000000000E+00 0.  1.
          1    1    1    2  501    0 -0.94919388903E+01  0.23485364804E+02 -0.24781042409E+02  0.35436694637E+02  0.00000000000E+00 0. -1.
<scales pt_clust_5="13000.00000" pt_clust_6="13000.00000" pt_clust_7="13000.00000" pt_clust_8="13000.00000" pt_clust_9="20.38001" pt_clust_10="25.33099"></scales>
<clustering>
<clus scale="   25.331">  2 10  1 -1</clus>
<clus scale="   20.380">  2  9  1 -1</clus>
<clus scale="   91.756">  7  8 -1 -1</clus>
<clus scale="   92.954">  5  6 -1 -1</clus>
<clus scale="  154.687">  2  7  1 -1</clus>
<clus scale="   25.331">  2  5  1 -1</clus>
</clustering>
</event>
<event>
10    2  0.8064172E-006  0.1468331E+03  0.7546771E-02  0.1205759E+00
          1   -1    0    0  502    0 -0.00000000000E+00  0.00000000000E+00  0.12720167681E+04  0.12720167681E+04  0.00000000000E+00 0. -1.
         21   -1    0    0  503  502  0.00000000000E+00 -0.00000000000E+00 -0.57117051814E+02  0.57117051814E+02  0.00000000000E+00 0. -1.
         23    2    1    2    0    0 -0.16965283404E+02 -0.13584239759E+03  0.71978487982E+03  0.73924421987E+03  0.98238310080E+02 0.  0.
         23    2    1    2    0    0  0.94931821282E+02  0.47071838970E+02  0.40084522452E+03  0.42467208849E+03  0.91878615573E+02 0.  0.
        -13    1    3    3    0    0 -0.43761854497E+02 -0.27744932355E+02  0.15055881981E+03  0.15922574981E+03  0.00000000000E+00 0.  1.
         13    1    3    3    0    0  0.26796571093E+02 -0.10809746523E+03  0.56922606002E+03  0.58001847006E+03  0.00000000000E+00 0. -1.
        -13    1    4    4    0    0  0.10070903430E+03  0.98599004705E+01  0.31698606269E+03  0.33274568542E+03  0.00000000000E+00 0. -1.
         13    1    4    4    0    0 -0.57772130147E+01  0.37211938500E+02  0.83859161838E+02  0.91926403070E+02  0.00000000000E+00 0.  1.
         21    1    1    2  503  501 -0.25156954731E+02 -0.18246288286E+01  0.15984264552E+01  0.25273634658E+02  0.00000000000E+00 0. -1.
          1    1    1    2  501    0 -0.52809583147E+02  0.90595187446E+02  0.92671185459E+02  0.13994387688E+03  0.00000000000E+00 0. -1.
<scales pt_clust_5="13000.00000" pt_clust_6="13000.00000" pt_clust_7="13000.00000" pt_clust_8="13000.00000" pt_clust_9="25.22304" pt_clust_10="111.28402"></scales>
<clustering>
<clus scale="   25.223">  2  9  1 -1</clus>
<clus scale="   91.879">  7  8 -1 -1</clus>
<clus scale="   98.238">  5  6 -1 -1</clus>
<clus scale="  111.284">  2 10  1 -1</clus>
<clus scale="  142.657">  2  7  1 -1</clus>
<clus scale="   25.223">  2  5  1 -1</clus>
</clustering>
</event>
<event>
10    2  0.6640105E-006  0.9831969E+02  0.7546771E-02  0.1284417E+00
         -1   -1    0    0    0  501 -0.00000000000E+00  0.00000000000E+00  0.31592669608E+03  0.31592669608E+03  0.00000000000E+00 0.  1.
         21   -1    0    0  503  502  0.00000000000E+00 -0.00000000000E+00 -0.15541527105E+03  0.15541527105E+03  0.00000000000E+00 0.  1.
         23    2    1    2    0    0 -0.24323617791E+02 -0.15756685053E+02  0.18742642995E+03  0.21083941880E+03  0.92112335608E+02 0.  0.
         23    2    1    2    0    0  0.42898615518E+02  0.16110033558E+02  0.86908452512E+02  0.13393804634E+03  0.91030196891E+02 0.  0.
        -13    1    3    3    0    0  0.32569101597E+02 -0.11347461280E+02  0.10553317260E+03  0.11102595091E+03  0.00000000000E+00 0.  1.
         13    1    3    3    0    0 -0.56892719388E+02 -0.44092237728E+01  0.81893257354E+02  0.99813467897E+02  0.00000000000E+00 0. -1.
        -13    1    4    4    0    0 -0.10138950622E+02  0.35829034934E+02  0.61536745192E+02  0.71925580100E+02  0.00000000000E+00 0.  1.
         13    1    4    4    0    0  0.53037566141E+02 -0.19719001376E+02  0.25371707320E+02  0.62012466245E+02  0.00000000000E+00 0. -1.
         21    1    1    2  503  501 -0.26208672063E+02 -0.20328448599E+02 -0.79267796817E+02  0.85927434070E+02  0.00000000000E+00 0.  1.
         -1    1    1    2    0  502  0.76336743361E+01  0.19975100094E+02 -0.34555660620E+02  0.40637067912E+02  0.00000000000E+00 0.  1.
<scales pt_clust_5="13000.00000" pt_clust_6="13000.00000" pt_clust_7="13000.00000" pt_clust_8="13000.00000" pt_clust_9="21.79493" pt_clust_10="21.38405"></scales>
<clustering>
<clus scale="   21.384">  2 10  1 -1</clus>
<clus scale="   21.795">  2  9  1 -1</clus>
<clus scale="   91.030">  7  8 -1 -1</clus>
<clus scale="   92.112">  5  6 -1 -1</clus>
<clus scale="   97.307">  2  7  1 -1</clus>
<clus scale="   21.384">  2  5  1 -1</clus>
</clustering>
</event>
<event>
10    2  0.6640105E-006  0.1894250E+03  0.7546771E-02  0.1159005E+00
          1   -1    0    0  503    0 -0.00000000000E+00  0.00000000000E+00  0.13883888232E+04  0.13883888232E+04  0.00000000000E+00 0. -1.
         21   -1    0    0  501  502  0.00000000000E+00 -0.00000000000E+00 -0.11081820495E+03  0.11081820495E+03  0.00000000000E+00 0. -1.
         23    2    1    2    0    0 -0.21326319707E+02  0.14190728900E+03  0.56696682560E+03  0.59189706298E+03  0.91094792681E+02 0.  0.
         23    2    1    2    0    0  0.11038287865E+03 -0.17147404405E+03  0.75187447348E+03  0.78437314218E+03  0.91314153405E+02 0.  0.
        -13    1    3    3    0    0  0.22533890983E+02  0.27255589947E+01  0.53985936904E+02  0.58563523613E+02  0.00000000000E+00 0.  1.
         13    1    3    3    0    0 -0.43860210690E+02  0.13918173000E+03  0.51298088870E+03  0.53333353937E+03  0.00000000000E+00 0. -1.
        -13    1    4    4    0    0  0.76784454271E+02 -0.16803915924E+03  0.56405069782E+03  0.59353702594E+03  0.00000000000E+00 0. -1.
         13    1    4    4    0    0  0.33598424376E+02 -0.34348848089E+01  0.18782377567E+03  0.19083611624E+03  0.00000000000E+00 0.  1.
         21    1    1    2  503  502 -0.22174032692E+02 -0.16652339974E+02 -0.30012316834E+02  0.40862296976E+02  0.00000000000E+00 0. -1.
          1    1    1    2  501    0 -0.66882526248E+02  0.46219095026E+02 -0.11258363997E+02  0.82074526024E+02  0.00000000000E+00 0. -1.
<scales pt_clust_5="13000.00000" pt_clust_6="13000.00000" pt_clust_7="13000.00000" pt_clust_8="13000.00000" pt_clust_9="27.73064" pt_clust_10="88.24676"></scales>
<clustering>
<clus scale="   27.731">  2  9  1 -1</clus>
<clus scale="   88.247">  2 10  1 -1</clus>
<clus scale="   91.095">  5  6 -1 -1</clus>
<clus scale="   91.314">  7  8 -1 -1</clus>
<clus scale="  189.319">  1  5  2 -1</clus>
<clus scale="   27.731">  2  5  1 -1</clus>
</clustering>
</event>
<event>
10    2  0.6640105E-006  0.2455390E+03  0.7546771E-02  0.1142652E+00
         21   -1    0    0  503  502  0.00000000000E+00  0.00000000000E+00  0.71379167172E+03  0.71379167172E+03  0.00000000000E+00 0. -1.
          1   -1    0    0  502    0 -0.00000000000E+00 -0.00000000000E+00 -0.19840501655E+03  0.19840501655E+03  0.00000000000E+00 0. -1.
         23    2    1    2    0    0 -0.24394860375E+02  0.72809546570E+02  0.94278705814E+02  0.15597504790E+03  0.97690336842E+02 0.  0.
         23    2    1    2    0    0  0.23618541578E+03  0.41624483513E+02  0.14938183706E+03  0.29666514960E+03  0.90438539838E+02 0.  0.
        -13    1    4    4    0    0  0.29840973763E+02 -0.23491851107E+01 -0.10743839208E+02  0.31803026063E+02  0.00000000000E+00 0.  1.
         13    1    4    4    0    0  0.20634444202E+03  0.43973668624E+02  0.16012567627E+03  0.26486212354E+03  0.00000000000E+00 0. -1.
        -13    1    3    3    0    0  0.23145117076E+02  0.42099823102E+02  0.86365044453E+02  0.98828196649E+02  0.00000000000E+00 0. -1.
         13    1    3    3    0    0 -0.47539977451E+02  0.30709723468E+02  0.79136613614E+01  0.57146851249E+02  0.00000000000E+00 0.  1.
         21    1    1    2  503  501 -0.22566164656E+02  0.16425726782E+02  0.22255074860E+03  0.22429416397E+03  0.00000000000E+00 0. -1.
          1    1    1    2  501    0 -0.18922439075E+03 -0.13085975686E+03  0.49175363695E+02  0.23526232681E+03  0.00000000000E+00 0. -1.
<scales pt_clust_5="13000.00000" pt_clust_6="13000.00000" pt_clust_7="13000.00000" pt_clust_8="13000.00000" pt_clust_9="27.91122" pt_clust_10="228.27680"></scales>
<clustering>
<clus scale="   27.911">  1  9  2 -1</clus>
<clus scale="   90.439">  5  6 -1 -1</clus>
<clus scale="   97.690">  7  8 -1 -1</clus>
<clus scale="  127.991">  2  7  1 -1</clus>
<clus scale="  228.277">  1 10  2 -1</clus>
<clus scale="   27.911">  1  5  2 -1</clus>
</clustering>
</event>
<event>
10    2  0.6640105E-006  0.9641544E+02  0.7546771E-02  0.1289615E+00
          2   -1    0    0  503    0 -0.00000000000E+00  0.00000000000E+00  0.59266767005E+03  0.59266767005E+03  0.00000000000E+00 0. -1.
         21   -1    0    0  501  502  0.00000000000E+00 -0.00000000000E+00 -0.71267851891E+02  0.71267851891E+02  0.00000000000E+00 0.  1.
         23    2    1    2    0    0  0.33250293611E+02 -0.17856360470E+02  0.42931658664E+03  0.44053862819E+03  0.91307829530E+02 0.  0.
         23    2    1    2    0    0  0.14151707257E+01  0.22055582021E+02  0.10766581432E+03  0.14098621333E+03  0.88299113078E+02 0.  0.
        -13    1    3    3    0    0  0.37160698161E+02 -0.52276290590E+02  0.27441082497E+03  0.28180672261E+03  0.00000000000E+00 0.  1.
         13    1    3    3    0    0 -0.39104045501E+01  0.34419930120E+02  0.15490576167E+03  0.15873190558E+03  0.00000000000E+00 0. -1.
        -13    1    4    4    0    0 -0.19952314723E+02 -0.18004506409E+02  0.31800741771E+01  0.27062335184E+02  0.00000000000E+00 0.  1.
         13    1    4    4    0    0  0.21367485448E+02  0.40060088430E+02  0.10448574014E+03  0.11392387815E+03  0.00000000000E+00 0. -1.
         21    1    1    2  503  502 -0.23982176213E+02 -0.29834586946E+02 -0.32222102232E+02  0.50035099944E+02  0.00000000000E+00 0.  1.
          2    1    1    2  501    0 -0.10683288124E+02  0.25635365395E+02  0.16639519441E+02  0.32375580479E+02  0.00000000000E+00 0. -1.
<scales pt_clust_5="13000.00000" pt_clust_6="13000.00000" pt_clust_7="13000.00000" pt_clust_8="13000.00000" pt_clust_9="33.61470" pt_clust_10="27.77237"></scales>
<clustering>
<clus scale="   27.772">  2 10  1 -1</clus>
<clus scale="   33.615">  2  9  1 -1</clus>
<clus scale="   88.299">  7  8 -1 -1</clus>
<clus scale="   91.308">  5  6 -1 -1</clus>
<clus scale="   93.571">  2  7  1 -1</clus>
<clus scale="   27.772">  2  5  1 -1</clus>
</clustering>
</event>
<event>
10    2  0.6640105E-006  0.8990697E+02  0.7546771E-02  0.1303690E+00
          2   -1    0    0  503    0 -0.00000000000E+00  0.00000000000E+00  0.41501700756E+03  0.41501700756E+03  0.00000000000E+00 0. -1.
         21   -1    0    0  501  502  0.00000000000E+00 -0.00000000000E+00 -0.31541309291E+03  0.31541309291E+03  0.00000000000E+00 0. -1.
         23    2    1    2    0    0  0.53118050968E+01 -0.13915304193E+02  0.26038989919E+03  0.27542664243E+03  0.88516014355E+02 0.  0.
         23    2    1    2    0    0 -0.14606552131E+02 -0.27278035403E+02  0.11930592452E+03  0.15233512494E+03  0.89524544594E+02 0.  0.
        -11    1    4    4    0    0 -0.31413195127E+02 -0.57227909876E+01  0.12081236721E+03  0.12496066275E+03  0.00000000000E+00 0. -1.
         11    1    4    4    0    0  0.16806642996E+02 -0.21555244416E+02 -0.15064426891E+01  0.27374462190E+02  0.00000000000E+00 0.  1.
        -13    1    3    3    0    0  0.39981802099E+02 -0.30318310940E+02  0.16961980243E+03  0.17688590066E+03  0.00000000000E+00 0. -1.
         13    1    3    3    0    0 -0.34669997002E+02  0.16403006747E+02  0.90770096758E+02  0.98540741767E+02  0.00000000000E+00 0.  1.
         21    1    1    2  503  502 -0.45124578424E+02  0.24825079536E+02 -0.84220494423E+02  0.98719824923E+02  0.00000000000E+00 0. -1.
          2    1    1    2  501    0  0.54419325459E+02  0.16368260060E+02 -0.19587141463E+03  0.20394850818E+03  0.00000000000E+00 0. -1.
<scales pt_clust_5="13000.00000" pt_clust_6="13000.00000" pt_clust_7="13000.00000" pt_clust_8="13000.00000" pt_clust_9="51.50255" pt_clust_10="41.04100"></scales>
<clustering>
<clus scale="   51.503">  2  9  1 -1</clus>
<clus scale="   41.041">  2 10  1 -1</clus>
<clus scale="   88.516">  7  8 -1 -1</clus>
<clus scale="   88.903">  1  7  2 -1</clus>
<clus scale="   89.525">  5  6 -1 -1</clus>
<clus scale="   51.503">  2  5  1 -1</clus>
</clustering>
</event>
<event>
10    2  0.6640105E-006  0.2252136E+03  0.7546771E-02  0.1130108E+00
          2   -1    0    0  503    0 -0.00000000000E+00  0.00000000000E+00  0.15139722742E+04  0.15139722742E+04  0.00000000000E+00 0. -1.
         21   -1    0    0  501  502  0.00000000000E+00 -0.00000000000E+00 -0.58937371587E+02  0.58937371587E+02  0.00000000000E+00 0. -1.
         23    2    1    2    0    0 -0.23509772759E+03 -0.55873464021E+02  0.93843413028E+03  0.97345446879E+03  0.92532158915E+02 0.  0.
         23    2    1    2    0    0  0.15160685224E+03  0.39395588004E+02  0.32747860257E+03  0.37444397175E+03  0.91811779400E+02 0.  0.
        -11    1    4    4    0    0  0.80391780278E+02  0.34629254529E+02  0.86283798897E+02  0.12291020119E+03  0.00000000000E+00 0. -1.
         11    1    4    4    0    0  0.71215071957E+02  0.47663334747E+01  0.24119480368E+03  0.25153377056E+03  0.00000000000E+00 0.  1.
        -13    1    3    3    0    0 -0.17806492654E+03 -0.81471507459E+02  0.73443436656E+03  0.76009115465E+03  0.00000000000E+00 0. -1.
         13    1    3    3    0    0 -0.57032801049E+02  0.25598043438E+02  0.20399976371E+03  0.21336331414E+03  0.00000000000E+00 0.  1.
         21    1    1    2  503  502 -0.95106287343E+01  0.21408840625E+02  0.15813907151E+02  0.28264291522E+02  0.00000000000E+00 0.  1.
          2    1    1    2  501    0  0.93001504085E+02 -0.49309646075E+01  0.17330826263E+03  0.19674691375E+03  0.00000000000E+00 0. -1.
<scales pt_clust_5="13000.00000" pt_clust_6="13000.00000" pt_clust_7="13000.00000" pt_clust_8="13000.00000" pt_clust_9="23.42628" pt_clust_10="90.88720"></scales>
<clustering>
<clus scale="   23.426">  2  9  1 -1</clus>
<clus scale="   90.887">  2 10  1 -1</clus>
<clus scale="   91.812">  5  6 -1 -1</clus>
<clus scale="   92.532">  7  8 -1 -1</clus>
<clus scale="  224.919">  2  5  1 -1</clus>
<clus scale="   23.426">  2  5  1 -1</clus>
</clustering>
</event>
<event>
10    2  0.6640105E-006  0.1063817E+03  0.7546771E-02  0.1268585E+00
         -2   -1    0    0    0  501 -0.00000000000E+00  0.00000000000E+00  0.63818504223E+03  0.63818504223E+03  0.00000000000E+00 0.  1.
         21   -1    0    0  503  502  0.00000000000E+00 -0.00000000000E+00 -0.17845999075E+03  0.17845999075E+03  0.00000000000E+00 0. -1.
         23    2    1    2    0    0  0.48099756012E+02 -0.27085228628E+02  0.31817499471E+03  0.33614223448E+03  0.93322443191E+02 0.  0.
         23    2    1    2    0    0 -0.55053101626E+02 -0.49013298283E+02  0.24663556378E+03  0.27289452740E+03  0.90604494139E+02 0.  0.
        -11    1    4    4    0    0 -0.42648997732E+02  0.18433722789E+02  0.77148919245E+02  0.90059396423E+02  0.00000000000E+00 0. -1.
         11    1    4    4    0    0 -0.12404103894E+02 -0.67447021071E+02  0.16948664453E+03  0.18283513098E+03  0.00000000000E+00 0.  1.
        -11    1    3    3    0    0  0.18516795875E+02 -0.43778074432E+02  0.28402721328E+03  0.28797716821E+03  0.00000000000E+00 0.  1.
         11    1    3    3    0    0  0.29582960137E+02  0.16692845803E+02  0.34147781431E+02  0.48165066263E+02  0.00000000000E+00 0. -1.
         21    1    1    2  503  501  0.30759674916E+02  0.81258654055E+01 -0.12810612822E+03  0.13199760368E+03  0.00000000000E+00 0. -1.
         -2    1    1    2    0  502 -0.23806329301E+02  0.67972661505E+02  0.23020621211E+02  0.75610667421E+02  0.00000000000E+00 0.  1.
<scales pt_clust_5="13000.00000" pt_clust_6="13000.00000" pt_clust_7="13000.00000" pt_clust_8="13000.00000" pt_clust_9="31.81489" pt_clust_10="72.73374"></scales>
<clustering>
<clus scale="   31.815">  2  9  1 -1</clus>
<clus scale="   72.734">  2 10  1 -1</clus>
<clus scale="   90.604">  5  6 -1 -1</clus>
<clus scale="   93.322">  7  8 -1 -1</clus>
<clus scale="  104.006">  2  5  1 -1</clus>
<clus scale="   31.815">  2  5  1 -1</clus>
</clustering>
</event>
<event>
10    2  0.6640105E-006  0.5080837E+03  0.7546771E-02  0.1037262E+00
          1   -1    0    0  503    0 -0.00000000000E+00  0.00000000000E+00  0.12778967206E+04  0.12778967206E+04  0.00000000000E+00 0. -1.
         21   -1    0    0  501  502  0.00000000000E+00 -0.00000000000E+00 -0.39442280135E+03  0.39442280135E+03  0.00000000000E+00 0.  1.
         23    2    1    2    0    0  0.18654499438E+03 -0.11711199118E+03  0.13945121677E+03  0.27651883958E+03  0.92205061583E+02 0.  0.
         23    2    1    2    0    0 -0.22000585765E+03  0.50925643750E+03  0.24486850443E+03  0.61686733715E+03  0.11322557415E+03 0.  0.
        -11    1    4    4    0    0 -0.22990274096E+03  0.47878622624E+03  0.21474893004E+03  0.57289494996E+03  0.00000000000E+00 0.  1.
         11    1    4    4    0    0  0.98968833084E+01  0.30470211262E+02  0.30119574390E+02  0.43972387188E+02  0.00000000000E+00 0. -1.
        -13    1    3    3    0    0  0.84044181241E+02 -0.42070217105E+02  0.89719673808E+01  0.94413048709E+02  0.00000000000E+00 0.  1.
         13    1    3    3    0    0  0.10250081313E+03 -0.75041774079E+02  0.13047924939E+03  0.18210579088E+03  0.00000000000E+00 0. -1.
         21    1    1    2  503  502 -0.51212186672E+01  0.19750961145E+02 -0.71355330269E+02  0.74215298319E+02  0.00000000000E+00 0.  1.
          1    1    1    2  501    0  0.38582081940E+02 -0.41189540746E+03  0.57050952836E+03  0.70471804694E+03  0.00000000000E+00 0. -1.
<scales pt_clust_5="13000.00000" pt_clust_6="13000.00000" pt_clust_7="13000.00000" pt_clust_8="13000.00000" pt_clust_9="20.40410" pt_clust_10="495.30728"></scales>
<clustering>
<clus scale="   20.404">  2  9  1 -1</clus>
<clus scale="   92.205">  7  8 -1 -1</clus>
<clus scale="  113.226">  5  6 -1 -1</clus>
<clus scale="  235.886">  1  7  2 -1</clus>
<clus scale="  495.307">  2 10  1 -1</clus>
<clus scale="   20.404">  2  5  1 -1</clus>
</clustering>
</event>
<event>
10    2  0.6640105E-006  0.1017360E+03  0.7546771E-02  0.1276699E+00
         21   -1    0    0  503  502  0.00000000000E+00  0.00000000000E+00  0.82882260367E+02  0.82882260367E+02  0.00000000000E+00 0.  1.
         -2   -1    0    0    0  501 -0.00000000000E+00 -0.00000000000E+00 -0.61822398621E+03  0.61822398621E+03  0.00000000000E+00 0.  1.
         23    2    1    2    0    0 -0.51996491739E+02  0.16821900742E+02 -0.36493686689E+03  0.37995758600E+03  0.90566212506E+02 0.  0.
         23    2    1    2    0    0  0.13939084428E+02 -0.34118629696E+02 -0.11356650693E+03  0.14984427096E+03  0.90540460987E+02 0.  0.
        -13    1    3    3    0    0  0.26653436348E+01 -0.22814631434E+02 -0.27496669477E+02  0.35828456518E+02  0.00000000000E+00 0. -1.
         13    1    3    3    0    0 -0.54661835374E+02  0.39636532176E+02 -0.33744019741E+03  0.34412912948E+03  0.00000000000E+00 0.  1.
        -13    1    4    4    0    0 -0.20111291974E+02 -0.36301370935E+02 -0.10744254587E+03  0.11517879258E+03  0.00000000000E+00 0. -1.
         13    1    4    4    0    0  0.34050376402E+02  0.21827412393E+01 -0.61239610625E+01  0.34665478383E+02  0.00000000000E+00 0.  1.
         21    1    1    2  503  501  0.41575744804E+02  0.48332026222E+02  0.36095210052E+02  0.73262483601E+02  0.00000000000E+00 0.  1.
         -2    1    1    2    0  502 -0.35183374925E+01 -0.31035297268E+02 -0.92933562069E+02  0.98041906010E+02  0.00000000000E+00 0.  1.
<scales pt_clust_5="13000.00000" pt_clust_6="13000.00000" pt_clust_7="13000.00000" pt_clust_8="13000.00000" pt_clust_9="47.70043" pt_clust_10="31.23411"></scales>
<clustering>
<clus scale="   31.234">  1 10  2 -1</clus>
<clus scale="   47.700">  1  9  2 -1</clus>
<clus scale="   90.540">  7  8 -1 -1</clus>
<clus scale="   90.566">  5  6 -1 -1</clus>
<clus scale="  101.713">  1  7  2 -1</clus>
<clus scale="   31.234">  1  5  2 -1</clus>
</clustering>
</event>
<event>
10    2  0.6640105E-006  0.1095453E+03  0.7546771E-02  0.1261948E+00
         21   -1    0    0  503  502  0.00000000000E+00  0.00000000000E+00  0.19964246801E+03  0.19964246801E+03  0.00000000000E+00 0. -1.
         -3   -1    0    0    0  501 -0.00000000000E+00 -0.00000000000E+00 -0.51937631706E+03  0.51937631706E+03  0.00000000000E+00 0.  1.
         23    2    1    2    0    0 -0.30362109025E+02 -0.61357852797E+02 -0.23834168127E+03  0.26441664961E+03  0.91775616560E+02 0.  0.
         23    2    1    2    0    0  0.49396599457E+02  0.18156528788E+02 -0.14398831569E+03  0.17936991666E+03  0.93119538078E+02 0.  0.
        -11    1    3    3    0    0 -0.16011763543E+02 -0.85161828022E+02 -0.18366822211E+03  0.20308355260E+03  0.00000000000E+00 0. -1.
         11    1    3    3    0    0 -0.14350345483E+02  0.23803975225E+02 -0.54673459162E+02  0.61333097009E+02  0.00000000000E+00 0.  1.
        -13    1    4    4    0    0  0.73812740755E+02  0.25514216468E+02 -0.12571308621E+03  0.14799687829E+03  0.00000000000E+00 0.  1.
         13    1    4    4    0    0 -0.24416141298E+02 -0.73576876792E+01 -0.18275229478E+02  0.31373038366E+02  0.00000000000E+00 0. -1.
         21    1    1    2  503  501 -0.27599434695E+02 -0.12561164714E+01  0.16287754889E+03  0.16520412391E+03  0.00000000000E+00 0. -1.
         -3    1    1    2    0  502  0.85649442631E+01  0.44457440480E+02 -0.10028140098E+03  0.11002809490E+03  0.00000000000E+00 0.  1.
<scales pt_clust_5="13000.00000" pt_clust_6="13000.00000" pt_clust_7="13000.00000" pt_clust_8="13000.00000" pt_clust_9="27.62800" pt_clust_10="44.54349"></scales>
<clustering>
<clus scale="   27.628">  1  9  2 -1</clus>
<clus scale="   44.543">  1 10  2 -1</clus>
<clus scale="   91.776">  5  6 -1 -1</clus>
<clus scale="   93.120">  7  8 -1 -1</clus>
<clus scale="  108.405">  2  5  1 -1</clus>
<clus scale="   27.628">  1  5  2 -1</clus>
</clustering>
</event>
<event>
10    2  0.8013527E-006  0.3993150E+03  0.7546771E-02  0.1087358E+00
         21   -1    0    0  503  502  0.00000000000E+00  0.00000000000E+00  0.47997280012E+03  0.47997280012E+03  0.00000000000E+00 0. -1.
          2   -1    0    0  502    0 -0.00000000000E+00 -0.00000000000E+00 -0.57091934411E+03  0.57091934411E+03  0.00000000000E+00 0. -1.
         23    2    1    2    0    0  0.70611259796E+02 -0.36139296137E+02  0.67728620346E-01  0.12042895061E+03  0.90615279192E+02 0.  0.
         23    2    1    2    0    0 -0.39614684287E+03  0.11797390724E+03  0.17494787183E+03  0.45796602843E+03  0.90972311325E+02 0.  0.
        -11    1    3    3    0    0  0.23510223629E+02  0.22590825363E+02  0.25040402607E+02  0.41110798683E+02  0.00000000000E+00 0.  1.
         11    1    3    3    0    0  0.47101036167E+02 -0.58730121499E+02 -0.24972673987E+02  0.79318151929E+02  0.00000000000E+00 0. -1.
        -13    1    4    4    0    0 -0.28118239161E+02  0.18435340701E+02  0.42873988053E+02  0.54485557828E+02  0.00000000000E+00 0.  1.
         13    1    4    4    0    0 -0.36802860371E+03  0.99538566536E+02  0.13207388378E+03  0.40348047060E+03  0.00000000000E+00 0. -1.
         21    1    1    2  503  501  0.13042695574E+02  0.32395413025E+02  0.14040109690E+02  0.37639067111E+02  0.00000000000E+00 0. -1.
          2    1    1    2  501    0  0.31249288750E+03 -0.11423002412E+03 -0.28000225413E+03  0.43485809809E+03  0.00000000000E+00 0. -1.
<scales pt_clust_5="13000.00000" pt_clust_6="13000.00000" pt_clust_7="13000.00000" pt_clust_8="13000.00000" pt_clust_9="34.92241" pt_clust_10="388.81447"></scales>
<clustering>
<clus scale="   34.922">  1  9  2 -1</clus>
<clus scale="   90.615">  5  6 -1 -1</clus>
<clus scale="   90.972">  7  8 -1 -1</clus>
<clus scale="  120.243">  2  5  1 -1</clus>
<clus scale="  388.814">  1 10  2 -1</clus>
<clus scale="   34.922">  1  5  2 -1</clus>
</clustering>
</event>
<event>
10    2  0.6640105E-006  0.1074205E+03  0.7546771E-02  0.1265966E+00
         21   -1    0    0  501  502  0.00000000000E+00  0.00000000000E+00  0.46532658565E+03  0.46532658565E+03  0.00000000000E+00 0. -1.
          3   -1    0    0  503    0 -0.00000000000E+00 -0.00000000000E+00 -0.60229935789E+02  0.60229935789E+02  0.00000000000E+00 0. -1.
         23    2    1    2    0    0 -0.49904773337E+02 -0.48183503894E+02  0.57501605398E+02  0.12758493825E+03  0.90329094949E+02 0.  0.
         23    2    1    2    0    0  0.40094187023E+02  0.17333472391E+01  0.20529311335E+03  0.22731786273E+03  0.88980896821E+02 0.  0.
        -11    1    3    3    0    0 -0.64090620641E+02 -0.13163474917E+02  0.61239013291E+02  0.89616412977E+02  0.00000000000E+00 0. -1.
         11    1    3    3    0    0  0.14185847303E+02 -0.35020028978E+02 -0.37374078930E+01  0.37968525268E+02  0.00000000000E+00 0.  1.
        -13    1    4    4    0    0  0.51819409941E+02 -0.31334430286E+02  0.10695521043E+03  0.12290856278E+03  0.00000000000E+00 0. -1.
         13    1    4    4    0    0 -0.11725222918E+02  0.33067777525E+02  0.98337902924E+02  0.10440929994E+03  0.00000000000E+00 0.  1.
         21    1    1    2  503  502  0.44987511848E+02  0.16388056482E+02  0.74966299503E+02  0.88951619877E+02  0.00000000000E+00 0.  1.
          3    1    1    2  501    0 -0.35176925534E+02  0.30062100173E+02  0.67335631608E+02  0.81702100591E+02  0.00000000000E+00 0. -1.
<scales pt_clust_5="13000.00000" pt_clust_6="13000.00000" pt_clust_7="13000.00000" pt_clust_8="13000.00000" pt_clust_9="43.92595" pt_clust_10="46.27252"></scales>
<clustering>
<clus scale="   46.273">  1 10  2 -1</clus>
<clus scale="   43.926">  1  9  2 -1</clus>
<clus scale="   88.981">  7  8 -1 -1</clus>
<clus scale="   90.329">  5  6 -1 -1</clus>
<clus scale="  106.289">  1  7  2 -1</clus>
<clus scale="   46.273">  1  5  2 -1</clus>
</clustering>
</event>
<event>
10    2  0.6640105E-006  0.1003074E+03  0.7546771E-02  0.1281952E+00
         21   -1    0    0  503  502  0.00000000000E+00  0.00000000000E+00  0.56975185477E+02  0.56975185477E+02  0.00000000000E+00 0. -1.
         -1   -1    0    0    0  501 -0.00000000000E+00 -0.00000000000E+00 -0.42219175342E+03  0.42219175342E+03  0.00000000000E+00 0.  1.
         23    2    1    2    0    0 -0.58358829497E+01 -0.32781719047E+02 -0.28336856993E+03  0.29957329252E+03  0.91311075652E+02 0.  0.
         23    2    1    2    0    0  0.39670036479E+00  0.14508248421E+02 -0.34073379243E+02  0.10272381193E+03  0.95815133044E+02 0.  0.
        -11    1    3    3    0    0 -0.34125015665E+02 -0.37985675585E+01 -0.39382921698E+02  0.52249022298E+02  0.00000000000E+00 0. -1.
         11    1    3    3    0    0  0.28289132716E+02 -0.28983151489E+02 -0.24398564823E+03  0.24732427023E+03  0.00000000000E+00 0.  1.
        -13    1    4    4    0    0  0.42269988213E+02 -0.32094402365E+01 -0.38207304130E+02  0.57068822478E+02  0.00000000000E+00 0.  1.
         13    1    4    4    0    0 -0.41873287848E+02  0.17717688657E+02  0.41339248868E+01  0.45654989449E+02  0.00000000000E+00 0. -1.
         21    1    1    2  503  501  0.77108281313E+01 -0.18897347385E+02 -0.68291026882E+01  0.21522157238E+02  0.00000000000E+00 0. -1.
         -1    1    1    2    0  502 -0.22716455465E+01  0.37170818011E+02 -0.40945516087E+02  0.55347677212E+02  0.00000000000E+00 0.  1.
<scales pt_clust_5="13000.00000" pt_clust_6="13000.00000" pt_clust_7="13000.00000" pt_clust_8="13000.00000" pt_clust_9="20.40996" pt_clust_10="34.44812"></scales>
<clustering>
<clus scale="   20.410">  1  9  2 -1</clus>
<clus scale="   34.448">  1 10  2 -1</clus>
<clus scale="   91.311">  5  6 -1 -1</clus>
<clus scale="   95.815">  7  8 -1 -1</clus>
<clus scale="   96.014">  2  5  1 -1</clus>
<clus scale="   20.410">  1  5  2 -1</clus>
</clustering>
</event>
<event>
10    2  0.6640105E-006  0.2084952E+03  0.7546771E-02  0.1168833E+00
          1   -1    0    0  502    0 -0.00000000000E+00  0.00000000000E+00  0.17282325246E+04  0.17282325246E+04  0.00000000000E+00 0. -1.
         21   -1    0    0  503  502  0.00000000000E+00 -0.00000000000E+00 -0.40146899543E+02  0.40146899543E+02  0.00000000000E+00 0. -1.
         23    2    1    2    0    0 -0.76975350128E+01  0.66303151942E+02  0.40960782419E+03  0.42494098579E+03  0.91328592220E+02 0.  0.
         23    2    1    2    0    0  0.17694178034E+03  0.41572532828E+02  0.58931539174E+03  0.62331378593E+03  0.90502904238E+02 0.  0.
        -11    1    4    4    0    0  0.17461709332E+03  0.17315981102E+02  0.54731764532E+03  0.57475871230E+03  0.00000000000E+00 0. -1.
         11    1    4    4    0    0  0.23246870165E+01  0.24256551726E+02  0.41997746420E+02  0.48555073635E+02  0.00000000000E+00 0.  1.
        -13    1    3    3    0    0 -0.46655968050E+02  0.26987097909E+02  0.25738324674E+03  0.26296619272E+03  0.00000000000E+00 0.  1.
         13    1    3    3    0    0  0.38958433037E+02  0.39316054033E+02  0.15222457745E+03  0.16197479307E+03  0.00000000000E+00 0. -1.
         21    1    1    2  503  501 -0.28827968317E+02  0.47555620847E+00  0.62181972276E+02  0.68541050380E+02  0.00000000000E+00 0.  1.
          1    1    1    2  501    0 -0.14041627701E+03 -0.10835124098E+03  0.62698043686E+03  0.65158360206E+03  0.00000000000E+00 0. -1.
<scales pt_clust_5="13000.00000" pt_clust_6="13000.00000" pt_clust_7="13000.00000" pt_clust_8="13000.00000" pt_clust_9="23.34984" pt_clust_10="196.55387"></scales>
<clustering>
<clus scale="   23.350">  9 10 -1 -1</clus>
<clus scale="   90.503">  5  6 -1 -1</clus>
<clus scale="   91.329">  7  8 -1 -1</clus>
<clus scale="  113.121">  1  7  2 -1</clus>
<clus scale="  196.554">  2  9  1 -1</clus>
<clus scale="  196.554">  2  5  1 -1</clus>
</clustering>
</event>
<event>
10    2  0.6640105E-006  0.4039986E+03  0.7546771E-02  0.1042469E+00
          1   -1    0    0  503    0 -0.00000000000E+00  0.00000000000E+00  0.97030005693E+03  0.97030005693E+03  0.00000000000E+00 0. -1.
         21   -1    0    0  501  502  0.00000000000E+00 -0.00000000000E+00 -0.37302396960E+03  0.37302396960E+03  0.00000000000E+00 0. -1.
         23    2    1    2    0    0  0.40877171371E+03  0.77651910879E+02  0.57109594357E+03  0.71224612074E+03  0.89553484322E+02 0.  0.
         23    2    1    2    0    0 -0.34438029763E+03 -0.58710163647E+02  0.84997934074E+02  0.36969107606E+03  0.86035865820E+02 0.  0.
        -11    1    4    4    0    0 -0.29021240577E+03 -0.38303661589E+02  0.38111059096E+02  0.29519970152E+03  0.00000000000E+00 0. -1.
         11    1    4    4    0    0 -0.54167891865E+02 -0.20406502058E+02  0.46886874977E+02  0.74491374537E+02  0.00000000000E+00 0.  1.
        -13    1    3    3    0    0  0.60285485854E+02  0.39560576126E+02  0.13162979730E+03  0.15008591714E+03  0.00000000000E+00 0.  1.
         13    1    3    3    0    0  0.34848622786E+03  0.38091334753E+02  0.43946614627E+03  0.56216020360E+03  0.00000000000E+00 0. -1.
         21    1    1    2  503  502 -0.88239662694E+02  0.57571579830E+02 -0.12063869555E+03  0.16016997141E+03  0.00000000000E+00 0. -1.
          1    1    1    2  501    0  0.23848246613E+02 -0.76513327063E+02  0.61820905238E+02  0.10121685832E+03  0.00000000000E+00 0. -1.
<scales pt_clust_5="13000.00000" pt_clust_6="13000.00000" pt_clust_7="13000.00000" pt_clust_8="13000.00000" pt_clust_9="83.31641" pt_clust_10="80.14384"></scales>
<clustering>
<clus scale="   80.144">  2 10  1 -1</clus>
<clus scale="   83.316">  2  9  1 -1</clus>
<clus scale="   86.036">  5  6 -1 -1</clus>
<clus scale="   89.553">  7  8 -1 -1</clus>
<clus scale="  403.233">  2  5  1 -1</clus>
<clus scale="   80.144">  2  5  1 -1</clus>
</clustering>
</event>
<event>
10    2  0.6640105E-006  0.1162326E+03  0.7546771E-02  0.1254223E+00
          2   -1    0    0  503    0 -0.00000000000E+00  0.00000000000E+00  0.53680782563E+03  0.53680782563E+03  0.00000000000E+00 0. -1.
         21   -1    0    0  501  502  0.00000000000E+00 -0.00000000000E+00 -0.81145524673E+02  0.81145524673E+02  0.00000000000E+00 0. -1.
         23    2    1    2    0    0  0.53226073883E+02  0.74406775299E+00  0.29089319998E+03  0.31365428812E+03  0.10453033092E+03 0.  0.
         23    2    1    2    0    0 -0.40987331877E+02 -0.37915340674E+02  0.20366039696E+03  0.23060777423E+03  0.92654486210E+02 0.  0.
        -11    1    3    3    0    0  0.27372678742E+02  0.37037571808E+02  0.47295302893E+02  0.66014323769E+02  0.00000000000E+00 0.  1.
         11    1    3    3    0    0  0.25853395140E+02 -0.36293504056E+02  0.24359789709E+03  0.24763996435E+03  0.00000000000E+00 0. -1.
        -13    1    4    4    0    0  0.22596718582E+02  0.10904771069E+02  0.28474930451E+02  0.37951908870E+02  0.00000000000E+00 0.  1.
         13    1    4    4    0    0 -0.63584050459E+02 -0.48820111743E+02  0.17518546651E+03  0.19265586536E+03  0.00000000000E+00 0. -1.
         21    1    1    2  503  502  0.16188818032E+02  0.23267946550E+02 -0.79648084154E+01  0.29443392111E+02  0.00000000000E+00 0. -1.
          2    1    1    2  501    0 -0.28427560037E+02  0.13903326371E+02 -0.30926487562E+02  0.44247895846E+02  0.00000000000E+00 0. -1.
<scales pt_clust_5="13000.00000" pt_clust_6="13000.00000" pt_clust_7="13000.00000" pt_clust_8="13000.00000" pt_clust_9="28.34564" pt_clust_10="33.58553"></scales>
<clustering>
<clus scale="   28.346">  2  9  1 -1</clus>
<clus scale="   33.586">  2 10  1 -1</clus>
<clus scale="   92.654">  7  8 -1 -1</clus>
<clus scale="  104.530">  5  6 -1 -1</clus>
<clus scale="  105.680">  2  7  1 -1</clus>
<clus scale="   28.346">  2  5  1 -1</clus>
</clustering>
</event>
<event>
10    2  0.6640105E-006  0.1133402E+03  0.7546771E-02  0.1255489E+00
         21   -1    0    0  503  502  0.00000000000E+00  0.00000000000E+00  0.20518346023E+03  0.20518346023E+03  0.00000000000E+00 0.  1.
          1   -1    0    0  502    0 -0.00000000000E+00 -0.00000000000E+00 -0.63716314627E+03  0.63716314627E+03  0.00000000000E+00 0. -1.
         23    2    1    2    0    0  0.19066599353E+01  0.30830972651E+02 -0.19488844634E+03  0.21748248139E+03  0.91449105885E+02 0.  0.
         23    2    1    2    0    0 -0.29944273438E+02 -0.96841208295E+02 -0.35211639201E+03  0.37830486401E+03  0.94094300985E+02 0.  0.
        -11    1    4    4    0    0 -0.14840952348E+02  0.13573670188E+02 -0.10930952520E+03  0.11114436868E+03  0.00000000000E+00 0. -1.
         11    1    4    4    0    0 -0.15103321090E+02 -0.11041487848E+03 -0.24280686681E+03  0.26716049533E+03  0.00000000000E+00 0.  1.
        -11    1    3    3    0    0 -0.26407091859E+02  0.40841443020E+02 -0.17458297939E+03  0.18123072218E+03  0.00000000000E+00 0. -1.
         11    1    3    3    0    0  0.28313751795E+02 -0.10010470369E+02 -0.20305466948E+02  0.36251759208E+02  0.00000000000E+00 0.  1.
         21    1    1    2  503  501 -0.33843056430E+02 -0.48595391527E+02  0.98962962666E+02  0.11532793472E+03  0.00000000000E+00 0.  1.
          1    1    1    2  501    0  0.61880669933E+02  0.11460562717E+03  0.16062189629E+02  0.13123132639E+03  0.00000000000E+00 0. -1.
<scales pt_clust_5="13000.00000" pt_clust_6="13000.00000" pt_clust_7="13000.00000" pt_clust_8="13000.00000" pt_clust_9="59.21879" pt_clust_10="86.19070"></scales>
<clustering>
<clus scale="   59.219">  1  9  2 -1</clus>
<clus scale="   86.191">  1 10  2 -1</clus>
<clus scale="   91.449">  7  8 -1 -1</clus>
<clus scale="   94.094">  5  6 -1 -1</clus>
<clus scale="  111.154">  2  7  1 -1</clus>
<clus scale="   59.219">  1  5  2 -1</clus>
</clustering>
</event>
<event>
10    2  0.6640105E-006  0.1120125E+03  0.7546771E-02  0.1257380E+00
         21   -1    0    0  501  502  0.00000000000E+00  0.00000000000E+00  0.11705343870E+03  0.11705343870E+03  0.00000000000E+00 0.  1.
          2   -1    0    0  503    0 -0.00000000000E+00 -0.00000000000E+00 -0.31180291832E+03  0.31180291832E+03  0.00000000000E+00 0. -1.
         23    2    1    2    0    0  0.73091778126E+02  0.36688520049E+02 -0.16299915504E+03  0.20409157925E+03  0.91630740718E+02 0.  0.
         23    2    1    2    0    0 -0.33467818995E+02 -0.24318339446E+02 -0.89691880082E+02  0.13562436802E+03  0.92940084502E+02 0.  0.
        -13    1    4    4    0    0 -0.49493244313E+02  0.11019392360E+02 -0.17453993295E+02  0.53625088555E+02  0.00000000000E+00 0.  1.
         13    1    4    4    0    0  0.16025425318E+02 -0.35337731805E+02 -0.72237886786E+02  0.81999279467E+02  0.00000000000E+00 0. -1.
        -13    1    3    3    0    0 -0.21129024169E+02  0.14103449178E+02 -0.41938833456E+02  0.49032730831E+02  0.00000000000E+00 0.  1.
         13    1    3    3    0    0  0.94220802296E+02  0.22585070871E+02 -0.12106032159E+03  0.15505884842E+03  0.00000000000E+00 0. -1.
         21    1    1    2  503  502 -0.74763275830E+01 -0.29930815581E+02  0.22628770213E+02  0.38259775703E+02  0.00000000000E+00 0. -1.
          2    1    1    2  501    0 -0.32147631548E+02  0.17560634977E+02  0.35312785299E+02  0.50880634042E+02  0.00000000000E+00 0. -1.
<scales pt_clust_5="13000.00000" pt_clust_6="13000.00000" pt_clust_7="13000.00000" pt_clust_8="13000.00000" pt_clust_9="30.85043" pt_clust_10="35.96687"></scales>
<clustering>
<clus scale="   30.850">  1  9  2 -1</clus>
<clus scale="   35.967">  1 10  2 -1</clus>
<clus scale="   91.631">  7  8 -1 -1</clus>
<clus scale="   92.940">  5  6 -1 -1</clus>
<clus scale="  110.928">  2  7  1 -1</clus>
<clus scale="   30.850">  1  5  2 -1</clus>
</clustering>
</event>
<event>
10    2  0.6640105E-006  0.1259171E+03  0.7546771E-02  0.1236050E+00
         21   -1    0    0  501  502  0.00000000000E+00  0.00000000000E+00  0.19025619706E+03  0.19025619706E+03  0.00000000000E+00 0.  1.
          2   -1    0    0  503    0 -0.00000000000E+00 -0.00000000000E+00 -0.35421182458E+03  0.35421182458E+03  0.00000000000E+00 0.  1.
         23    2    1    2    0    0  0.79370903407E+01 -0.68169967391E+02 -0.14096843983E+03  0.18009019920E+03  0.88601562987E+02 0.  0.
         23    2    1    2    0    0  0.36938278087E+02  0.96846933004E+02 -0.15302378746E+03  0.20856458083E+03  0.96639226129E+02 0.  0.
        -13    1    4    4    0    0 -0.14969096675E+02  0.87282316766E+02 -0.88427225023E+02  0.12514651733E+03  0.00000000000E+00 0.  1.
         13    1    4    4    0    0  0.51907374762E+02  0.95646162376E+01 -0.64596562437E+02  0.83418063495E+02  0.00000000000E+00 0. -1.
        -13    1    3    3    0    0 -0.22031068894E+02  0.22035310866E+01 -0.77801016161E+02  0.80890182727E+02  0.00000000000E+00 0.  1.
         13    1    3    3    0    0  0.29968159235E+02 -0.70373498478E+02 -0.63167423669E+02  0.99200016476E+02  0.00000000000E+00 0. -1.
         21    1    1    2  503  502 -0.41610636658E+02  0.13119194914E+02  0.59961754873E+02  0.74155043023E+02  0.00000000000E+00 0.  1.
          2    1    1    2  501    0 -0.32647317695E+01 -0.41796160527E+02  0.70074844901E+02  0.81658198586E+02  0.00000000000E+00 0.  1.
<scales pt_clust_5="13000.00000" pt_clust_6="13000.00000" pt_clust_7="13000.00000" pt_clust_8="13000.00000" pt_clust_9="44.98837" pt_clust_10="41.92347"></scales>
<clustering>
<clus scale="   41.923">  1 10  2 -1</clus>
<clus scale="   44.988">  1  9  2 -1</clus>
<clus scale="   88.602">  7  8 -1 -1</clus>
<clus scale="   96.639">  5  6 -1 -1</clus>
<clus scale="  119.859">  2  7  1 -1</clus>
<clus scale="   41.923">  1  5  2 -1</clus>
</clustering>
</event>
<event>
10    2  0.6640105E-006  0.9961669E+02  0.7546771E-02  0.1283818E+00
         21   -1    0    0  503  502  0.00000000000E+00  0.00000000000E+00  0.44057460433E+03  0.44057460433E+03  0.00000000000E+00 0. -1.
          1   -1    0    0  502    0 -0.00000000000E+00 -0.00000000000E+00 -0.20229794465E+03  0.20229794465E+03  0.00000000000E+00 0. -1.
         23    2    1    2    0    0  0.37400648168E+02 -0.19630723217E+02 -0.15228502055E+03  0.18084345337E+03  0.87917309802E+02 0.  0.
         23    2    1    2    0    0  0.22041818094E+02 -0.49892314738E+02  0.13055203576E+03  0.16946600284E+03  0.93272757334E+02 0.  0.
        -13    1    3    3    0    0 -0.30716986898E+01 -0.45150072896E+02 -0.47258168132E+02  0.65431635090E+02  0.00000000000E+00 0.  1.
         13    1    3    3    0    0  0.40472346858E+02  0.25519349679E+02 -0.10502685242E+03  0.11541181828E+03  0.00000000000E+00 0. -1.
        -13    1    4    4    0    0  0.20198015346E+02 -0.76997390133E+02  0.85207053193E+02  0.11660531645E+03  0.00000000000E+00 0.  1.
         13    1    4    4    0    0  0.18438027490E+01  0.27105075395E+02  0.45344982569E+02  0.52860686383E+02  0.00000000000E+00 0. -1.
         21    1    1    2  503  501 -0.41274937980E+02  0.84820932034E+01  0.24822059722E+02  0.48905020798E+02  0.00000000000E+00 0.  1.
          1    1    1    2  501    0 -0.18167528282E+02  0.61040944751E+02  0.23518758475E+03  0.24365807198E+03  0.00000000000E+00 0. -1.
<scales pt_clust_5="13000.00000" pt_clust_6="13000.00000" pt_clust_7="13000.00000" pt_clust_8="13000.00000" pt_clust_9="42.13747" pt_clust_10="78.63894"></scales>
<clustering>
<clus scale="   42.137">  1  9  2 -1</clus>
<clus scale="   78.639">  1 10  2 -1</clus>
<clus scale="   87.917">  5  6 -1 -1</clus>
<clus scale="   93.273">  7  8 -1 -1</clus>
<clus scale="   94.621">  2  5  1 -1</clus>
<clus scale="   42.137">  1  5  2 -1</clus>
</clustering>
</event>
<event>
10    2  0.6640105E-006  0.1701073E+03  0.7546771E-02  0.1178070E+00
         21   -1    0    0  501  502  0.00000000000E+00  0.00000000000E+00  0.65427019374E+03  0.65427019374E+03  0.00000000000E+00 0. -1.
          2   -1    0    0  503    0 -0.00000000000E+00 -0.00000000000E+00 -0.21329759516E+03  0.21329759516E+03  0.00000000000E+00 0. -1.
         23    2    1    2    0    0 -0.12045543820E+01 -0.14747361155E+03 -0.14557548746E+03  0.22712456480E+03  0.92970039983E+02 0.  0.
         23    2    1    2    0    0  0.38529179709E+02  0.80589296633E+02  0.48822328044E+03  0.50453083930E+03  0.90610506096E+02 0.  0.
        -11    1    4    4    0    0  0.68163262089E+02  0.49188928033E+02  0.32079362002E+03  0.33162377415E+03  0.00000000000E+00 0. -1.
         11    1    4    4    0    0 -0.29634082379E+02  0.31400368600E+02  0.16742966043E+03  0.17290706514E+03  0.00000000000E+00 0.  1.
        -13    1    3    3    0    0  0.16929319711E+02 -0.13369259155E+03 -0.77758339946E+02  0.15558492964E+03  0.00000000000E+00 0. -1.
         13    1    3    3    0    0 -0.18133874093E+02 -0.13781019994E+02 -0.67817147514E+02  0.71539635159E+02  0.00000000000E+00 0.  1.
         21    1    1    2  503  502 -0.24848238958E+02  0.96308499010E+01  0.60655984141E+02  0.66252069110E+02  0.00000000000E+00 0. -1.
          2    1    1    2  501    0 -0.12476386369E+02  0.57253465011E+02  0.37668821454E+02  0.69660315692E+02  0.00000000000E+00 0. -1.
<scales pt_clust_5="13000.00000" pt_clust_6="13000.00000" pt_clust_7="13000.00000" pt_clust_8="13000.00000" pt_clust_9="26.64936" pt_clust_10="59.96637"></scales>
<clustering>
<clus scale="   26.649">  1  9  2 -1</clus>
<clus scale="   59.966">  1 10  2 -1</clus>
<clus scale="   90.611">  5  6 -1 -1</clus>
<clus scale="   92.970">  7  8 -1 -1</clus>
<clus scale="  168.829">  1  5  2 -1</clus>
<clus scale="   26.649">  1  5  2 -1</clus>
</clustering>
</event>
<event>
10    2  0.6640105E-006  0.2810980E+03  0.7546771E-02  0.1106112E+00
          2   -1    0    0  503    0 -0.00000000000E+00  0.00000000000E+00  0.19978885269E+04  0.19978885269E+04  0.00000000000E+00 0. -1.
         21   -1    0    0  501  502  0.00000000000E+00 -0.00000000000E+00 -0.12496188958E+03  0.12496188958E+03  0.00000000000E+00 0.  1.
         23    2    1    2    0    0  0.10245252400E+03 -0.16171941014E+03  0.95818716573E+03  0.98157455889E+03  0.93361034690E+02 0.  0.
         23    2    1    2    0    0  0.66366209784E+02 -0.19127303423E+03  0.32556703220E+03  0.39455493829E+03  0.93219415598E+02 0.  0.
        -13    1    4    4    0    0  0.13446724566E+00 -0.13067724322E+03  0.22096636432E+03  0.25671520044E+03  0.00000000000E+00 0. -1.
         13    1    4    4    0    0  0.66231742538E+02 -0.60595791009E+02  0.10460066789E+03  0.13783973785E+03  0.00000000000E+00 0.  1.
        -13    1    3    3    0    0  0.21042315264E+02  0.68203184205E+01  0.56709117668E+02  0.60870516687E+02  0.00000000000E+00 0.  1.
         13    1    3    3    0    0  0.81410208732E+02 -0.16853972856E+03  0.90147804806E+03  0.92070404220E+03  0.00000000000E+00 0. -1.
         21    1    1    2  503  502 -0.42173761476E+02 -0.61069153324E+01 -0.29680976320E+01  0.42716860553E+02  0.00000000000E+00 0.  1.
          2    1    1    2  501    0 -0.12664497230E+03  0.35909935971E+03  0.59214053698E+03  0.70400405871E+03  0.00000000000E+00 0. -1.
<scales pt_clust_5="13000.00000" pt_clust_6="13000.00000" pt_clust_7="13000.00000" pt_clust_8="13000.00000" pt_clust_9="42.61362" pt_clust_10="265.19101"></scales>
<clustering>
<clus scale="   42.614">  2  9  1 -1</clus>
<clus scale="   93.219">  5  6 -1 -1</clus>
<clus scale="   93.361">  7  8 -1 -1</clus>
<clus scale="  211.250">  1  7  2 -1</clus>
<clus scale="  265.191">  2 10  1 -1</clus>
<clus scale="   42.614">  2  5  1 -1</clus>
</clustering>
</event>
<event>
10    2  0.6640105E-006  0.1463887E+03  0.7546771E-02  0.1205243E+00
         21   -1    0    0  501  502  0.00000000000E+00  0.00000000000E+00  0.72935492947E+03  0.72935492947E+03  0.00000000000E+00 0.  1.
         -1   -1    0    0    0  501 -0.00000000000E+00 -0.00000000000E+00 -0.48319133980E+03  0.48319133980E+03  0.00000000000E+00 0.  1.
         23    2    1    2    0    0  0.73234240500E+02  0.81423947123E+02 -0.40949987595E+03  0.43350651681E+03  0.90799992081E+02 0.  0.
         23    2    1    2    0    0 -0.15140818733E+03 -0.13096475252E+03  0.18831314290E+03  0.28986546589E+03  0.92108321758E+02 0.  0.
        -11    1    3    3    0    0  0.16214161933E+02  0.70103981231E+02 -0.13563058755E+03  0.15353541452E+03  0.00000000000E+00 0. -1.
         11    1    3    3    0    0  0.57020078566E+02  0.11319965892E+02 -0.27386928840E+03  0.27997110229E+03  0.00000000000E+00 0.  1.
        -13    1    4    4    0    0 -0.69425763713E+02 -0.53201199507E+01  0.70729452825E+02  0.99251679282E+02  0.00000000000E+00 0. -1.
         13    1    4    4    0    0 -0.81982423618E+02 -0.12564463257E+03  0.11758369007E+03  0.19061378661E+03  0.00000000000E+00 0.  1.
         21    1    1    2  503  502  0.99404563466E+01  0.52153648118E+02  0.34498145071E+03  0.34904300167E+03  0.00000000000E+00 0.  1.
         -1    1    1    2    0  503  0.68233490485E+02 -0.26128427208E+01  0.12236887201E+03  0.14013128490E+03  0.00000000000E+00 0.  1.
<scales pt_clust_5="13000.00000" pt_clust_6="13000.00000" pt_clust_7="13000.00000" pt_clust_8="13000.00000" pt_clust_9="53.09252" pt_clust_10="73.25928"></scales>
<clustering>
<clus scale="   53.093">  1  9  2 -1</clus>
<clus scale="   73.259">  1 10  2 -1</clus>
<clus scale="   90.800">  5  6 -1 -1</clus>
<clus scale="   92.108">  7  8 -1 -1</clus>
<clus scale="  145.569">  2  5  1 -1</clus>
<clus scale="   53.093">  1  5  2 -1</clus>
</clustering>
</event>
<event>
10    2  0.6640105E-006  0.2192647E+03  0.7546771E-02  0.1163824E+00
         21   -1    0    0  501  502  0.00000000000E+00  0.00000000000E+00  0.33198840397E+03  0.33198840397E+03  0.00000000000E+00 0.  1.
         -1   -1    0    0    0  501 -0.00000000000E+00 -0.00000000000E+00 -0.80898148620E+03  0.80898148620E+03  0.00000000000E+00 0.  1.
         23    2    1    2    0    0 -0.50242270894E+02  0.17691781039E+02  0.14877109396E+03  0.18451434883E+03  0.95265007347E+02 0.  0.
         23    2    1    2    0    0 -0.33231799406E+01 -0.14469406946E+03 -0.51653191675E+03  0.54405796754E+03  0.90809877016E+02 0.  0.
        -11    1    4    4    0    0  0.29629295403E+02 -0.13096215530E+03 -0.42914678887E+03  0.44966203716E+03  0.00000000000E+00 0.  1.
         11    1    4    4    0    0 -0.32952475343E+02 -0.13731914153E+02 -0.87385127878E+02  0.94395930377E+02  0.00000000000E+00 0. -1.
        -13    1    3    3    0    0  0.48544160065E+01 -0.33300464690E+02  0.53751615750E+02  0.63417052116E+02  0.00000000000E+00 0.  1.
         13    1    3    3    0    0 -0.55096686900E+02  0.50992245729E+02  0.95019478206E+02  0.12109729671E+03  0.00000000000E+00 0. -1.
         21    1    1    2  503  502 -0.41442839615E+02 -0.10291848195E+03  0.44958223104E+02  0.11971200736E+03  0.00000000000E+00 0.  1.
         -1    1    1    2    0  503  0.95008290449E+02  0.22992077037E+03 -0.15419048254E+03  0.29268556645E+03  0.00000000000E+00 0.  1.
<scales pt_clust_5="13000.00000" pt_clust_6="13000.00000" pt_clust_7="13000.00000" pt_clust_8="13000.00000" pt_clust_9="111.08895" pt_clust_10="199.57593"></scales>
<clustering>
<clus scale="   90.810">  5  6 -1 -1</clus>
<clus scale="   95.265">  7  8 -1 -1</clus>
<clus scale="  109.145">  2  7  1 -1</clus>
<clus scale="  111.089">  1  9  2 -1</clus>
<clus scale="  199.576">  1 10  2 -1</clus>
<clus scale="  111.089">  1  5  2 -1</clus>
</clustering>
</event>
<event>
10    2  0.6640105E-006  0.1135461E+03  0.7546771E-02  0.1255036E+00
         21   -1    0    0  501  502  0.00000000000E+00  0.00000000000E+00  0.57350386697E+03  0.57350386697E+03  0.00000000000E+00 0.  1.
         -1   -1    0    0    0  501 -0.00000000000E+00 -0.00000000000E+00 -0.33140554889E+03  0.33140554889E+03  0.00000000000E+00 0.  1.
         23    2    1    2    0    0  0.19138706156E+02 -0.65282527178E+02 -0.26631083473E+03  0.28859559693E+03  0.87965103573E+02 0.  0.
         23    2    1    2    0    0 -0.29198304479E+02  0.88487384719E+02  0.47668349330E+03  0.49406211690E+03  0.90485713390E+02 0.  0.
        -11    1    3    3    0    0  0.26161888163E+02  0.13270978018E+02 -0.45638751508E+02  0.54253653232E+02  0.00000000000E+00 0.  1.
         11    1    3    3    0    0 -0.70231820072E+01 -0.78553505196E+02 -0.22067208322E+03  0.23434194370E+03  0.00000000000E+00 0. -1.
        -11    1    4    4    0    0 -0.48317560023E+02  0.12473928625E+02  0.22447125871E+03  0.22995115023E+03  0.00000000000E+00 0.  1.
         11    1    4    4    0    0  0.19119255544E+02  0.76013456094E+02  0.25221223459E+03  0.26411096667E+03  0.00000000000E+00 0. -1.
         21    1    1    2  503  502 -0.30704086833E+02  0.80397819287E+01  0.56823639714E+02  0.65086903999E+02  0.00000000000E+00 0.  1.
         -1    1    1    2    0  503  0.40763685156E+02 -0.31244639470E+02 -0.25097980209E+02  0.57164798029E+02  0.00000000000E+00 0.  1.
<scales pt_clust_5="13000.00000" pt_clust_6="13000.00000" pt_clust_7="13000.00000" pt_clust_8="13000.00000" pt_clust_9="31.73924" pt_clust_10="50.44673"></scales>
<clustering>
<clus scale="   31.739">  1  9  2 -1</clus>
<clus scale="   50.447">  1 10  2 -1</clus>
<clus scale="   87.965">  5  6 -1 -1</clus>
<clus scale="   90.486">  7  8 -1 -1</clus>
<clus scale="  111.548">  2  5  1 -1</clus>
<clus scale="   31.739">  1  5  2 -1</clus>
</clustering>
</event>
<event>
10    2  0.6640105E-006  0.1132602E+03  0.7546771E-02  0.1256075E+00
         21   -1    0    0  503  502  0.00000000000E+00  0.00000000000E+00  0.42346633965E+03  0.42346633965E+03  0.00000000000E+00 0. -1.
         -1   -1    0    0    0  501 -0.00000000000E+00 -0.00000000000E+00 -0.80462547060E+02  0.80462547060E+02  0.00000000000E+00 0.  1.
         23    2    1    2    0    0 -0.22294430635E+02  0.65853189950E+02  0.45767156032E+02  0.12405117501E+03  0.91980308686E+02 0.  0.
         23    2    1    2    0    0 -0.53694849062E+00 -0.61463832428E+02  0.15682354480E+03  0.19007240842E+03  0.88067049627E+02 0.  0.
        -11    1    4    4    0    0  0.18786988490E+02 -0.10962576252E+02 -0.24325327200E+01  0.21887124755E+02  0.00000000000E+00 0.  1.
         11    1    4    4    0    0 -0.19323936980E+02 -0.50501256176E+02  0.15925607752E+03  0.16818528367E+03  0.00000000000E+00 0. -1.
        -11    1    3    3    0    0 -0.51400441332E+02  0.66747565761E+02  0.23702100718E+02  0.87515898456E+02  0.00000000000E+00 0. -1.
         11    1    3    3    0    0  0.29106010697E+02 -0.89437581096E+00  0.22065055315E+02  0.36535276553E+02  0.00000000000E+00 0.  1.
         21    1    1    2  503  501 -0.39686591381E+02  0.13707684677E+02  0.11043723155E+03  0.11814951658E+03  0.00000000000E+00 0. -1.
         -1    1    1    2    0  502  0.62517970507E+02 -0.18097042199E+02  0.29975860207E+02  0.71655786701E+02  0.00000000000E+00 0.  1.
<scales pt_clust_5="13000.00000" pt_clust_6="13000.00000" pt_clust_7="13000.00000" pt_clust_8="13000.00000" pt_clust_9="41.98721" pt_clust_10="58.19350"></scales>
<clustering>
<clus scale="   41.987">  1  9  2 -1</clus>
<clus scale="   58.194">  1 10  2 -1</clus>
<clus scale="   88.067">  5  6 -1 -1</clus>
<clus scale="   91.980">  7  8 -1 -1</clus>
<clus scale="  110.106">  1  5  2 -1</clus>
<clus scale="   41.987">  1  5  2 -1</clus>
</clustering>
</event>
<event>
10    2  0.6640105E-006  0.1058002E+03  0.7546771E-02  0.1272941E+00
         -3   -1    0    0    0  501 -0.00000000000E+00  0.00000000000E+00  0.51154808028E+03  0.51154808028E+03  0.00000000000E+00 0.  1.
         21   -1    0    0  503  502  0.00000000000E+00 -0.00000000000E+00 -0.19542016166E+03  0.19542016166E+03  0.00000000000E+00 0.  1.
         23    2    1    2    0    0  0.52797866741E+02 -0.70195994019E+01  0.37023851255E+03  0.38653567724E+03  0.97449392504E+02 0.  0.
         23    2    1    2    0    0 -0.47203382180E+01  0.54069872512E+01  0.56664972114E+02  0.10494160542E+03  0.88035813053E+02 0.  0.
        -13    1    4    4    0    0  0.39225548037E+02  0.12206490206E+01  0.95759523420E+01  0.40395946159E+02  0.00000000000E+00 0.  1.
         13    1    4    4    0    0 -0.43945886255E+02  0.41863382305E+01  0.47089019772E+02  0.64545659263E+02  0.00000000000E+00 0. -1.
        -13    1    3    3    0    0  0.80700367875E+02 -0.22494752258E+01  0.23860089279E+03  0.25188885556E+03  0.00000000000E+00 0.  1.
         13    1    3    3    0    0 -0.27902501135E+02 -0.47701241761E+01  0.13163761976E+03  0.13464682169E+03  0.00000000000E+00 0. -1.
         21    1    1    2  503  501 -0.40265282813E+02 -0.18671669655E+02 -0.15767310811E+03  0.16380089521E+03  0.00000000000E+00 0.  1.
         -3    1    1    2    0  502 -0.78122457102E+01  0.20284281806E+02  0.46897542067E+02  0.51690064068E+02  0.00000000000E+00 0.  1.
<scales pt_clust_5="13000.00000" pt_clust_6="13000.00000" pt_clust_7="13000.00000" pt_clust_8="13000.00000" pt_clust_9="46.80465" pt_clust_10="21.73669"></scales>
<clustering>
<clus scale="   21.737">  2 10  1 -1</clus>
<clus scale="   46.805">  2  9  1 -1</clus>
<clus scale="   88.036">  5  6 -1 -1</clus>
<clus scale="   97.199">  2  5  1 -1</clus>
<clus scale="   97.449">  7  8 -1 -1</clus>
<clus scale="   21.737">  2  5  1 -1</clus>
</clustering>
</event>
<event>
10    2  0.6640105E-006  0.9793500E+02  0.7546771E-02  0.1285506E+00
          1   -1    0    0  503    0 -0.00000000000E+00  0.00000000000E+00  0.41542082170E+03  0.41542082170E+03  0.00000000000E+00 0. -1.
         21   -1    0    0  501  502  0.00000000000E+00 -0.00000000000E+00 -0.11853927684E+03  0.11853927684E+03  0.00000000000E+00 0. -1.
         23    2    1    2    0    0 -0.47422046989E+01  0.28738482396E+02  0.25851310845E+03  0.27595767070E+03  0.92060957545E+02 0.  0.
         23    2    1    2    0    0  0.20093669371E+01 -0.48797725574E+02  0.54482941280E+02  0.11636690419E+03  0.90485412768E+02 0.  0.
        -13    1    3    3    0    0  0.29811758910E+02  0.46974579302E+02  0.17750187833E+03  0.18601685107E+03  0.00000000000E+00 0.  1.
         13    1    3    3    0    0 -0.34553963609E+02 -0.18236096907E+02  0.81011230117E+02  0.89940819634E+02  0.00000000000E+00 0. -1.
        -13    1    4    4    0    0 -0.29979468276E+02  0.13108095451E+02  0.12573449769E+02  0.35052565149E+02  0.00000000000E+00 0. -1.
         13    1    4    4    0    0  0.31988835213E+02 -0.61905821024E+02  0.41909491512E+02  0.81314339041E+02  0.00000000000E+00 0.  1.
         21    1    1    2  503  502 -0.27904773919E+02  0.55140628084E+02 -0.53633331057E+02  0.81827253854E+02  0.00000000000E+00 0. -1.
          1    1    1    2  501    0  0.30637611680E+02 -0.35081384906E+02  0.37518826194E+02  0.59808269791E+02  0.00000000000E+00 0. -1.
<scales pt_clust_5="13000.00000" pt_clust_6="13000.00000" pt_clust_7="13000.00000" pt_clust_8="13000.00000" pt_clust_9="34.11323" pt_clust_10="46.57649"></scales>
<clustering>
<clus scale="   46.576">  2 10  1 -1</clus>
<clus scale="   34.113">  2  9  1 -1</clus>
<clus scale="   90.485">  7  8 -1 -1</clus>
<clus scale="   92.061">  5  6 -1 -1</clus>
<clus scale="   96.455">  2  7  1 -1</clus>
<clus scale="   46.576">  2  5  1 -1</clus>
</clustering>
</event>
<event>
10    2  0.6640105E-006  0.1243964E+03  0.7546771E-02  0.1236965E+00
          3   -1    0    0  503    0 -0.00000000000E+00  0.00000000000E+00  0.56097358045E+02  0.56097358045E+02  0.00000000000E+00 0. -1.
         21   -1    0    0  501  502  0.00000000000E+00 -0.00000000000E+00 -0.11429306612E+04  0.11429306612E+04  0.00000000000E+00 0.  1.
         23    2    1    2    0    0  0.18858366617E+02  0.36955207632E+02 -0.14835044027E+03  0.17972665002E+03  0.92587743442E+02 0.  0.
         23    2    1    2    0    0 -0.14436211352E+03 -0.61773759494E+02 -0.42211201021E+03  0.45914978411E+03  0.89350757689E+02 0.  0.
        -11    1    4    4    0    0 -0.64495970200E+02 -0.37726797070E+01 -0.78634284286E+02  0.10177088950E+03  0.00000000000E+00 0. -1.
         11    1    4    4    0    0 -0.79866143321E+02 -0.58001079787E+02 -0.34347772592E+03  0.35737889461E+03  0.00000000000E+00 0.  1.
        -11    1    3    3    0    0  0.10517042109E+01  0.64136565124E+02 -0.70216283031E+02  0.95104844621E+02  0.00000000000E+00 0.  1.
         11    1    3    3    0    0  0.17806662406E+02 -0.27181357492E+02 -0.78134157243E+02  0.84621805401E+02  0.00000000000E+00 0. -1.
         21    1    1    2  503  502  0.22926996756E+02  0.44654817980E+02 -0.21903860432E+02  0.54767499951E+02  0.00000000000E+00 0.  1.
          3    1    1    2  501    0  0.10257675015E+03 -0.19836266118E+02 -0.49446699224E+03  0.50538408517E+03  0.00000000000E+00 0. -1.
<scales pt_clust_5="13000.00000" pt_clust_6="13000.00000" pt_clust_7="13000.00000" pt_clust_8="13000.00000" pt_clust_9="50.19661" pt_clust_10="106.61457"></scales>
<clustering>
<clus scale="   50.197">  1  9  2 -1</clus>
<clus scale="   89.351">  5  6 -1 -1</clus>
<clus scale="   92.588">  7  8 -1 -1</clus>
<clus scale="  106.615">  2 10  1 -1</clus>
<clus scale="  122.006">  2  5  1 -1</clus>
<clus scale="  106.615">  2  5  1 -1</clus>
</clustering>
</event>
<event>
10    2  0.6640105E-006  0.1429336E+03  0.7546771E-02  0.1209472E+00
         21   -1    0    0  501  502  0.00000000000E+00  0.00000000000E+00  0.50758505003E+02  0.50758505003E+02  0.00000000000E+00 0. -1.
          2   -1    0    0  503    0 -0.00000000000E+00 -0.00000000000E+00 -0.12180941311E+04  0.12180941311E+04  0.00000000000E+00 0. -1.
         23    2    1    2    0    0 -0.11764739247E+03 -0.35015275142E+02 -0.62156753801E+03  0.63999772630E+03  0.90464948563E+02 0.  0.
         23    2    1    2    0    0  0.98275283968E+02 -0.81870782215E+02 -0.39721546763E+03  0.42695802554E+03  0.90289376032E+02 0.  0.
        -11    1    3    3    0    0 -0.82925078389E+02 -0.65848839595E+02 -0.41850174943E+03  0.43169011174E+03  0.00000000000E+00 0.  1.
         11    1    3    3    0    0 -0.34722314079E+02  0.30833564453E+02 -0.20306578858E+03  0.20830761456E+03  0.00000000000E+00 0. -1.
        -13    1    4    4    0    0  0.58564264985E+02 -0.86217597360E+02 -0.19779568270E+03  0.22357633891E+03  0.00000000000E+00 0. -1.
         13    1    4    4    0    0  0.39711018982E+02  0.43468151450E+01 -0.19941978493E+03  0.20338168662E+03  0.00000000000E+00 0.  1.
         21    1    1    2  503  502  0.21324191450E+02  0.80346551830E+02 -0.50562900811E+02  0.97297977730E+02  0.00000000000E+00 0. -1.
          2    1    1    2  501    0 -0.19520829497E+01  0.36539505527E+02 -0.97989719641E+02  0.10459890653E+03  0.00000000000E+00 0. -1.
<scales pt_clust_5="13000.00000" pt_clust_6="13000.00000" pt_clust_7="13000.00000" pt_clust_8="13000.00000" pt_clust_9="100.42568" pt_clust_10="36.59163"></scales>
<clustering>
<clus scale="   36.592">  1 10  2 -1</clus>
<clus scale="   90.289">  7  8 -1 -1</clus>
<clus scale="   90.465">  5  6 -1 -1</clus>
<clus scale="  100.426">  1  9  2 -1</clus>
<clus scale="  142.823">  1  7  2 -1</clus>
<clus scale="   36.592">  1  5  2 -1</clus>
</clustering>
</event>
<event>
10    2  0.6640105E-006  0.1362358E+03  0.7546771E-02  0.1218681E+00
          1   -1    0    0  503    0 -0.00000000000E+00  0.00000000000E+00  0.16406641568E+03  0.16406641568E+03  0.00000000000E+00 0. -1.
         21   -1    0    0  501  502  0.00000000000E+00 -0.00000000000E+00 -0.30780108400E+03  0.30780108400E+03  0.00000000000E+00 0.  1.
         23    2    1    2    0    0 -0.17113826235E+02 -0.99371387524E+02  0.57995904132E+02  0.14789971000E+03  0.91341357642E+02 0.  0.
         23    2    1    2    0    0 -0.18373031942E+02  0.10181163356E+03 -0.34667837170E+02  0.14282843694E+03  0.92167925192E+02 0.  0.
        -11    1    4    4    0    0  0.32530845719E+02  0.36861040189E+02  0.81916441095E+01  0.49840698633E+02  0.00000000000E+00 0.  1.
         11    1    4    4    0    0 -0.50903877661E+02  0.64950593372E+02 -0.42859481279E+02  0.92987738309E+02  0.00000000000E+00 0. -1.
        -13    1    3    3    0    0 -0.42153094273E+01 -0.11523120645E+03  0.45634067667E+02  0.12400995083E+03  0.00000000000E+00 0.  1.
         13    1    3    3    0    0 -0.12898516808E+02  0.15859818929E+02  0.12361836465E+02  0.23889759168E+02  0.00000000000E+00 0. -1.
         21    1    1    2  503  502 -0.28307939136E+01 -0.20341094784E+02 -0.98213408236E+02  0.10033766535E+03  0.00000000000E+00 0.  1.
          1    1    1    2  501    0  0.38317652091E+02  0.17900848747E+02 -0.68849327048E+02  0.80801687374E+02  0.00000000000E+00 0. -1.
<scales pt_clust_5="13000.00000" pt_clust_6="13000.00000" pt_clust_7="13000.00000" pt_clust_8="13000.00000" pt_clust_9="20.53713" pt_clust_10="38.77923"></scales>
<clustering>
<clus scale="   20.537">  2  9  1 -1</clus>
<clus scale="   38.779">  2 10  1 -1</clus>
<clus scale="   91.341">  7  8 -1 -1</clus>
<clus scale="   92.168">  5  6 -1 -1</clus>
<clus scale="  135.678">  1  7  2 -1</clus>
<clus scale="   20.537">  2  5  1 -1</clus>
</clustering>
</event>
<event>
10    2  0.6640105E-006  0.1551602E+03  0.7546771E-02  0.1205019E+00
         21   -1    0    0  501  502  0.00000000000E+00  0.00000000000E+00  0.60804099915E+03  0.60804099915E+03  0.00000000000E+00 0.  1.
          2   -1    0    0  503    0 -0.00000000000E+00 -0.00000000000E+00 -0.22592210170E+03  0.22592210170E+03  0.00000000000E+00 0. -1.
         23    2    1    2    0    0 -0.26133049376E+02 -0.11971979548E+03 -0.11056886553E+03  0.19074579852E+03  0.95617571236E+02 0.  0.
         23    2    1    2    0    0  0.94660562432E+02 -0.13610411621E+02  0.73538225292E+02  0.15049763496E+03  0.89976675673E+02 0.  0.
        -11    1    4    4    0    0  0.34251139674E+02  0.13975986746E+02  0.75481501257E+02  0.84059061419E+02  0.00000000000E+00 0.  1.
         11    1    4    4    0    0  0.60409422758E+02 -0.27586398367E+02 -0.19432759652E+01  0.66438573542E+02  0.00000000000E+00 0. -1.
        -13    1    3    3    0    0 -0.42537893715E+02 -0.41617787358E+02 -0.90738604073E+02  0.10851270384E+03  0.00000000000E+00 0.  1.
         13    1    3    3    0    0  0.16404844339E+02 -0.78102008122E+02 -0.19830261453E+02  0.82233094675E+02  0.00000000000E+00 0. -1.
         21    1    1    2  503  502 -0.79205449709E+01  0.12269648861E+03  0.41296180985E+03  0.43087657135E+03  0.00000000000E+00 0.  1.
          2    1    1    2  501    0 -0.60606968086E+02  0.10633718493E+02  0.61877278416E+01  0.61843096020E+02  0.00000000000E+00 0. -1.
<scales pt_clust_5="13000.00000" pt_clust_6="13000.00000" pt_clust_7="13000.00000" pt_clust_8="13000.00000" pt_clust_9="122.19644" pt_clust_10="61.53279"></scales>
<clustering>
<clus scale="   61.533">  1 10  2 -1</clus>
<clus scale="   89.977">  5  6 -1 -1</clus>
<clus scale="   95.618">  7  8 -1 -1</clus>
<clus scale="  122.842">  1  5  2 -1</clus>
<clus scale="  122.196">  1  9  2 -1</clus>
<clus scale="   61.533">  1  5  2 -1</clus>
</clustering>
</event>
<event>
10    2  0.6640105E-006  0.9782734E+02  0.7546771E-02  0.1288871E+00
         -1   -1    0    0    0  501 -0.00000000000E+00  0.00000000000E+00  0.63189689668E+03  0.63189689668E+03  0.00000000000E+00 0.  1.
         21   -1    0    0  503  502  0.00000000000E+00 -0.00000000000E+00 -0.48243908416E+02  0.48243908416E+02  0.00000000000E+00 0. -1.
         23    2    1    2    0    0  0.57477279669E+01  0.11321659291E+02  0.33053885317E+03  0.34244112080E+03  0.88593292153E+02 0.  0.
         23    2    1    2    0    0  0.90379181302E+01 -0.34087357232E+02  0.26325753350E+03  0.28233963203E+03  0.95747099089E+02 0.  0.
        -11    1    4    4    0    0  0.33133575456E+02  0.11436026591E+02  0.18738830211E+03  0.19063838096E+03  0.00000000000E+00 0.  1.
         11    1    4    4    0    0 -0.24095657326E+02 -0.45523383823E+02  0.75869231389E+02  0.91701251073E+02  0.00000000000E+00 0. -1.
        -11    1    3    3    0    0 -0.36707669229E+02  0.14851374085E+02  0.22786044648E+03  0.23127559180E+03  0.00000000000E+00 0. -1.
         11    1    3    3    0    0  0.42455397196E+02 -0.35297147944E+01  0.10267840668E+03  0.11116552900E+03  0.00000000000E+00 0.  1.
         21    1    1    2  503  501 -0.24136482663E+02  0.10928930463E+01 -0.18382748547E+02  0.30359342132E+02  0.00000000000E+00 0. -1.
         -1    1    1    2    0  502  0.93508365658E+01  0.21672804895E+02  0.82393501469E+01  0.25000710137E+02  0.00000000000E+00 0.  1.
<scales pt_clust_5="13000.00000" pt_clust_6="13000.00000" pt_clust_7="13000.00000" pt_clust_8="13000.00000" pt_clust_9="23.34533" pt_clust_10="23.60400"></scales>
<clustering>
<clus scale="   23.604">  2 10  1 -1</clus>
<clus scale="   23.345">  2  9  1 -1</clus>
<clus scale="   88.593">  7  8 -1 -1</clus>
<clus scale="   90.838">  1  7  2 -1</clus>
<clus scale="   95.747">  5  6 -1 -1</clus>
<clus scale="   23.604">  2  5  1 -1</clus>
</clustering>
</event>
<event>
10    2  0.6640105E-006  0.1098627E+03  0.7546771E-02  0.1262871E+00
          3   -1    0    0  503    0 -0.00000000000E+00  0.00000000000E+00  0.29700710521E+03  0.29700710521E+03  0.00000000000E+00 0. -1.
         21   -1    0    0  501  502  0.00000000000E+00 -0.00000000000E+00 -0.24733705137E+03  0.24733705137E+03  0.00000000000E+00 0.  1.
         23    2    1    2    0    0  0.42663684145E+02 -0.17046512655E+02  0.12419812786E+03  0.16012972714E+03  0.90031000273E+02 0.  0.
         23    2    1    2    0    0 -0.39455975526E+02  0.70033941747E+02  0.90500971487E+02  0.15390871238E+03  0.95057555744E+02 0.  0.
        -11    1    3    3    0    0  0.41322519647E+02  0.23523949526E+02  0.26731869574E+02  0.54548324284E+02  0.00000000000E+00 0.  1.
         11    1    3    3    0    0  0.13411644983E+01 -0.40570462181E+02  0.97466258290E+02  0.10558140286E+03  0.00000000000E+00 0. -1.
        -11    1    4    4    0    0 -0.57907885870E+02  0.64923941896E+01  0.44593760565E+02  0.73376276204E+02  0.00000000000E+00 0. -1.
         11    1    4    4    0    0  0.18451910343E+02  0.63541547558E+02  0.45907210922E+02  0.80532436173E+02  0.00000000000E+00 0.  1.
         21    1    1    2  503  502  0.30025973609E+02 -0.60567906755E+02 -0.18059461215E+03  0.19283268488E+03  0.00000000000E+00 0.  1.
          3    1    1    2  501    0 -0.33233682228E+02  0.75804776626E+01  0.15565566639E+02  0.37473032181E+02  0.00000000000E+00 0. -1.
<scales pt_clust_5="13000.00000" pt_clust_6="13000.00000" pt_clust_7="13000.00000" pt_clust_8="13000.00000" pt_clust_9="54.71069" pt_clust_10="34.08728"></scales>
<clustering>
<clus scale="   34.087">  2 10  1 -1</clus>
<clus scale="   54.711">  2  9  1 -1</clus>
<clus scale="   90.031">  5  6 -1 -1</clus>
<clus scale="   95.058">  7  8 -1 -1</clus>
<clus scale="  105.544">  1  5  2 -1</clus>
<clus scale="   34.087">  2  5  1 -1</clus>
</clustering>
</event>
<event>
10    2  0.6640105E-006  0.1001795E+03  0.7546771E-02  0.1282066E+00
         21   -1    0    0  503  502  0.00000000000E+00  0.00000000000E+00  0.61389592217E+02  0.61389592217E+02  0.00000000000E+00 0.  1.
         -3   -1    0    0    0  501 -0.00000000000E+00 -0.00000000000E+00 -0.54142429267E+03  0.54142429267E+03  0.00000000000E+00 0.  1.
         23    2    1    2    0    0 -0.35848717022E+01 -0.48980519638E+02 -0.36359383943E+03  0.37726489452E+03  0.87842916373E+02 0.  0.
         23    2    1    2    0    0 -0.68355558091E+01 -0.59339039680E+01 -0.37506938440E+02  0.99957317651E+02  0.92210405493E+02 0.  0.
        -13    1    3    3    0    0 -0.39611094720E+02 -0.48261830862E+02 -0.19086444884E+03  0.20081703358E+03  0.00000000000E+00 0.  1.
         13    1    3    3    0    0  0.36026223018E+02 -0.71868877623E+00 -0.17272939059E+03  0.17644786094E+03  0.00000000000E+00 0. -1.
        -13    1    4    4    0    0 -0.31594195003E+02 -0.24482754085E+02  0.11864954489E+02  0.41693831085E+02  0.00000000000E+00 0.  1.
         13    1    4    4    0    0  0.24758639194E+02  0.18548850117E+02 -0.49371892929E+02  0.58263486566E+02  0.00000000000E+00 0. -1.
         21    1    1    2  503  501 -0.33402018171E+02  0.10699924228E+02 -0.23348873000E+02  0.42134938789E+02  0.00000000000E+00 0.  1.
         -3    1    1    2    0  502  0.43822445683E+02  0.44214499378E+02 -0.55585049586E+02  0.83456733930E+02  0.00000000000E+00 0.  1.
<scales pt_clust_5="13000.00000" pt_clust_6="13000.00000" pt_clust_7="13000.00000" pt_clust_8="13000.00000" pt_clust_9="35.07397" pt_clust_10="58.58898"></scales>
<clustering>
<clus scale="   35.074">  1  9  2 -1</clus>
<clus scale="   58.589">  1 10  2 -1</clus>
<clus scale="   87.843">  5  6 -1 -1</clus>
<clus scale="   92.210">  7  8 -1 -1</clus>
<clus scale="   96.175">  2  5  1 -1</clus>
<clus scale="   35.074">  1  5  2 -1</clus>
</clustering>
</event>
<event>
10    2  0.6640105E-006  0.9192584E+02  0.7546771E-02  0.1299490E+00
          3   -1    0    0  503    0 -0.00000000000E+00  0.00000000000E+00  0.21634870935E+03  0.21634870935E+03  0.00000000000E+00 0. -1.
         21   -1    0    0  501  502  0.00000000000E+00 -0.00000000000E+00 -0.11356162829E+03  0.11356162829E+03  0.00000000000E+00 0. -1.
         23    2    1    2    0    0 -0.18531107661E+02  0.18242734588E+01  0.92686535343E+02  0.13013283434E+03  0.89426119314E+02 0.  0.
         23    2    1    2    0    0 -0.13760677678E+02 -0.14763032385E+02  0.63244137424E+02  0.11305408865E+03  0.91510123306E+02 0.  0.
        -13    1    4    4    0    0 -0.26414254684E+02  0.17986782058E+02  0.70318251014E+02  0.77239197335E+02  0.00000000000E+00 0.  1.
         13    1    4    4    0    0  0.12653577006E+02 -0.32749814443E+02 -0.70741135898E+01  0.35814891319E+02  0.00000000000E+00 0. -1.
        -13    1    3    3    0    0 -0.32133798990E+02 -0.16724813735E+02  0.16802890336E+01  0.36264635711E+02  0.00000000000E+00 0.  1.
         13    1    3    3    0    0  0.13602691330E+02  0.18549087194E+02  0.91006246310E+02  0.93868198633E+02  0.00000000000E+00 0. -1.
         21    1    1    2  503  502  0.50560620203E+01 -0.22869998824E+02 -0.15781137734E+02  0.28242608193E+02  0.00000000000E+00 0.  1.
          3    1    1    2  501    0  0.27235723318E+02  0.35808757750E+02 -0.37362453972E+02  0.58480806451E+02  0.00000000000E+00 0. -1.
<scales pt_clust_5="13000.00000" pt_clust_6="13000.00000" pt_clust_7="13000.00000" pt_clust_8="13000.00000" pt_clust_9="23.42222" pt_clust_10="38.22536"></scales>
<clustering>
<clus scale="   23.422">  2  9  1 -1</clus>
<clus scale="   38.225">  2 10  1 -1</clus>
<clus scale="   89.426">  7  8 -1 -1</clus>
<clus scale="   89.851">  1  7  2 -1</clus>
<clus scale="   91.510">  5  6 -1 -1</clus>
<clus scale="   23.422">  2  5  1 -1</clus>
</clustering>
</event>
<event>
10    2  0.6640105E-006  0.9544969E+02  0.7546771E-02  0.1291544E+00
         -1   -1    0    0    0  501 -0.00000000000E+00  0.00000000000E+00  0.40082447669E+03  0.40082447669E+03  0.00000000000E+00 0.  1.
         21   -1    0    0  501  502  0.00000000000E+00 -0.00000000000E+00 -0.14112730803E+03  0.14112730803E+03  0.00000000000E+00 0.  1.
         23    2    1    2    0    0  0.21042209933E+02 -0.10979123851E+02  0.19351929110E+03  0.21566902209E+03  0.92195961424E+02 0.  0.
         23    2    1    2    0    0 -0.12463689893E+01 -0.33858124931E+01  0.17062212045E+03  0.19514755245E+03  0.94644820662E+02 0.  0.
        -11    1    4    4    0    0  0.15171887626E+02 -0.36686246547E+02  0.14423301247E+03  0.14959688749E+03  0.00000000000E+00 0.  1.
         11    1    4    4    0    0 -0.16418256615E+02  0.33300434054E+02  0.26389107981E+02  0.45550664962E+02  0.00000000000E+00 0. -1.
        -11    1    3    3    0    0  0.41821826746E+02 -0.41019214600E+02  0.11446542110E+03  0.12858450057E+03  0.00000000000E+00 0. -1.
         11    1    3    3    0    0 -0.20779616813E+02  0.30040090749E+02  0.79053870000E+02  0.87084521524E+02  0.00000000000E+00 0.  1.
         21    1    1    2  503  502  0.20314170790E+02  0.65067380924E+01 -0.81537260939E+02  0.84281244040E+02  0.00000000000E+00 0.  1.
         -1    1    1    2    0  503 -0.40110011733E+02  0.78581982514E+01 -0.22906981943E+02  0.46853966137E+02  0.00000000000E+00 0.  1.
<scales pt_clust_5="13000.00000" pt_clust_6="13000.00000" pt_clust_7="13000.00000" pt_clust_8="13000.00000" pt_clust_9="21.33080" pt_clust_10="30.31188"></scales>
<clustering>
<clus scale="   21.331">  2  9  1 -1</clus>
<clus scale="   30.312">  2 10  1 -1</clus>
<clus scale="   92.196">  7  8 -1 -1</clus>
<clus scale="   93.022">  1  7  2 -1</clus>
<clus scale="   94.645">  5  6 -1 -1</clus>
<clus scale="   21.331">  2  5  1 -1</clus>
</clustering>
</event>
<event>
10    2  0.6640105E-006  0.3215982E+03  0.7546771E-02  0.1100363E+00
         21   -1    0    0  503  502  0.00000000000E+00  0.00000000000E+00  0.43794159427E+03  0.43794159427E+03  0.00000000000E+00 0. -1.
          2   -1    0    0  502    0 -0.00000000000E+00 -0.00000000000E+00 -0.98746413465E+03  0.98746413465E+03  0.00000000000E+00 0. -1.
         23    2    1    2    0    0  0.13227044322E+03  0.47602522922E+02 -0.18869082274E+03  0.25311285166E+03  0.93276035249E+02 0.  0.
         23    2    1    2    0    0  0.11957725651E+03 -0.23841486815E+03 -0.58069979832E+03  0.64583521795E+03  0.93544125088E+02 0.  0.
        -11    1    3    3    0    0  0.75873262137E+02 -0.20679384621E+02 -0.72012076385E+02  0.10663080231E+03  0.00000000000E+00 0.  1.
         11    1    3    3    0    0  0.56397181083E+02  0.68281907543E+02 -0.11667874636E+03  0.14648204936E+03  0.00000000000E+00 0. -1.
        -11    1    4    4    0    0  0.12800573852E+02 -0.12184274422E+03 -0.21553401286E+03  0.24792018818E+03  0.00000000000E+00 0.  1.
         11    1    4    4    0    0  0.10677668266E+03 -0.11657212393E+03 -0.36516578547E+03  0.39791502976E+03  0.00000000000E+00 0. -1.
         21    1    1    2  503  501 -0.30800114517E+02 -0.64399072945E+02  0.17100768496E+03  0.18530924414E+03  0.00000000000E+00 0. -1.
          2    1    1    2  501    0 -0.22104758522E+03  0.25521141817E+03  0.48860395733E+02  0.34114841516E+03  0.00000000000E+00 0. -1.
<scales pt_clust_5="13000.00000" pt_clust_6="13000.00000" pt_clust_7="13000.00000" pt_clust_8="13000.00000" pt_clust_9="71.38549" pt_clust_10="307.69284"></scales>
<clustering>
<clus scale="   71.385">  1  9  2 -1</clus>
<clus scale="   93.276">  5  6 -1 -1</clus>
<clus scale="   93.544">  7  8 -1 -1</clus>
<clus scale="  163.615">  2  5  1 -1</clus>
<clus scale="  307.693">  1 10  2 -1</clus>
<clus scale="   71.385">  1  5  2 -1</clus>
</clustering>
</event>
<event>
10    2  0.6640105E-006  0.1488183E+03  0.7546771E-02  0.1202741E+00
          1   -1    0    0  503    0 -0.00000000000E+00  0.00000000000E+00  0.27984466587E+03  0.27984466587E+03  0.00000000000E+00 0. -1.
         21   -1    0    0  501  502  0.00000000000E+00 -0.00000000000E+00 -0.15690129295E+03  0.15690129295E+03  0.00000000000E+00 0.  1.
         23    2    1    2    0    0 -0.12688063281E+03  0.63858846355E+02  0.16087433740E+03  0.23411647635E+03  0.93559204912E+02 0.  0.
         23    2    1    2    0    0  0.73049587643E+02 -0.57249231727E+02 -0.19992338422E+02  0.13040456537E+03  0.89397652574E+02 0.  0.
        -13    1    3    3    0    0 -0.33263888505E+02 -0.21547388376E+01 -0.37668539891E+01  0.33545765261E+02  0.00000000000E+00 0.  1.
         13    1    3    3    0    0 -0.93616744304E+02  0.66013585193E+02  0.16464119139E+03  0.20057071109E+03  0.00000000000E+00 0. -1.
        -13    1    4    4    0    0 -0.17680905080E+02 -0.10677779702E+02  0.11535017836E+02  0.23657684170E+02  0.00000000000E+00 0. -1.
         13    1    4    4    0    0  0.90730492723E+02 -0.46571452026E+02 -0.31527356258E+02  0.10674688120E+03  0.00000000000E+00 0.  1.
         21    1    1    2  503  502  0.29792560527E+02  0.59832696926E+01  0.11219459433E+02  0.32392475190E+02  0.00000000000E+00 0.  1.
          1    1    1    2  501    0  0.24038484639E+02 -0.12592884320E+02 -0.29158085495E+02  0.39832441915E+02  0.00000000000E+00 0. -1.
<scales pt_clust_5="13000.00000" pt_clust_6="13000.00000" pt_clust_7="13000.00000" pt_clust_8="13000.00000" pt_clust_9="32.24515" pt_clust_10="27.13723"></scales>
<clustering>
<clus scale="   27.137">  2 10  1 -1</clus>
<clus scale="   32.245">  1  9  2 -1</clus>
<clus scale="   89.398">  7  8 -1 -1</clus>
<clus scale="   93.559">  5  6 -1 -1</clus>
<clus scale="  146.238">  2  7  1 -1</clus>
<clus scale="   27.137">  2  5  1 -1</clus>
</clustering>
</event>
<event>
10    2  0.6640105E-006  0.1080738E+03  0.7546771E-02  0.1264839E+00
          2   -1    0    0  503    0 -0.00000000000E+00  0.00000000000E+00  0.29550071438E+03  0.29550071438E+03  0.00000000000E+00 0. -1.
         21   -1    0    0  501  502  0.00000000000E+00 -0.00000000000E+00 -0.94885362589E+02  0.94885362589E+02  0.00000000000E+00 0.  1.
         23    2    1    2    0    0  0.47620702268E+02 -0.31672759808E+02  0.15456639862E+03  0.18847605485E+03  0.91441547835E+02 0.  0.
         23    2    1    2    0    0 -0.48941351148E+02  0.31859203039E+02  0.56221878141E+02  0.12097844670E+03  0.89803231093E+02 0.  0.
        -11    1    4    4    0    0 -0.64145388922E+02  0.12188334091E+02  0.67882468488E+01  0.65645005165E+02  0.00000000000E+00 0.  1.
         11    1    4    4    0    0  0.15204037774E+02  0.19670868948E+02  0.49433631292E+02  0.55333441539E+02  0.00000000000E+00 0. -1.
        -13    1    3    3    0    0 -0.21318523988E+02 -0.65957871106E+01  0.65154463079E+01  0.23247256036E+02  0.00000000000E+00 0.  1.
         13    1    3    3    0    0  0.68939226256E+02 -0.25076972697E+02  0.14805095231E+03  0.16522879881E+03  0.00000000000E+00 0. -1.
         21    1    1    2  503  502 -0.18609063318E+02  0.33186462334E+02 -0.16638173856E+02  0.41526706456E+02  0.00000000000E+00 0.  1.
          2    1    1    2  501    0  0.19929712198E+02 -0.33372905565E+02  0.64652488803E+01  0.39404868954E+02  0.00000000000E+00 0. -1.
<scales pt_clust_5="13000.00000" pt_clust_6="13000.00000" pt_clust_7="13000.00000" pt_clust_8="13000.00000" pt_clust_9="38.04785" pt_clust_10="29.35257"></scales>
<clustering>
<clus scale="   38.048">  2  9  1 -1</clus>
<clus scale="   29.353">  2 10  1 -1</clus>
<clus scale="   89.803">  5  6 -1 -1</clus>
<clus scale="   91.442">  7  8 -1 -1</clus>
<clus scale="  106.691">  2  5  1 -1</clus>
<clus scale="   38.048">  2  5  1 -1</clus>
</clustering>
</event>
<event>
10    2  0.6640105E-006  0.1747822E+03  0.7546771E-02  0.1189229E+00
         21   -1    0    0  501  502  0.00000000000E+00  0.00000000000E+00  0.10006945687E+03  0.10006945687E+03  0.00000000000E+00 0.  1.
          1   -1    0    0  503    0 -0.00000000000E+00 -0.00000000000E+00 -0.80229704408E+03  0.80229704408E+03  0.00000000000E+00 0. -1.
         23    2    1    2    0    0 -0.64166476939E+02 -0.92322050784E+01 -0.86669044067E+02  0.14243123708E+03  0.92588140302E+02 0.  0.
         23    2    1    2    0    0  0.14309833033E+03  0.72674660286E+02 -0.20181487775E+03  0.27320680342E+03  0.90299358619E+02 0.  0.
        -13    1    4    4    0    0  0.81685237666E+02  0.58935456379E+02 -0.58014876468E+02  0.11623937355E+03  0.00000000000E+00 0.  1.
         13    1    4    4    0    0  0.61413092663E+02  0.13739203907E+02 -0.14380000128E+03  0.15696742988E+03  0.00000000000E+00 0. -1.
        -13    1    3    3    0    0 -0.12153728592E+02 -0.17260072796E+02  0.16380992890E+02  0.26720032927E+02  0.00000000000E+00 0.  1.
         13    1    3    3    0    0 -0.52012748348E+02  0.80278677174E+01 -0.10305003696E+03  0.11571120416E+03  0.00000000000E+00 0. -1.
         21    1    1    2  503  502 -0.33834024320E+02  0.82222385385E+02 -0.79197289780E+02  0.11906919236E+03  0.00000000000E+00 0.  1.
          1    1    1    2  501    0 -0.45097829070E+02 -0.14566484059E+03 -0.33454637561E+03  0.36765926808E+03  0.00000000000E+00 0. -1.
<scales pt_clust_5="13000.00000" pt_clust_6="13000.00000" pt_clust_7="13000.00000" pt_clust_8="13000.00000" pt_clust_9="88.91154" pt_clust_10="149.64919"></scales>
<clustering>
<clus scale="   88.912">  1  9  2 -1</clus>
<clus scale="   90.299">  5  6 -1 -1</clus>
<clus scale="   92.588">  7  8 -1 -1</clus>
<clus scale="  121.304">  2  7  1 -1</clus>
<clus scale="  149.649">  1 10  2 -1</clus>
<clus scale="   88.912">  1  5  2 -1</clus>
</clustering>
</event>
<event>
10    2  0.6640105E-006  0.9382330E+02  0.7546771E-02  0.1297618E+00
         -3   -1    0    0    0  501 -0.00000000000E+00  0.00000000000E+00  0.72839844865E+02  0.72839844865E+02  0.00000000000E+00 0.  1.
         21   -1    0    0  503  502  0.00000000000E+00 -0.00000000000E+00 -0.23244777667E+03  0.23244777667E+03  0.00000000000E+00 0. -1.
         23    2    1    2    0    0 -0.27977283369E+02  0.28784642460E+02 -0.61114637588E+02  0.11645161997E+03  0.90634964777E+02 0.  0.
         23    2    1    2    0    0 -0.27359460995E+02 -0.19869221497E+02 -0.61870115727E+02  0.10971070500E+03  0.84054753005E+02 0.  0.
        -11    1    4    4    0    0  0.22774743738E+01  0.25447781366E+02  0.24108391884E+01  0.25662981346E+02  0.00000000000E+00 0.  1.
         11    1    4    4    0    0 -0.29636935368E+02 -0.45317002863E+02 -0.64280954916E+02  0.84047723654E+02  0.00000000000E+00 0. -1.
        -11    1    3    3    0    0  0.16506292153E+02  0.43633496487E+02 -0.49743120530E+02  0.68196170980E+02  0.00000000000E+00 0.  1.
         11    1    3    3    0    0 -0.44483575522E+02 -0.14848854027E+02 -0.11371517059E+02  0.48255448991E+02  0.00000000000E+00 0. -1.
         21    1    1    2  503  501  0.20194922943E+02 -0.15825939912E+02 -0.34837456988E+02  0.43265964640E+02  0.00000000000E+00 0. -1.
         -3    1    1    2    0  502  0.35141821420E+02  0.69105189490E+01 -0.17857215032E+01  0.35859331926E+02  0.00000000000E+00 0.  1.
<scales pt_clust_5="13000.00000" pt_clust_6="13000.00000" pt_clust_7="13000.00000" pt_clust_8="13000.00000" pt_clust_9="25.65727" pt_clust_10="37.49392"></scales>
<clustering>
<clus scale="   25.657">  2  9  1 -1</clus>
<clus scale="   37.494">  2 10  1 -1</clus>
<clus scale="   84.055">  5  6 -1 -1</clus>
<clus scale="   87.483">  2  5  1 -1</clus>
<clus scale="   90.635">  7  8 -1 -1</clus>
<clus scale="   25.657">  2  5  1 -1</clus>
</clustering>
</event>
<event>
10    2  0.6640105E-006  0.1621050E+03  0.7546771E-02  0.1211085E+00
         21   -1    0    0  501  502  0.00000000000E+00  0.00000000000E+00  0.14775206374E+03  0.14775206374E+03  0.00000000000E+00 0. -1.
         -3   -1    0    0    0  501 -0.00000000000E+00 -0.00000000000E+00 -0.58775047368E+03  0.58775047368E+03  0.00000000000E+00 0.  1.
         23    2    1    2    0    0 -0.30153252678E+01  0.18508092320E+02 -0.41560130888E+03  0.42623003019E+03  0.92714340959E+02 0.  0.
         23    2    1    2    0    0 -0.12813165798E+03 -0.51398911185E+02 -0.67777744101E+01  0.16373613099E+03  0.87772504342E+02 0.  0.
        -11    1    4    4    0    0 -0.26275221143E+02 -0.54914428277E+02  0.52943457857E+01  0.61106560829E+02  0.00000000000E+00 0.  1.
         11    1    4    4    0    0 -0.10185643684E+03  0.35155170920E+01 -0.12072120196E+02  0.10262957016E+03  0.00000000000E+00 0. -1.
        -13    1    3    3    0    0 -0.40439142392E+02  0.31966231613E+02 -0.28792894602E+03  0.29250682412E+03  0.00000000000E+00 0. -1.
         13    1    3    3    0    0  0.37423817125E+02 -0.13458139293E+02 -0.12767236287E+03  0.13372320607E+03  0.00000000000E+00 0.  1.
         21    1    1    2  503  502  0.34705426209E+02 -0.62012483544E+01  0.12164601716E+02  0.37294766716E+02  0.00000000000E+00 0.  1.
         -3    1    1    2    0  503  0.96441557040E+02  0.39092067220E+02 -0.29783928368E+02  0.10824160953E+03  0.00000000000E+00 0.  1.
<scales pt_clust_5="13000.00000" pt_clust_6="13000.00000" pt_clust_7="13000.00000" pt_clust_8="13000.00000" pt_clust_9="29.61646" pt_clust_10="145.47538"></scales>
<clustering>
<clus scale="   29.616">  9 10 -1 -1</clus>
<clus scale="   87.773">  5  6 -1 -1</clus>
<clus scale="   92.714">  7  8 -1 -1</clus>
<clus scale="   94.592">  2  7  1 -1</clus>
<clus scale="  145.475">  1  9  2 -1</clus>
<clus scale="  145.475">  1  5  2 -1</clus>
</clustering>
</event>
<event>
10    2  0.6640105E-006  0.9016108E+02  0.7546771E-02  0.1304340E+00
         -2   -1    0    0    0  501 -0.00000000000E+00  0.00000000000E+00  0.12689361891E+03  0.12689361891E+03  0.00000000000E+00 0.  1.
         21   -1    0    0  503  502  0.00000000000E+00 -0.00000000000E+00 -0.18356904057E+03  0.18356904057E+03  0.00000000000E+00 0.  1.
         23    2    1    2    0    0  0.48312729396E-01  0.99021257784E+01  0.61309304481E+02  0.10595896302E+03  0.85851130446E+02 0.  0.
         23    2    1    2    0    0 -0.52896121560E+02 -0.10522433056E+02 -0.56184500120E+02  0.11822348961E+03  0.88945905856E+02 0.  0.
        -11    1    3    3    0    0  0.32448045127E+02 -0.10230553642E+02  0.58545679581E+02  0.67713635687E+02  0.00000000000E+00 0. -1.
         11    1    3    3    0    0 -0.32399732398E+02  0.20132679420E+02  0.27636249004E+01  0.38245327331E+02  0.00000000000E+00 0.  1.
        -13    1    4    4    0    0 -0.25962405562E+02 -0.49924520072E+02 -0.31557818400E+02  0.64516665360E+02  0.00000000000E+00 0. -1.
         13    1    4    4    0    0 -0.26933715999E+02  0.39402087015E+02 -0.24626681719E+02  0.53706824251E+02  0.00000000000E+00 0.  1.
         21    1    1    2  503  501  0.23382843602E+02 -0.40762758921E+01 -0.47700454858E+02  0.53279515705E+02  0.00000000000E+00 0.  1.
         -2    1    1    2    0  502  0.29464965229E+02  0.46965831701E+01 -0.14099771158E+02  0.33000691146E+02  0.00000000000E+00 0.  1.
<scales pt_clust_5="13000.00000" pt_clust_6="13000.00000" pt_clust_7="13000.00000" pt_clust_8="13000.00000" pt_clust_9="23.73549" pt_clust_10="33.83721"></scales>
<clustering>
<clus scale="   23.735">  2  9  1 -1</clus>
<clus scale="   33.837">  2 10  1 -1</clus>
<clus scale="   85.851">  5  6 -1 -1</clus>
<clus scale="   87.109">  1  5  2 -1</clus>
<clus scale="   88.946">  7  8 -1 -1</clus>
<clus scale="   23.735">  2  5  1 -1</clus>
</clustering>
</event>
<event>
10    2  0.6640105E-006  0.9449885E+02  0.7546771E-02  0.1292571E+00
         21   -1    0    0  501  502  0.00000000000E+00  0.00000000000E+00  0.35800966043E+03  0.35800966043E+03  0.00000000000E+00 0. -1.
          1   -1    0    0  503    0 -0.00000000000E+00 -0.00000000000E+00 -0.18446282951E+03  0.18446282951E+03  0.00000000000E+00 0. -1.
         23    2    1    2    0    0  0.49317095918E+02  0.30560338606E+01 -0.74385157358E+02  0.12829282714E+03  0.92110708208E+02 0.  0.
         23    2    1    2    0    0  0.11258776802E+02 -0.13920704971E+02 -0.51603980025E+02  0.10668110140E+03  0.91637004313E+02 0.  0.
        -11    1    4    4    0    0 -0.17768146599E+02 -0.15417986429E+02  0.19057321401E+02  0.30275449428E+02  0.00000000000E+00 0. -1.
         11    1    4    4    0    0  0.29026923401E+02  0.14972814582E+01 -0.70661301426E+02  0.76405651971E+02  0.00000000000E+00 0.  1.
        -13    1    3    3    0    0  0.66331172034E+02 -0.95744369903E+01 -0.81885661186E+02  0.10581472362E+03  0.00000000000E+00 0. -1.
         13    1    3    3    0    0 -0.17014076116E+02  0.12630470851E+02  0.75005038275E+01  0.22478103515E+02  0.00000000000E+00 0.  1.
         21    1    1    2  503  502 -0.19888323695E+02 -0.10630183130E+02  0.12383942830E+03  0.12587593183E+03  0.00000000000E+00 0. -1.
          1    1    1    2  501    0 -0.40687549026E+02  0.21494854240E+02  0.17569654000E+03  0.18162262957E+03  0.00000000000E+00 0. -1.
<scales pt_clust_5="13000.00000" pt_clust_6="13000.00000" pt_clust_7="13000.00000" pt_clust_8="13000.00000" pt_clust_9="22.55097" pt_clust_10="57.49863"></scales>
<clustering>
<clus scale="   22.551">  1  9  2 -1</clus>
<clus scale="   57.499">  1 10  2 -1</clus>
<clus scale="   91.637">  5  6 -1 -1</clus>
<clus scale="   92.111">  7  8 -1 -1</clus>
<clus scale="   94.037">  1  5  2 -1</clus>
<clus scale="   22.551">  1  5  2 -1</clus>
</clustering>
</event>
<event>
10    2  0.6640105E-006  0.3129434E+03  0.7546771E-02  0.1078954E+00
          1   -1    0    0  503    0 -0.00000000000E+00  0.00000000000E+00  0.51987012667E+03  0.51987012667E+03  0.00000000000E+00 0. -1.
         21   -1    0    0  501  502  0.00000000000E+00 -0.00000000000E+00 -0.13553844971E+04  0.13553844971E+04  0.00000000000E+00 0. -1.
         23    2    1    2    0    0  0.31918352106E+03  0.15330762405E+03  0.22642962866E+03  0.43011622207E+03  0.91368703892E+02 0.  0.
         23    2    1    2    0    0 -0.26419218746E+03  0.13985816594E+03  0.93996888978E+01  0.31281044353E+03  0.91674429019E+02 0.  0.
        -11    1    4    4    0    0 -0.56332969812E+02 -0.65938431455E+01 -0.10807071501E+02  0.57737986194E+02  0.00000000000E+00 0.  1.
         11    1    4    4    0    0 -0.20785921764E+03  0.14645200909E+03  0.20206760398E+02  0.25507245733E+03  0.00000000000E+00 0. -1.
        -13    1    3    3    0    0  0.28058339860E+03  0.13564731946E+03  0.23027101583E+03  0.38749448974E+03  0.00000000000E+00 0. -1.
         13    1    3    3    0    0  0.38600122461E+02  0.17660304583E+02 -0.38413871708E+01  0.42621732337E+02  0.00000000000E+00 0.  1.
         21    1    1    2  503  502  0.32627477891E+02  0.21767090789E+02 -0.13373071390E+03  0.13936377720E+03  0.00000000000E+00 0.  1.
          1    1    1    2  501    0 -0.87618811492E+02 -0.31493288078E+03 -0.93761297404E+03  0.99296418093E+03  0.00000000000E+00 0. -1.
<scales pt_clust_5="13000.00000" pt_clust_6="13000.00000" pt_clust_7="13000.00000" pt_clust_8="13000.00000" pt_clust_9="39.22191" pt_clust_10="304.03660"></scales>
<clustering>
<clus scale="   39.222">  2  9  1 -1</clus>
<clus scale="   91.369">  7  8 -1 -1</clus>
<clus scale="   91.674">  5  6 -1 -1</clus>
<clus scale="  304.037">  2 10  1 -1</clus>
<clus scale="  312.854">  1  7  2 -1</clus>
<clus scale="   39.222">  2  5  1 -1</clus>
</clustering>
</event>
<event>
10    2  0.6640105E-006  0.1049421E+03  0.7546771E-02  0.1273915E+00
          1   -1    0    0  503    0 -0.00000000000E+00  0.00000000000E+00  0.43738591726E+03  0.43738591726E+03  0.00000000000E+00 0. -1.
         21   -1    0    0  501  502  0.00000000000E+00 -0.00000000000E+00 -0.10621637497E+03  0.10621637497E+03  0.00000000000E+00 0.  1.
         23    2    1    2    0    0  0.14880734199E+02 -0.80379261727E+01  0.16079915127E+03  0.18610932150E+03  0.92164353160E+02 0.  0.
         23    2    1    2    0    0 -0.96015806886E+02  0.71743910812E+02  0.16787424271E+02  0.15684135174E+03  0.99755541656E+02 0.  0.
        -13    1    4    4    0    0 -0.11115343577E+03  0.47302377819E+02  0.31081542499E+02  0.12473437183E+03  0.00000000000E+00 0.  1.
         13    1    4    4    0    0  0.15137628883E+02  0.24441532993E+02 -0.14294118229E+02  0.32106979914E+02  0.00000000000E+00 0. -1.
        -13    1    3    3    0    0 -0.14683901924E+02 -0.39407003774E+02  0.40760537762E+02  0.58565778069E+02  0.00000000000E+00 0.  1.
         13    1    3    3    0    0  0.29564636123E+02  0.31369077601E+02  0.12003861350E+03  0.12754354343E+03  0.00000000000E+00 0. -1.
         21    1    1    2  503  502  0.46983220042E+02 -0.32430059884E+02  0.22040522000E+02  0.61195721743E+02  0.00000000000E+00 0. -1.
          1    1    1    2  501    0  0.34151852645E+02 -0.31275924755E+02  0.13154244475E+03  0.13945589726E+03  0.00000000000E+00 0. -1.
<scales pt_clust_5="13000.00000" pt_clust_6="13000.00000" pt_clust_7="13000.00000" pt_clust_8="13000.00000" pt_clust_9="65.88240" pt_clust_10="46.30912"></scales>
<clustering>
<clus scale="   46.309">  2 10  1 -1</clus>
<clus scale="   65.882">  2  9  1 -1</clus>
<clus scale="   92.164">  7  8 -1 -1</clus>
<clus scale="   97.754">  1  7  2 -1</clus>
<clus scale="   99.756">  5  6 -1 -1</clus>
<clus scale="   46.309">  2  5  1 -1</clus>
</clustering>
</event>
<event>
10    2  0.6640105E-006  0.2212775E+03  0.7546771E-02  0.1143910E+00
         21   -1    0    0  501  502  0.00000000000E+00  0.00000000000E+00  0.52686657231E+03  0.52686657231E+03  0.00000000000E+00 0. -1.
          1   -1    0    0  503    0 -0.00000000000E+00 -0.00000000000E+00 -0.53883707895E+03  0.53883707895E+03  0.00000000000E+00 0. -1.
         23    2    1    2    0    0  0.34244765280E+02  0.10829778060E+03 -0.27599026944E+03  0.32380443974E+03  0.12560880996E+03 0.  0.
         23    2    1    2    0    0 -0.17267285763E+03  0.47007083699E+02  0.27075769291E+03  0.33677694109E+03  0.89907719913E+02 0.  0.
        -13    1    4    4    0    0 -0.34852226590E+02 -0.23681528944E+02  0.35447289726E+02  0.55063625565E+02  0.00000000000E+00 0.  1.
         13    1    4    4    0    0 -0.13782063104E+03  0.70688612643E+02  0.23531040318E+03  0.28171331552E+03  0.00000000000E+00 0. -1.
        -13    1    3    3    0    0  0.43006753901E+02  0.80101631191E+02 -0.27964491659E+03  0.29405294009E+03  0.00000000000E+00 0. -1.
         13    1    3    3    0    0 -0.87619886215E+01  0.28196149409E+02  0.36546471480E+01  0.29751499657E+02  0.00000000000E+00 0.  1.
         21    1    1    2  503  502 -0.25223131967E+02  0.16307597151E+02  0.12861688423E+03  0.13207742812E+03  0.00000000000E+00 0.  1.
          1    1    1    2  501    0  0.16365122432E+03 -0.17161246145E+03 -0.13535481434E+03  0.27304484231E+03  0.00000000000E+00 0. -1.
<scales pt_clust_5="13000.00000" pt_clust_6="13000.00000" pt_clust_7="13000.00000" pt_clust_8="13000.00000" pt_clust_9="30.03571" pt_clust_10="202.18892"></scales>
<clustering>
<clus scale="   30.036">  1  9  2 -1</clus>
<clus scale="   89.908">  5  6 -1 -1</clus>
<clus scale="  125.609">  7  8 -1 -1</clus>
<clus scale="  169.678">  2  7  1 -1</clus>
<clus scale="  202.189">  1 10  2 -1</clus>
<clus scale="   30.036">  1  5  2 -1</clus>
</clustering>
</event>
<event>
10    2  0.6640105E-006  0.1165947E+03  0.7546771E-02  0.1249521E+00
         21   -1    0    0  501  502  0.00000000000E+00  0.00000000000E+00  0.23026524812E+03  0.23026524812E+03  0.00000000000E+00 0.  1.
         -1   -1    0    0    0  501 -0.00000000000E+00 -0.00000000000E+00 -0.14951769058E+03  0.14951769058E+03  0.00000000000E+00 0.  1.
         23    2    1    2    0    0  0.22472359035E+01  0.46021321720E+02 -0.13741411909E+02  0.10234910856E+03  0.90352097372E+02 0.  0.
         23    2    1    2    0    0  0.42839235752E+02 -0.10985878012E+03  0.11685935298E+01  0.14981077753E+03  0.92399955425E+02 0.  0.
        -11    1    4    4    0    0 -0.28167996989E+02 -0.32303711101E+02  0.10858235709E+02  0.44213878907E+02  0.00000000000E+00 0. -1.
         11    1    4    4    0    0  0.71007232741E+02 -0.77555069021E+02 -0.96896421795E+01  0.10559689862E+03  0.00000000000E+00 0.  1.
        -13    1    3    3    0    0 -0.36789251892E+02  0.46678495150E+02 -0.20208470755E+02  0.62775100593E+02  0.00000000000E+00 0. -1.
         13    1    3    3    0    0  0.39036487796E+02 -0.65717342938E+00  0.64670588461E+01  0.39574007966E+02  0.00000000000E+00 0.  1.
         21    1    1    2  503  502 -0.20869539075E+02  0.46618675248E+01  0.35361975312E+02  0.41324810562E+02  0.00000000000E+00 0.  1.
         -1    1    1    2    0  503 -0.24216932581E+02  0.59175590877E+02  0.57958400611E+02  0.86298242049E+02  0.00000000000E+00 0.  1.
<scales pt_clust_5="13000.00000" pt_clust_6="13000.00000" pt_clust_7="13000.00000" pt_clust_8="13000.00000" pt_clust_9="21.38389" pt_clust_10="68.84786"></scales>
<clustering>
<clus scale="   21.384">  1  9  2 -1</clus>
<clus scale="   68.848">  1 10  2 -1</clus>
<clus scale="   90.352">  7  8 -1 -1</clus>
<clus scale="   92.400">  5  6 -1 -1</clus>
<clus scale="  114.979">  2  7  1 -1</clus>
<clus scale="   21.384">  1  5  2 -1</clus>
</clustering>
</event>
<event>
10    2  0.6640105E-006  0.9119691E+02  0.7546771E-02  0.1307140E+00
          1   -1    0    0  503    0 -0.00000000000E+00  0.00000000000E+00  0.17514546898E+03  0.17514546898E+03  0.00000000000E+00 0. -1.
         21   -1    0    0  501  502  0.00000000000E+00 -0.00000000000E+00 -0.17400563864E+03  0.17400563864E+03  0.00000000000E+00 0.  1.
         23    2    1    2    0    0  0.21323343968E+02  0.26994060495E+02  0.88626358480E+02  0.12749193546E+03  0.84948207104E+02 0.  0.
         23    2    1    2    0    0 -0.24021228496E+02 -0.20877034737E+02  0.11447675443E+02  0.80247344635E+02  0.72771677527E+02 0.  0.
        -13    1    3    3    0    0 -0.70588504505E+01  0.50858127270E+02  0.34418069757E+02  0.61814076107E+02  0.00000000000E+00 0.  1.
         13    1    3    3    0    0  0.28382194419E+02 -0.23864066776E+02  0.54208288723E+02  0.65677859354E+02  0.00000000000E+00 0. -1.
        -13    1    4    4    0    0 -0.14844236289E+02  0.21969510524E+02 -0.13575254312E+02  0.29787552322E+02  0.00000000000E+00 0.  1.
         13    1    4    4    0    0 -0.91769922069E+01 -0.42846545261E+02  0.25022929755E+02  0.50459792313E+02  0.00000000000E+00 0. -1.
         21    1    1    2  503  502 -0.18117018709E+02  0.13208417590E+02  0.13009024391E+02  0.25921484867E+02  0.00000000000E+00 0.  1.
          1    1    1    2  501    0  0.20814903237E+02 -0.19325443348E+02 -0.11194322797E+03  0.11549034265E+03  0.00000000000E+00 0. -1.
<scales pt_clust_5="13000.00000" pt_clust_6="13000.00000" pt_clust_7="13000.00000" pt_clust_8="13000.00000" pt_clust_9="22.42072" pt_clust_10="28.14942"></scales>
<clustering>
<clus scale="   22.421">  1  9  2 -1</clus>
<clus scale="   28.149">  2 10  1 -1</clus>
<clus scale="   72.772">  7  8 -1 -1</clus>
<clus scale="   79.977">  2  7  1 -1</clus>
<clus scale="   84.948">  5  6 -1 -1</clus>
<clus scale="   28.149">  2  5  1 -1</clus>
</clustering>
</event>
<event>
10    2  0.6640105E-006  0.1099124E+03  0.7546771E-02  0.1261603E+00
          3   -1    0    0  503    0 -0.00000000000E+00  0.00000000000E+00  0.30425465601E+03  0.30425465601E+03  0.00000000000E+00 0. -1.
         21   -1    0    0  501  502  0.00000000000E+00 -0.00000000000E+00 -0.57978785992E+03  0.57978785992E+03  0.00000000000E+00 0.  1.
         23    2    1    2    0    0  0.55401268636E+02 -0.16953477335E+02  0.16150005659E+03  0.19477832372E+03  0.92193308620E+02 0.  0.
         23    2    1    2    0    0 -0.11936523848E+03  0.34354407070E+01 -0.47387537110E+03  0.49690195340E+03  0.89965668714E+02 0.  0.
        -11    1    4    4    0    0 -0.59051960949E+02  0.46571571692E+02 -0.22735382340E+03  0.23946984444E+03  0.00000000000E+00 0. -1.
         11    1    4    4    0    0 -0.60313277534E+02 -0.43136130985E+02 -0.24652154770E+03  0.25743210896E+03  0.00000000000E+00 0.  1.
        -13    1    3    3    0    0  0.18363859591E+02  0.35015861832E+02  0.33787527531E+02  0.52009027443E+02  0.00000000000E+00 0.  1.
         13    1    3    3    0    0  0.37037409045E+02 -0.51969339167E+02  0.12771252906E+03  0.14276929628E+03  0.00000000000E+00 0. -1.
         21    1    1    2  503  502  0.40939397129E+00  0.38197911071E+02 -0.61679522607E+02  0.72550751358E+02  0.00000000000E+00 0.  1.
          3    1    1    2  501    0  0.63554575876E+02 -0.24679874443E+02  0.98521633200E+02  0.11981148745E+03  0.00000000000E+00 0. -1.
<scales pt_clust_5="13000.00000" pt_clust_6="13000.00000" pt_clust_7="13000.00000" pt_clust_8="13000.00000" pt_clust_9="38.20010" pt_clust_10="67.90321"></scales>
<clustering>
<clus scale="   38.200">  2  9  1 -1</clus>
<clus scale="   67.903">  2 10  1 -1</clus>
<clus scale="   89.966">  5  6 -1 -1</clus>
<clus scale="   92.193">  7  8 -1 -1</clus>
<clus scale="  108.051">  2  5  1 -1</clus>
<clus scale="   38.200">  2  5  1 -1</clus>
</clustering>
</event>
<event>
10    2  0.6640105E-006  0.1246114E+03  0.7546771E-02  0.1239596E+00
         21   -1    0    0  503  502  0.00000000000E+00  0.00000000000E+00  0.86047264272E+02  0.86047264272E+02  0.00000000000E+00 0.  1.
          2   -1    0    0  502    0 -0.00000000000E+00 -0.00000000000E+00 -0.56190637604E+03  0.56190637604E+03  0.00000000000E+00 0. -1.
         23    2    1    2    0    0 -0.13876679374E+02  0.68685343044E+02 -0.36438246144E+03  0.38503956706E+03  0.10281367328E+03 0.  0.
         23    2    1    2    0    0  0.16753304949E+02 -0.69231568729E+02 -0.11386111685E+03  0.16222072724E+03  0.90980916029E+02 0.  0.
        -11    1    3    3    0    0 -0.57589502656E+02  0.51900375581E+02 -0.22076922132E+03  0.23398557410E+03  0.00000000000E+00 0. -1.
         11    1    3    3    0    0  0.43712823282E+02  0.16784967463E+02 -0.14361324012E+03  0.15105399296E+03  0.00000000000E+00 0.  1.
        -13    1    4    4    0    0 -0.22370189106E+02 -0.16636790980E+02  0.31944571274E+01  0.28060875451E+02  0.00000000000E+00 0.  1.
         13    1    4    4    0    0  0.39123494055E+02 -0.52594777749E+02 -0.11705557398E+03  0.13415985179E+03  0.00000000000E+00 0. -1.
         21    1    1    2  503  501  0.40023469809E+02  0.17067317603E+02  0.24222611432E+02  0.49798658319E+02  0.00000000000E+00 0.  1.
          2    1    1    2  501    0 -0.42900095384E+02 -0.16521091919E+02 -0.21838144904E+02  0.50894687690E+02  0.00000000000E+00 0. -1.
<scales pt_clust_5="13000.00000" pt_clust_6="13000.00000" pt_clust_7="13000.00000" pt_clust_8="13000.00000" pt_clust_9="43.51059" pt_clust_10="33.09157"></scales>
<clustering>
<clus scale="   43.511">  1  9  2 -1</clus>
<clus scale="   33.092">  1 10  2 -1</clus>
<clus scale="   90.981">  7  8 -1 -1</clus>
<clus scale="  102.814">  5  6 -1 -1</clus>
<clus scale="  115.043">  1  7  2 -1</clus>
<clus scale="   43.511">  1  5  2 -1</clus>
</clustering>
</event>
<event>
10    2  0.6640105E-006  0.1037892E+03  0.7546771E-02  0.1273785E+00
         -1   -1    0    0    0  501 -0.00000000000E+00  0.00000000000E+00  0.28757040213E+03  0.28757040213E+03  0.00000000000E+00 0.  1.
         21   -1    0    0  503  502  0.00000000000E+00 -0.00000000000E+00 -0.45571185382E+03  0.45571185382E+03  0.00000000000E+00 0.  1.
         23    2    1    2    0    0 -0.69041535486E+01 -0.49187025532E+02  0.20573262483E+03  0.23020479443E+03  0.90561049257E+02 0.  0.
         23    2    1    2    0    0  0.83492344420E+02 -0.50148095969E+01 -0.34133743728E+02  0.12989591689E+03  0.93336578423E+02 0.  0.
        -11    1    3    3    0    0  0.57751306046E+01  0.25403980142E+02  0.36652421434E+02  0.44967925653E+02  0.00000000000E+00 0.  1.
         11    1    3    3    0    0 -0.12679284153E+02 -0.74591005674E+02  0.16908020339E+03  0.18523686878E+03  0.00000000000E+00 0. -1.
        -13    1    4    4    0    0  0.53449088864E+02 -0.45040795072E+02 -0.10529627866E+01  0.69904127573E+02  0.00000000000E+00 0.  1.
         13    1    4    4    0    0  0.30043255556E+02  0.40025985475E+02 -0.33080780941E+02  0.59991789316E+02  0.00000000000E+00 0. -1.
         21    1    1    2  503  501 -0.44521637467E+02  0.39768701669E+01 -0.31582568136E+03  0.31897312224E+03  0.00000000000E+00 0.  1.
         -1    1    1    2    0  502 -0.32066553404E+02  0.50224964962E+02 -0.23914651426E+02  0.64208422387E+02  0.00000000000E+00 0.  1.
<scales pt_clust_5="13000.00000" pt_clust_6="13000.00000" pt_clust_7="13000.00000" pt_clust_8="13000.00000" pt_clust_9="44.69890" pt_clust_10="69.21298"></scales>
<clustering>
<clus scale="   44.699">  2  9  1 -1</clus>
<clus scale="   69.213">  2 10  1 -1</clus>
<clus scale="   90.561">  5  6 -1 -1</clus>
<clus scale="   93.337">  7  8 -1 -1</clus>
<clus scale="  101.300">  1  5  2 -1</clus>
<clus scale="   44.699">  2  5  1 -1</clus>
</clustering>
</event>
<event>
10    2  0.6640105E-006  0.1100375E+03  0.7546771E-02  0.1264630E+00
         21   -1    0    0  503  502  0.00000000000E+00  0.00000000000E+00  0.16750549102E+03  0.16750549102E+03  0.00000000000E+00 0. -1.
          2   -1    0    0  502    0 -0.00000000000E+00 -0.00000000000E+00 -0.69699448369E+03  0.69699448369E+03  0.00000000000E+00 0. -1.
         23    2    1    2    0    0 -0.61749862589E+01 -0.43836429076E+02 -0.41806264757E+03  0.43057279170E+03  0.93041865234E+02 0.  0.
         23    2    1    2    0    0  0.28332879081E+02  0.26748698558E+02 -0.21794860141E+03  0.24389303379E+03  0.10229356853E+03 0.  0.
        -11    1    4    4    0    0  0.19849498259E+02 -0.22188520364E+02 -0.17710235462E+03  0.17958724071E+03  0.00000000000E+00 0. -1.
         11    1    4    4    0    0  0.84833808211E+01  0.48937218921E+02 -0.40846246794E+02  0.64305793075E+02  0.00000000000E+00 0.  1.
        -13    1    3    3    0    0  0.26889873268E+02  0.18152591336E+02 -0.14875555215E+03  0.15225240934E+03  0.00000000000E+00 0.  1.
         13    1    3    3    0    0 -0.33064859527E+02 -0.61989020412E+02 -0.26930709543E+03  0.27832038236E+03  0.00000000000E+00 0. -1.
         21    1    1    2  503  501 -0.21383190381E+02 -0.64724475498E+01  0.14401988885E+03  0.14574245021E+03  0.00000000000E+00 0. -1.
          2    1    1    2  501    0 -0.77470244055E+00  0.23560178068E+02 -0.37497632548E+02  0.44291699010E+02  0.00000000000E+00 0. -1.
<scales pt_clust_5="13000.00000" pt_clust_6="13000.00000" pt_clust_7="13000.00000" pt_clust_8="13000.00000" pt_clust_9="22.34129" pt_clust_10="22.93723"></scales>
<clustering>
<clus scale="   22.341">  1  9  2 -1</clus>
<clus scale="   22.937">  1 10  2 -1</clus>
<clus scale="   93.042">  7  8 -1 -1</clus>
<clus scale="  101.494">  2  7  1 -1</clus>
<clus scale="  102.294">  5  6 -1 -1</clus>
<clus scale="   22.341">  1  5  2 -1</clus>
</clustering>
</event>
<event>
10    2  0.6640105E-006  0.9122412E+02  0.7546771E-02  0.1302145E+00
         21   -1    0    0  503  502  0.00000000000E+00  0.00000000000E+00  0.53497831285E+02  0.53497831285E+02  0.00000000000E+00 0. -1.
         -2   -1    0    0    0  501 -0.00000000000E+00 -0.00000000000E+00 -0.45495075442E+03  0.45495075442E+03  0.00000000000E+00 0.  1.
         23    2    1    2    0    0  0.33418269967E+01 -0.10468666856E+02 -0.31659952766E+03  0.32943071544E+03  0.90380166891E+02 0.  0.
         23    2    1    2    0    0 -0.20112768694E+02  0.74762604433E+01 -0.91006171700E+02  0.12749483817E+03  0.86674059191E+02 0.  0.
        -11    1    4    4    0    0 -0.19663701264E+02 -0.31366970651E+02 -0.11104054444E+02  0.38650330145E+02  0.00000000000E+00 0. -1.
         11    1    4    4    0    0 -0.44906743028E+00  0.38843231094E+02 -0.79902117257E+02  0.88844508021E+02  0.00000000000E+00 0.  1.
        -13    1    3    3    0    0  0.46260521877E+02 -0.61672443807E+01 -0.19146056560E+03  0.19706653437E+03  0.00000000000E+00 0.  1.
         13    1    3    3    0    0 -0.42918694881E+02 -0.43014224753E+01 -0.12513896206E+03  0.13236418107E+03  0.00000000000E+00 0. -1.
         21    1    1    2  503  501 -0.42306904338E+01  0.20010485022E+02  0.12211799242E+02  0.23821131230E+02  0.00000000000E+00 0. -1.
         -2    1    1    2    0  502  0.21001632131E+02 -0.17018078609E+02 -0.60590230143E+01  0.27701900866E+02  0.00000000000E+00 0.  1.
<scales pt_clust_5="13000.00000" pt_clust_6="13000.00000" pt_clust_7="13000.00000" pt_clust_8="13000.00000" pt_clust_9="20.45283" pt_clust_10="22.53165"></scales>
<clustering>
<clus scale="   20.453">  1  9  2 -1</clus>
<clus scale="   22.532">  1 10  2 -1</clus>
<clus scale="   86.674">  5  6 -1 -1</clus>
<clus scale="   87.554">  1  5  2 -1</clus>
<clus scale="   90.380">  7  8 -1 -1</clus>
<clus scale="   20.453">  1  5  2 -1</clus>
</clustering>
</event>
<event>
10    2  0.6640105E-006  0.1182879E+03  0.7546771E-02  0.1246688E+00
         21   -1    0    0  501  502  0.00000000000E+00  0.00000000000E+00  0.11766265897E+03  0.11766265897E+03  0.00000000000E+00 0. -1.
         -1   -1    0    0    0  501 -0.00000000000E+00 -0.00000000000E+00 -0.43876690019E+03  0.43876690019E+03  0.00000000000E+00 0.  1.
         23    2    1    2    0    0  0.40876517958E+01  0.67430677146E+02 -0.26628993944E+03  0.28933198998E+03  0.90769287000E+02 0.  0.
         23    2    1    2    0    0  0.56314885273E+01 -0.86583334799E+02 -0.11962077300E+03  0.17460351618E+03  0.92999306462E+02 0.  0.
        -11    1    3    3    0    0  0.32134492542E+02  0.72233887546E+02 -0.14940406272E+03  0.16903234625E+03  0.00000000000E+00 0.  1.
         11    1    3    3    0    0 -0.28046840746E+02 -0.48032103993E+01 -0.11688587671E+03  0.12029964373E+03  0.00000000000E+00 0. -1.
        -11    1    4    4    0    0  0.47645620048E+02 -0.28579526710E+02 -0.53264866830E+02  0.76967788686E+02  0.00000000000E+00 0.  1.
         11    1    4    4    0    0 -0.42014131521E+02 -0.58003808088E+02 -0.66355906168E+02  0.97635727496E+02  0.00000000000E+00 0. -1.
         21    1    1    2  503  502  0.23038162795E+02  0.20978675882E+02  0.42990443821E+02  0.53094632936E+02  0.00000000000E+00 0. -1.
         -1    1    1    2    0  503 -0.32757303118E+02 -0.18260182298E+01  0.21816027389E+02  0.39399420061E+02  0.00000000000E+00 0.  1.
<scales pt_clust_5="13000.00000" pt_clust_6="13000.00000" pt_clust_7="13000.00000" pt_clust_8="13000.00000" pt_clust_9="31.15866" pt_clust_10="23.80714"></scales>
<clustering>
<clus scale="   31.159">  1  9  2 -1</clus>
<clus scale="   23.807">  1 10  2 -1</clus>
<clus scale="   90.769">  5  6 -1 -1</clus>
<clus scale="   92.999">  7  8 -1 -1</clus>
<clus scale="  116.543">  2  5  1 -1</clus>
<clus scale="   31.159">  1  5  2 -1</clus>
</clustering>
</event>
<event>
10    2  0.6640105E-006  0.1174665E+03  0.7546771E-02  0.1248061E+00
         21   -1    0    0  503  502  0.00000000000E+00  0.00000000000E+00  0.90636484919E+02  0.90636484919E+02  0.00000000000E+00 0. -1.
         -4   -1    0    0    0  501 -0.00000000000E+00 -0.00000000000E+00 -0.78258323302E+03  0.78258323302E+03  0.00000000000E+00 0.  1.
         23    2    1    2    0    0 -0.64790471312E+02  0.36304815940E+01 -0.42599222609E+03  0.44027349047E+03  0.90334844605E+02 0.  0.
         23    2    1    2    0    0  0.15372466152E+03 -0.26620883549E+02 -0.86877886931E+02  0.19912927880E+03  0.88117872392E+02 0.  0.
        -11    1    3    3    0    0  0.12156162988E+02  0.21514917333E+02 -0.46629136446E+02  0.52772533880E+02  0.00000000000E+00 0. -1.
         11    1    3    3    0    0 -0.76946634300E+02 -0.17884435739E+02 -0.37936308965E+03  0.38750095659E+03  0.00000000000E+00 0.  1.
        -13    1    4    4    0    0  0.43148268402E+02 -0.48627291488E+02 -0.19890872686E+02  0.67985537872E+02  0.00000000000E+00 0.  1.
         13    1    4    4    0    0  0.11057639312E+03  0.22006407939E+02 -0.66987014244E+02  0.13114374092E+03  0.00000000000E+00 0. -1.
         21    1    1    2  503  501 -0.34212192540E+02  0.58393721024E+02 -0.36141649237E+02  0.76723657258E+02  0.00000000000E+00 0.  1.
         -4    1    1    2    0  502 -0.54721997671E+02 -0.35403319069E+02 -0.14293498584E+03  0.15709329141E+03  0.00000000000E+00 0.  1.
<scales pt_clust_5="13000.00000" pt_clust_6="13000.00000" pt_clust_7="13000.00000" pt_clust_8="13000.00000" pt_clust_9="68.81869" pt_clust_10="65.17589"></scales>
<clustering>
<clus scale="   65.176">  1 10  2 -1</clus>
<clus scale="   68.819">  1  9  2 -1</clus>
<clus scale="   88.118">  7  8 -1 -1</clus>
<clus scale="   90.335">  5  6 -1 -1</clus>
<clus scale="  115.770">  1  7  2 -1</clus>
<clus scale="   65.176">  1  5  2 -1</clus>
</clustering>
</event>
<event>
10    2  0.6640105E-006  0.1028342E+03  0.7546771E-02  0.1275148E+00
         21   -1    0    0  501  502  0.00000000000E+00  0.00000000000E+00  0.26885270388E+03  0.26885270388E+03  0.00000000000E+00 0. -1.
          1   -1    0    0  503    0 -0.00000000000E+00 -0.00000000000E+00 -0.12768859272E+03  0.12768859272E+03  0.00000000000E+00 0. -1.
         23    2    1    2    0    0 -0.95508114250E+01 -0.30094986445E+01  0.13292771662E+02  0.93832239048E+02  0.92344551682E+02 0.  0.
         23    2    1    2    0    0  0.74028196037E+02  0.60519943933E+02  0.17455891070E+02  0.13301858966E+03  0.90809689126E+02 0.  0.
        -11    1    4    4    0    0  0.26408050778E+02  0.76390213305E+02  0.18063202624E+02  0.82819859476E+02  0.00000000000E+00 0.  1.
         11    1    4    4    0    0  0.47620145259E+02 -0.15870269372E+02 -0.60731155407E+00  0.50198730180E+02  0.00000000000E+00 0. -1.
        -11    1    3    3    0    0 -0.40067081499E+02 -0.23130394457E+02  0.28394422056E+02  0.54282864437E+02  0.00000000000E+00 0.  1.
         11    1    3    3    0    0  0.30516270074E+02  0.20120895812E+02 -0.15101650394E+02  0.39549374611E+02  0.00000000000E+00 0. -1.
         21    1    1    2  503  502 -0.58275518980E+00 -0.35127687791E+02  0.93536000012E+02  0.99916351772E+02  0.00000000000E+00 0. -1.
          1    1    1    2  501    0 -0.63894629422E+02 -0.22382757498E+02  0.16879448423E+02  0.69774116127E+02  0.00000000000E+00 0. -1.
<scales pt_clust_5="13000.00000" pt_clust_6="13000.00000" pt_clust_7="13000.00000" pt_clust_8="13000.00000" pt_clust_9="35.13252" pt_clust_10="71.24806"></scales>
<clustering>
<clus scale="   35.133">  1  9  2 -1</clus>
<clus scale="   71.248">  1 10  2 -1</clus>
<clus scale="   90.810">  5  6 -1 -1</clus>
<clus scale="   92.345">  7  8 -1 -1</clus>
<clus scale="  101.458">  1  5  2 -1</clus>
<clus scale="   35.133">  1  5  2 -1</clus>
</clustering>
</event>
<event>
10    2  0.6640105E-006  0.2273682E+03  0.7546771E-02  0.1141932E+00
         21   -1    0    0  501  502  0.00000000000E+00  0.00000000000E+00  0.46028744548E+03  0.46028744548E+03  0.00000000000E+00 0.  1.
         -1   -1    0    0    0  501 -0.00000000000E+00 -0.00000000000E+00 -0.41048061611E+03  0.41048061611E+03  0.00000000000E+00 0.  1.
         23    2    1    2    0    0  0.11437256294E+03 -0.84629546900E+02  0.12657900682E+03  0.21176428247E+03  0.92620856178E+02 0.  0.
         23    2    1    2    0    0 -0.46957439403E+02 -0.17752545589E+03 -0.20108434589E+02  0.20585162802E+03  0.90830914415E+02 0.  0.
        -11    1    3    3    0    0  0.96530414054E+02 -0.96221818876E+02  0.13207266584E+03  0.18978922079E+03  0.00000000000E+00 0.  1.
         11    1    3    3    0    0  0.17842148881E+02  0.11592271976E+02 -0.54936590192E+01  0.21975061676E+02  0.00000000000E+00 0. -1.
        -11    1    4    4    0    0 -0.17494891996E+02 -0.15090478208E+03  0.15254966853E+02  0.15267952880E+03  0.00000000000E+00 0.  1.
         11    1    4    4    0    0 -0.29462547407E+02 -0.26620673801E+02 -0.35363401442E+02  0.53172099215E+02  0.00000000000E+00 0. -1.
         21    1    1    2  503  502 -0.23157404184E+02 -0.70271769526E+01  0.12375009196E+03  0.12609413882E+03  0.00000000000E+00 0.  1.
         -1    1    1    2    0  503 -0.44257719348E+02  0.26918217974E+03 -0.18041383482E+03  0.32705801229E+03  0.00000000000E+00 0.  1.
<scales pt_clust_5="13000.00000" pt_clust_6="13000.00000" pt_clust_7="13000.00000" pt_clust_8="13000.00000" pt_clust_9="24.20014" pt_clust_10="208.43722"></scales>
<clustering>
<clus scale="   24.200">  1  9  2 -1</clus>
<clus scale="   90.831">  7  8 -1 -1</clus>
<clus scale="   92.621">  5  6 -1 -1</clus>
<clus scale="  164.009">  2  5  1 -1</clus>
<clus scale="  208.437">  1 10  2 -1</clus>
<clus scale="   24.200">  1  5  2 -1</clus>
</clustering>
</event>
<event>
10    2  0.6640105E-006  0.1004432E+03  0.7546771E-02  0.1279861E+00
         21   -1    0    0  503  502  0.00000000000E+00  0.00000000000E+00  0.24757139432E+03  0.24757139432E+03  0.00000000000E+00 0.  1.
         -2   -1    0    0    0  501 -0.00000000000E+00 -0.00000000000E+00 -0.83795030265E+02  0.83795030265E+02  0.00000000000E+00 0.  1.
         23    2    1    2    0    0 -0.14435501726E+02 -0.22419344323E+02  0.47617779607E+02  0.10843920509E+03  0.93704842757E+02 0.  0.
         23    2    1    2    0    0  0.37213310721E+02  0.28101104950E+02  0.42530248115E+02  0.11214249934E+03  0.92696362167E+02 0.  0.
        -13    1    3    3    0    0  0.31561610709E+02 -0.35334132034E+02  0.35353584005E+02  0.59114398070E+02  0.00000000000E+00 0.  1.
         13    1    3    3    0    0 -0.45997112434E+02  0.12914787710E+02  0.12264195601E+02  0.49324807021E+02  0.00000000000E+00 0. -1.
        -13    1    4    4    0    0  0.40649347383E+02 -0.21967028423E+02 -0.23684325613E+00  0.46205799151E+02  0.00000000000E+00 0.  1.
         13    1    4    4    0    0 -0.34360366623E+01  0.50068133373E+02  0.42767091371E+02  0.65936700188E+02  0.00000000000E+00 0. -1.
         21    1    1    2  503  501 -0.46190957840E+02 -0.24562140151E+02  0.51797138181E+02  0.73619609064E+02  0.00000000000E+00 0.  1.
         -2    1    1    2    0  502  0.23413148844E+02  0.18880379524E+02  0.21831198154E+02  0.37165111094E+02  0.00000000000E+00 0.  1.
<scales pt_clust_5="13000.00000" pt_clust_6="13000.00000" pt_clust_7="13000.00000" pt_clust_8="13000.00000" pt_clust_9="43.85239" pt_clust_10="30.07730"></scales>
<clustering>
<clus scale="   30.077">  1 10  2 -1</clus>
<clus scale="   43.852">  1  9  2 -1</clus>
<clus scale="   92.696">  7  8 -1 -1</clus>
<clus scale="   93.705">  5  6 -1 -1</clus>
<clus scale="   99.503">  1  7  2 -1</clus>
<clus scale="   30.077">  1  5  2 -1</clus>
</clustering>
</event>
<event>
10    2  0.6640105E-006  0.2770586E+03  0.7546771E-02  0.1117003E+00
          3   -1    0    0  502    0 -0.00000000000E+00  0.00000000000E+00  0.11591020403E+04  0.11591020403E+04  0.00000000000E+00 0. -1.
         21   -1    0    0  503  502  0.00000000000E+00 -0.00000000000E+00 -0.15085393321E+03  0.15085393321E+03  0.00000000000E+00 0.  1.
         23    2    1    2    0    0  0.14005808120E+03  0.10866869486E+02  0.55263594118E+02  0.18653871408E+03  0.10958226158E+03 0.  0.
         23    2    1    2    0    0 -0.18602617561E+02 -0.24825551990E+03  0.43505231021E+03  0.50966023170E+03  0.92228946741E+02 0.  0.
        -13    1    3    3    0    0  0.10224599351E+03  0.27082938409E+02 -0.13272761093E+02  0.10660157094E+03  0.00000000000E+00 0.  1.
         13    1    3    3    0    0  0.37812087697E+02 -0.16216068923E+02  0.68536355210E+02  0.79937143136E+02  0.00000000000E+00 0. -1.
        -13    1    4    4    0    0 -0.44872406792E+02 -0.21688308449E+03  0.33531665246E+03  0.40185701767E+03  0.00000000000E+00 0. -1.
         13    1    4    4    0    0  0.26269789230E+02 -0.31372435411E+02  0.99735657748E+02  0.10780321403E+03  0.00000000000E+00 0.  1.
         21    1    1    2  503  501 -0.29808384420E+02 -0.31872739154E+02  0.52186902980E+02  0.68028553752E+02  0.00000000000E+00 0. -1.
          3    1    1    2  501    0 -0.91647079221E+02  0.26926138957E+03  0.46574529983E+03  0.54572847402E+03  0.00000000000E+00 0. -1.
<scales pt_clust_5="13000.00000" pt_clust_6="13000.00000" pt_clust_7="13000.00000" pt_clust_8="13000.00000" pt_clust_9="43.63956" pt_clust_10="261.25725"></scales>
<clustering>
<clus scale="   43.640">  2  9  1 -1</clus>
<clus scale="   92.229">  7  8 -1 -1</clus>
<clus scale="  109.582">  5  6 -1 -1</clus>
<clus scale="  167.307">  1  5  2 -1</clus>
<clus scale="  261.257">  2 10  1 -1</clus>
<clus scale="   43.640">  2  5  1 -1</clus>
</clustering>
</event>
<event>
10    2  0.6640105E-006  0.1397026E+03  0.7546771E-02  0.1226790E+00
          2   -1    0    0  503    0 -0.00000000000E+00  0.00000000000E+00  0.83434824585E+03  0.83434824585E+03  0.00000000000E+00 0. -1.
         21   -1    0    0  501  502  0.00000000000E+00 -0.00000000000E+00 -0.83125105703E+02  0.83125105703E+02  0.00000000000E+00 0.  1.
         23    2    1    2    0    0  0.15058845039E+02  0.48513380176E+02  0.12976977174E+03  0.16525419920E+03  0.88816889311E+02 0.  0.
         23    2    1    2    0    0  0.77598135834E+02 -0.56074022289E+02  0.35948808905E+03  0.38305805260E+03  0.91301800840E+02 0.  0.
        -11    1    3    3    0    0  0.37854097412E+02 -0.10204575434E+02  0.45865767287E+02  0.60338500641E+02  0.00000000000E+00 0. -1.
         11    1    3    3    0    0 -0.22795252373E+02  0.58717955610E+02  0.83904004448E+02  0.10491569856E+03  0.00000000000E+00 0.  1.
        -11    1    4    4    0    0  0.95018042247E+02 -0.27693951402E+02  0.27204225814E+03  0.28948639608E+03  0.00000000000E+00 0.  1.
         11    1    4    4    0    0 -0.17419906413E+02 -0.28380070887E+02  0.87445830905E+02  0.93571656529E+02  0.00000000000E+00 0. -1.
         21    1    1    2  503  502  0.30613613770E+02  0.59453061003E+01 -0.35445629489E+02  0.47211573396E+02  0.00000000000E+00 0.  1.
          2    1    1    2  501    0 -0.12327059464E+03  0.16153360127E+01  0.29741090885E+03  0.32194952635E+03  0.00000000000E+00 0. -1.
<scales pt_clust_5="13000.00000" pt_clust_6="13000.00000" pt_clust_7="13000.00000" pt_clust_8="13000.00000" pt_clust_9="31.18557" pt_clust_10="105.73923"></scales>
<clustering>
<clus scale="   31.186">  2  9  1 -1</clus>
<clus scale="   88.817">  5  6 -1 -1</clus>
<clus scale="   91.302">  7  8 -1 -1</clus>
<clus scale="  106.209">  1  5  2 -1</clus>
<clus scale="  105.739">  2 10  1 -1</clus>
<clus scale="   31.186">  2  5  1 -1</clus>
</clustering>
</event>
<event>
10    2  0.6640105E-006  0.2544074E+03  0.7546771E-02  0.1110660E+00
         21   -1    0    0  501  502  0.00000000000E+00  0.00000000000E+00  0.62070119820E+03  0.62070119820E+03  0.00000000000E+00 0.  1.
         -2   -1    0    0    0  501 -0.00000000000E+00 -0.00000000000E+00 -0.16628851159E+03  0.16628851159E+03  0.00000000000E+00 0.  1.
         23    2    1    2    0    0  0.22145013370E+03  0.13532511511E+03  0.85260740431E+02  0.28821530020E+03  0.91900037623E+02 0.  0.
         23    2    1    2    0    0 -0.15203909477E+03 -0.14231770952E+03  0.19837139106E+03  0.30253298706E+03  0.93833803550E+02 0.  0.
        -13    1    3    3    0    0  0.15314434516E+03  0.13093846335E+03  0.38010086298E+02  0.20504350343E+03  0.00000000000E+00 0.  1.
         13    1    3    3    0    0  0.68305788540E+02  0.43866517596E+01  0.47250654133E+02  0.83171796769E+02  0.00000000000E+00 0. -1.
        -13    1    4    4    0    0 -0.40652692977E+02 -0.10211769079E+03  0.91303272433E+02  0.14288789933E+03  0.00000000000E+00 0.  1.
         13    1    4    4    0    0 -0.11138640180E+03 -0.40200018730E+02  0.10706811862E+03  0.15964508773E+03  0.00000000000E+00 0. -1.
         21    1    1    2  503  502 -0.16791363624E+02  0.19537703601E+02  0.11758227786E+03  0.12037135797E+03  0.00000000000E+00 0.  1.
         -2    1    1    2    0  503 -0.52619675299E+02 -0.12545109191E+02  0.53198277263E+02  0.75870064564E+02  0.00000000000E+00 0.  1.
<scales pt_clust_5="13000.00000" pt_clust_6="13000.00000" pt_clust_7="13000.00000" pt_clust_8="13000.00000" pt_clust_9="25.76183" pt_clust_10="55.69050"></scales>
<clustering>
<clus scale="   25.762">  1  9  2 -1</clus>
<clus scale="   55.691">  1 10  2 -1</clus>
<clus scale="   91.900">  5  6 -1 -1</clus>
<clus scale="   93.834">  7  8 -1 -1</clus>
<clus scale="  253.701">  2  5  1 -1</clus>
<clus scale="   25.762">  1  5  2 -1</clus>
</clustering>
</event>
<event>
10    2  0.6640105E-006  0.6123713E+03  0.7546771E-02  0.1044339E+00
         21   -1    0    0  503  502  0.00000000000E+00  0.00000000000E+00  0.78200801246E+03  0.78200801246E+03  0.00000000000E+00 0. -1.
          4   -1    0    0  502    0 -0.00000000000E+00 -0.00000000000E+00 -0.76802166723E+03  0.76802166723E+03  0.00000000000E+00 0. -1.
         23    2    1    2    0    0 -0.63794257316E+02 -0.14233911942E+02 -0.19840459221E+03  0.22657872023E+03  0.87756610775E+02 0.  0.
         23    2    1    2    0    0 -0.48784500046E+03  0.30612038714E+03 -0.96722874570E+02  0.59132658397E+03  0.92786736945E+02 0.  0.
        -11    1    3    3    0    0  0.63547566420E+01 -0.28447799661E+02 -0.10460426761E+03  0.10858965439E+03  0.00000000000E+00 0.  1.
         11    1    3    3    0    0 -0.70149013958E+02  0.14213887719E+02 -0.93800324604E+02  0.11798906585E+03  0.00000000000E+00 0. -1.
        -11    1    4    4    0    0 -0.99785393205E+02  0.25469730739E+02 -0.33302255492E+02  0.10823526275E+03  0.00000000000E+00 0.  1.
         11    1    4    4    0    0 -0.38805960725E+03  0.28065065640E+03 -0.63420619077E+02  0.48309132123E+03  0.00000000000E+00 0. -1.
         21    1    1    2  503  501 -0.16959308922E+02 -0.32996851985E+02  0.30610131481E+02  0.48097718754E+02  0.00000000000E+00 0.  1.
          4    1    1    2  501    0  0.56859856670E+03 -0.25888962321E+03  0.27850368053E+03  0.68402665673E+03  0.00000000000E+00 0. -1.
<scales pt_clust_5="13000.00000" pt_clust_6="13000.00000" pt_clust_7="13000.00000" pt_clust_8="13000.00000" pt_clust_9="37.10001" pt_clust_10="605.30099"></scales>
<clustering>
<clus scale="   37.100">  1  9  2 -1</clus>
<clus scale="   87.757">  5  6 -1 -1</clus>
<clus scale="   92.787">  7  8 -1 -1</clus>
<clus scale="  109.695">  2  5  1 -1</clus>
<clus scale="  605.301">  1 10  2 -1</clus>
<clus scale="   37.100">  1  5  2 -1</clus>
</clustering>
</event>
<event>
10    2  0.6640105E-006  0.1119750E+03  0.7546771E-02  0.1258129E+00
         -2   -1    0    0    0  501 -0.00000000000E+00  0.00000000000E+00  0.43963880045E+03  0.43963880045E+03  0.00000000000E+00 0.  1.
         21   -1    0    0  501  502  0.00000000000E+00 -0.00000000000E+00 -0.57120694407E+02  0.57120694407E+02  0.00000000000E+00 0. -1.
         23    2    1    2    0    0 -0.59704688817E+02 -0.56513576006E+02  0.22583950908E+03  0.25588284092E+03  0.87830007834E+02 0.  0.
         23    2    1    2    0    0  0.26672437912E+01  0.53791942797E+02  0.12725027811E+03  0.16545403843E+03  0.91003946373E+02 0.  0.
        -11    1    4    4    0    0  0.32779696488E+02  0.52153153996E+02  0.11930344929E+03  0.13426754257E+03  0.00000000000E+00 0.  1.
         11    1    4    4    0    0 -0.30112452697E+02  0.16387888008E+01  0.79468288154E+01  0.31186495866E+02  0.00000000000E+00 0. -1.
        -13    1    3    3    0    0  0.19570828983E+02 -0.60026310720E+01  0.78392815664E+02  0.81021493905E+02  0.00000000000E+00 0.  1.
         13    1    3    3    0    0 -0.79275517800E+02 -0.50510944934E+02  0.14744669342E+03  0.17486134702E+03  0.00000000000E+00 0. -1.
         21    1    1    2  503  502  0.21223177223E+02  0.14857316105E+02 -0.23705957283E+01  0.26015049824E+02  0.00000000000E+00 0. -1.
         -2    1    1    2    0  503  0.35814267803E+02 -0.12135682896E+02  0.31798914580E+02  0.49407565677E+02  0.00000000000E+00 0.  1.
<scales pt_clust_5="13000.00000" pt_clust_6="13000.00000" pt_clust_7="13000.00000" pt_clust_8="13000.00000" pt_clust_9="25.90682" pt_clust_10="41.18244"></scales>
<clustering>
<clus scale="   25.907">  2  9  1 -1</clus>
<clus scale="   41.182">  2 10  1 -1</clus>
<clus scale="   87.830">  7  8 -1 -1</clus>
<clus scale="   91.004">  5  6 -1 -1</clus>
<clus scale="  109.411">  1  7  2 -1</clus>
<clus scale="   25.907">  2  5  1 -1</clus>
</clustering>
</event>
<event>
10    2  0.6640105E-006  0.1160148E+03  0.7546771E-02  0.1251287E+00
         21   -1    0    0  501  502  0.00000000000E+00  0.00000000000E+00  0.15304572794E+03  0.15304572794E+03  0.00000000000E+00 0.  1.
          1   -1    0    0  503    0 -0.00000000000E+00 -0.00000000000E+00 -0.45441783321E+03  0.45441783321E+03  0.00000000000E+00 0. -1.
         23    2    1    2    0    0 -0.24479055297E+02 -0.64904793380E+02 -0.22843387618E+03  0.25592238861E+03  0.92208333967E+02 0.  0.
         23    2    1    2    0    0 -0.18760884708E+02  0.76985792180E+02 -0.18021716097E+03  0.21562475583E+03  0.87960373029E+02 0.  0.
        -11    1    4    4    0    0  0.24079942949E+02  0.26206895071E+02 -0.17075727157E+02  0.39474364588E+02  0.00000000000E+00 0.  1.
         11    1    4    4    0    0 -0.42840827657E+02  0.50778897109E+02 -0.16314143381E+03  0.17615039124E+03  0.00000000000E+00 0. -1.
        -13    1    3    3    0    0 -0.18477862325E+02 -0.87650583550E+02 -0.15752280550E+03  0.18121117638E+03  0.00000000000E+00 0. -1.
         13    1    3    3    0    0 -0.60011929720E+01  0.22745790170E+02 -0.70911070689E+02  0.74711212237E+02  0.00000000000E+00 0.  1.
         21    1    1    2  503  502  0.28078580588E+02  0.25010687166E+02  0.77004123179E+02  0.85694668136E+02  0.00000000000E+00 0.  1.
          1    1    1    2  501    0  0.15161359417E+02 -0.37091685966E+02  0.30274808715E+02  0.50221748575E+02  0.00000000000E+00 0. -1.
<scales pt_clust_5="13000.00000" pt_clust_6="13000.00000" pt_clust_7="13000.00000" pt_clust_8="13000.00000" pt_clust_9="37.60241" pt_clust_10="38.57011"></scales>
<clustering>
<clus scale="   37.602">  1  9  2 -1</clus>
<clus scale="   38.570">  1 10  2 -1</clus>
<clus scale="   87.960">  5  6 -1 -1</clus>
<clus scale="   92.208">  7  8 -1 -1</clus>
<clus scale="  112.668">  1  5  2 -1</clus>
<clus scale="   37.602">  1  5  2 -1</clus>
</clustering>
</event>
<event>
10    2  0.6640105E-006  0.1268507E+03  0.7546771E-02  0.1235053E+00
         -1   -1    0    0    0  501 -0.00000000000E+00  0.00000000000E+00  0.20676315101E+03  0.20676315101E+03  0.00000000000E+00 0.  1.
         21   -1    0    0  503  502  0.00000000000E+00 -0.00000000000E+00 -0.29060534699E+03  0.29060534699E+03  0.00000000000E+00 0. -1.
         23    2    1    2    0    0 -0.84073886349E+02  0.19044227126E+02  0.10444181824E+03  0.16113927840E+03  0.87330823280E+02 0.  0.
         23    2    1    2    0    0  0.75272269702E+02  0.29055584598E+02 -0.17723936411E+02  0.12738155401E+03  0.96962780473E+02 0.  0.
        -11    1    4    4    0    0  0.39840833675E+02  0.12607537018E+01  0.38451562842E+02  0.55384151278E+02  0.00000000000E+00 0.  1.
         11    1    4    4    0    0  0.35431436027E+02  0.27794830896E+02 -0.56175499253E+02  0.71997402729E+02  0.00000000000E+00 0. -1.
        -11    1    3    3    0    0 -0.51749457815E+02  0.49895033030E+02  0.38675250091E+02  0.81629012458E+02  0.00000000000E+00 0.  1.
         11    1    3    3    0    0 -0.32324428535E+02 -0.30850805904E+02  0.65766568145E+02  0.79510265945E+02  0.00000000000E+00 0. -1.
         21    1    1    2  503  501  0.38089017437E+02 -0.69353395769E+02 -0.14273870661E+03  0.16320234409E+03  0.00000000000E+00 0. -1.
         -1    1    1    2    0  502 -0.29287400790E+02  0.21253584045E+02 -0.27821371194E+02  0.45645321501E+02  0.00000000000E+00 0.  1.
<scales pt_clust_5="13000.00000" pt_clust_6="13000.00000" pt_clust_7="13000.00000" pt_clust_8="13000.00000" pt_clust_9="60.12853" pt_clust_10="36.18655"></scales>
<clustering>
<clus scale="   36.187">  2 10  1 -1</clus>
<clus scale="   60.129">  2  9  1 -1</clus>
<clus scale="   87.331">  7  8 -1 -1</clus>
<clus scale="   96.963">  5  6 -1 -1</clus>
<clus scale="  119.649">  1  7  2 -1</clus>
<clus scale="   36.187">  2  5  1 -1</clus>
</clustering>
</event>
<event>
10    2  0.6640105E-006  0.2504345E+03  0.7546771E-02  0.1114743E+00
         21   -1    0    0  503  502  0.00000000000E+00  0.00000000000E+00  0.83052179230E+02  0.83052179230E+02  0.00000000000E+00 0. -1.
          2   -1    0    0  502    0 -0.00000000000E+00 -0.00000000000E+00 -0.14848207883E+04  0.14848207883E+04  0.00000000000E+00 0. -1.
         23    2    1    2    0    0  0.20480732419E+03 -0.23983913983E+00 -0.58896554213E+03  0.62812247338E+03  0.75573369574E+02 0.  0.
         23    2    1    2    0    0 -0.25888993212E+03 -0.51348558838E+02 -0.66896921422E+03  0.72670252761E+03  0.10448005839E+03 0.  0.
        -11    1    4    4    0    0 -0.22809571100E+02  0.26764260114E+02 -0.86266253397E+02  0.93158298763E+02  0.00000000000E+00 0.  1.
         11    1    4    4    0    0 -0.23608036102E+03 -0.78112818953E+02 -0.58270296083E+03  0.63354422884E+03  0.00000000000E+00 0. -1.
        -13    1    3    3    0    0  0.34412131271E+02  0.10396751833E+01 -0.37392294237E+02  0.50827742144E+02  0.00000000000E+00 0.  1.
         13    1    3    3    0    0  0.17039519292E+03 -0.12795143231E+01 -0.55157324789E+03  0.57729473124E+03  0.00000000000E+00 0. -1.
         21    1    1    2  503  501 -0.90195375166E+01  0.52586870690E+02  0.27809951462E+01  0.53427193076E+02  0.00000000000E+00 0. -1.
          2    1    1    2  501    0  0.63102145448E+02 -0.99847271133E+00 -0.14661484790E+03  0.15962077350E+03  0.00000000000E+00 0. -1.
<scales pt_clust_5="13000.00000" pt_clust_6="13000.00000" pt_clust_7="13000.00000" pt_clust_8="13000.00000" pt_clust_9="53.35477" pt_clust_10="62.25436"></scales>
<clustering>
<clus scale="   53.355">  1  9  2 -1</clus>
<clus scale="   62.254">  1 10  2 -1</clus>
<clus scale="   75.573">  7  8 -1 -1</clus>
<clus scale="  104.480">  5  6 -1 -1</clus>
<clus scale="  239.818">  2  7  1 -1</clus>
<clus scale="   53.355">  1  5  2 -1</clus>
</clustering>
</event>
<event>
10    2  0.6640105E-006  0.1186239E+03  0.7546771E-02  0.1245421E+00
          2   -1    0    0  503    0 -0.00000000000E+00  0.00000000000E+00  0.47747629177E+03  0.47747629177E+03  0.00000000000E+00 0. -1.
         21   -1    0    0  501  502  0.00000000000E+00 -0.00000000000E+00 -0.22317861126E+03  0.22317861126E+03  0.00000000000E+00 0. -1.
         23    2    1    2    0    0  0.39723634987E+02  0.96707736267E+01  0.26720612213E+03  0.28532498085E+03  0.91322187629E+02 0.  0.
         23    2    1    2    0    0 -0.75296515639E+02 -0.11049704779E+03  0.97054442561E+02  0.18883624469E+03  0.91435221058E+02 0.  0.
        -11    1    3    3    0    0  0.62121144972E+02 -0.14438313694E+02  0.20836549525E+03  0.21790750599E+03  0.00000000000E+00 0.  1.
         11    1    3    3    0    0 -0.22397509985E+02  0.24109087321E+02  0.58840626876E+02  0.67417474857E+02  0.00000000000E+00 0. -1.
        -11    1    4    4    0    0 -0.31004855650E+02 -0.69539829510E+02  0.18902521959E+01  0.76162077280E+02  0.00000000000E+00 0. -1.
         11    1    4    4    0    0 -0.44291659989E+02 -0.40957218282E+02  0.95164190365E+02  0.11267416741E+03  0.00000000000E+00 0.  1.
         21    1    1    2  503  502  0.44591927396E+01  0.43081592282E+02  0.42400323529E+02  0.60611017388E+02  0.00000000000E+00 0.  1.
          2    1    1    2  501    0  0.31113687912E+02  0.57744681884E+02 -0.15236320770E+03  0.16588266010E+03  0.00000000000E+00 0. -1.
<scales pt_clust_5="13000.00000" pt_clust_6="13000.00000" pt_clust_7="13000.00000" pt_clust_8="13000.00000" pt_clust_9="43.31175" pt_clust_10="66.22946"></scales>
<clustering>
<clus scale="   43.312">  1  9  2 -1</clus>
<clus scale="   66.229">  2 10  1 -1</clus>
<clus scale="   91.322">  5  6 -1 -1</clus>
<clus scale="   91.435">  7  8 -1 -1</clus>
<clus scale="  118.537">  1  5  2 -1</clus>
<clus scale="   66.229">  2  5  1 -1</clus>
</clustering>
</event>
<event>
10    2  0.6640105E-006  0.1175451E+03  0.7546771E-02  0.1249172E+00
         21   -1    0    0  503  502  0.00000000000E+00  0.00000000000E+00  0.41441801399E+03  0.41441801399E+03  0.00000000000E+00 0. -1.
         -1   -1    0    0    0  501 -0.00000000000E+00 -0.00000000000E+00 -0.10868935014E+03  0.10868935014E+03  0.00000000000E+00 0.  1.
         23    2    1    2    0    0  0.70574848931E+02 -0.19297335040E+02 -0.34215456563E+02  0.12287169451E+03  0.92593517060E+02 0.  0.
         23    2    1    2    0    0 -0.45863250549E+02 -0.11778261443E+02  0.93657449487E+02  0.14365169332E+03  0.98091416326E+02 0.  0.
        -11    1    3    3    0    0  0.81052531214E+02 -0.40798144866E+02 -0.14535872160E+02  0.91898275393E+02  0.00000000000E+00 0.  1.
         11    1    3    3    0    0 -0.10477682283E+02  0.21500809826E+02 -0.19679584403E+02  0.30973419112E+02  0.00000000000E+00 0. -1.
        -11    1    4    4    0    0  0.12843822080E+02 -0.33306415373E+02  0.66507634915E+02  0.75482094384E+02  0.00000000000E+00 0.  1.
         11    1    4    4    0    0 -0.58707072629E+02  0.21528153930E+02  0.27149814572E+02  0.68169598940E+02  0.00000000000E+00 0. -1.
         21    1    1    2  503  501 -0.31344286773E+02  0.19388680385E+01  0.19258077321E+03  0.19512451853E+03  0.00000000000E+00 0. -1.
         -1    1    1    2    0  502  0.66326883904E+01  0.29136728445E+02  0.53705897714E+02  0.61459457767E+02  0.00000000000E+00 0.  1.
<scales pt_clust_5="13000.00000" pt_clust_6="13000.00000" pt_clust_7="13000.00000" pt_clust_8="13000.00000" pt_clust_9="32.94315" pt_clust_10="29.88213"></scales>
<clustering>
<clus scale="   29.882">  1 10  2 -1</clus>
<clus scale="   32.943">  1  9  2 -1</clus>
<clus scale="   92.594">  5  6 -1 -1</clus>
<clus scale="   98.091">  7  8 -1 -1</clus>
<clus scale="  112.998">  2  5  1 -1</clus>
<clus scale="   29.882">  1  5  2 -1</clus>
</clustering>
</event>
<event>
10    2  0.6640105E-006  0.2263588E+03  0.7546771E-02  0.1129904E+00
          2   -1    0    0  503    0 -0.00000000000E+00  0.00000000000E+00  0.14659716433E+04  0.14659716433E+04  0.00000000000E+00 0. -1.
         21   -1    0    0  501  502  0.00000000000E+00 -0.00000000000E+00 -0.49046101673E+02  0.49046101673E+02  0.00000000000E+00 0. -1.
         23    2    1    2    0    0 -0.21190525774E+03 -0.61383314027E+02  0.77692506130E+03  0.81218698840E+03  0.85810277620E+02 0.  0.
         23    2    1    2    0    0  0.17352971800E+03  0.58030035217E+02  0.37972268345E+03  0.43209441796E+03  0.95059043164E+02 0.  0.
        -11    1    3    3    0    0 -0.15423711539E+03 -0.46578373307E+02  0.67666006541E+03  0.69557708182E+03  0.00000000000E+00 0. -1.
         11    1    3    3    0    0 -0.57668142356E+02 -0.14804940720E+02  0.10026499588E+03  0.11660990658E+03  0.00000000000E+00 0.  1.
        -11    1    4    4    0    0  0.47290462208E+02  0.61624793623E+02  0.11481956703E+03  0.13862732768E+03  0.00000000000E+00 0.  1.
         11    1    4    4    0    0  0.12623925579E+03 -0.35947584059E+01  0.26490311642E+03  0.29346709028E+03  0.00000000000E+00 0. -1.
         21    1    1    2  503  502  0.15544802724E+02 -0.16511311116E+02  0.25950476879E+02  0.34462900875E+02  0.00000000000E+00 0.  1.
          2    1    1    2  501    0  0.22830737020E+02  0.19864589925E+02  0.23432732001E+03  0.23627343776E+03  0.00000000000E+00 0. -1.
<scales pt_clust_5="13000.00000" pt_clust_6="13000.00000" pt_clust_7="13000.00000" pt_clust_8="13000.00000" pt_clust_9="22.67740" pt_clust_10="30.28626"></scales>
<clustering>
<clus scale="   22.677">  2  9  1 -1</clus>
<clus scale="   30.286">  2 10  1 -1</clus>
<clus scale="   85.810">  5  6 -1 -1</clus>
<clus scale="   95.059">  7  8 -1 -1</clus>
<clus scale="  222.633">  1  5  2 -1</clus>
<clus scale="   22.677">  2  5  1 -1</clus>
</clustering>
</event>
<event>
10    2  0.6640105E-006  0.1367493E+03  0.7546771E-02  0.1218272E+00
         21   -1    0    0  503  502  0.00000000000E+00  0.00000000000E+00  0.65941709888E+02  0.65941709888E+02  0.00000000000E+00 0.  1.
          2   -1    0    0  502    0 -0.00000000000E+00 -0.00000000000E+00 -0.67885554194E+03  0.67885554194E+03  0.00000000000E+00 0. -1.
         23    2    1    2    0    0  0.83675657964E+02 -0.49328971930E+02 -0.46981638587E+03  0.48841245269E+03  0.91565956039E+02 0.  0.
         23    2    1    2    0    0 -0.10980002773E+03  0.50363751942E+02 -0.10439739910E+03  0.18299064466E+03  0.89410320979E+02 0.  0.
        -11    1    3    3    0    0  0.34083195642E+02  0.25621495343E+02 -0.12480967370E+03  0.13189230417E+03  0.00000000000E+00 0.  1.
         11    1    3    3    0    0  0.49592462322E+02 -0.74950467274E+02 -0.34500671216E+03  0.35652014852E+03  0.00000000000E+00 0. -1.
        -13    1    4    4    0    0 -0.72435521662E+02  0.62331352720E+02 -0.32235468694E+02  0.10085250504E+03  0.00000000000E+00 0.  1.
         13    1    4    4    0    0 -0.37364506066E+02 -0.11967600778E+02 -0.72161930402E+02  0.82138139627E+02  0.00000000000E+00 0. -1.
         21    1    1    2  503  501 -0.56804445407E+01 -0.20074053642E+02 -0.15591309798E+01  0.20920467710E+02  0.00000000000E+00 0.  1.
          2    1    1    2  501    0  0.31804814304E+02  0.19039273631E+02 -0.37140916106E+02  0.52473686763E+02  0.00000000000E+00 0. -1.
<scales pt_clust_5="13000.00000" pt_clust_6="13000.00000" pt_clust_7="13000.00000" pt_clust_8="13000.00000" pt_clust_9="20.86229" pt_clust_10="35.05318"></scales>
<clustering>
<clus scale="   20.862">  1  9  2 -1</clus>
<clus scale="   35.053">  1 10  2 -1</clus>
<clus scale="   89.410">  7  8 -1 -1</clus>
<clus scale="   91.566">  5  6 -1 -1</clus>
<clus scale="  135.315">  1  7  2 -1</clus>
<clus scale="   20.862">  1  5  2 -1</clus>
</clustering>
</event>
<event>
10    2  0.6640105E-006  0.4098318E+03  0.7546771E-02  0.1040493E+00
         21   -1    0    0  501  502  0.00000000000E+00  0.00000000000E+00  0.14559868275E+04  0.14559868275E+04  0.00000000000E+00 0. -1.
          1   -1    0    0  503    0 -0.00000000000E+00 -0.00000000000E+00 -0.35051509317E+03  0.35051509317E+03  0.00000000000E+00 0. -1.
         23    2    1    2    0    0 -0.36249034218E+02 -0.46377008116E+03 -0.10559050222E+02  0.47388537455E+03  0.89772902431E+02 0.  0.
         23    2    1    2    0    0 -0.70013076978E+02  0.28583539505E+03  0.34664265398E+03  0.46418410681E+03  0.93284786794E+02 0.  0.
        -13    1    4    4    0    0 -0.19635914009E+02  0.76752196395E+02  0.37654800055E+02  0.87717459708E+02  0.00000000000E+00 0.  1.
         13    1    4    4    0    0 -0.50377162969E+02  0.20908319866E+03  0.30898785392E+03  0.37646664710E+03  0.00000000000E+00 0. -1.
        -13    1    3    3    0    0 -0.15766977989E+02 -0.39312797130E+03 -0.38238873231E+02  0.39529787609E+03  0.00000000000E+00 0. -1.
         13    1    3    3    0    0 -0.20482056230E+02 -0.70642109857E+02  0.27679823010E+02  0.78587498460E+02  0.00000000000E+00 0.  1.
         21    1    1    2  503  502  0.13407635145E+03  0.23549916680E+02  0.66781703128E+03  0.68155018440E+03  0.00000000000E+00 0. -1.
          1    1    1    2  501    0 -0.27814240255E+02  0.15438476942E+03  0.10157109930E+03  0.18688225492E+03  0.00000000000E+00 0. -1.
<scales pt_clust_5="13000.00000" pt_clust_6="13000.00000" pt_clust_7="13000.00000" pt_clust_8="13000.00000" pt_clust_9="136.12886" pt_clust_10="158.76160"></scales>
<clustering>
<clus scale="   89.773">  7  8 -1 -1</clus>
<clus scale="   93.285">  5  6 -1 -1</clus>
<clus scale="  136.129">  1  9  2 -1</clus>
<clus scale="  158.762">  1 10  2 -1</clus>
<clus scale="  409.047">  2  7  1 -1</clus>
<clus scale="  136.129">  1  5  2 -1</clus>
</clustering>
</event>
<event>
10    2  0.6640105E-006  0.1751040E+03  0.7546771E-02  0.1199057E+00
          2   -1    0    0  502    0 -0.00000000000E+00  0.00000000000E+00  0.10985115727E+04  0.10985115727E+04  0.00000000000E+00 0. -1.
         21   -1    0    0  503  502  0.00000000000E+00 -0.00000000000E+00 -0.13461518655E+03  0.13461518655E+03  0.00000000000E+00 0. -1.
         23    2    1    2    0    0  0.21272628178E+02  0.23593892326E+02  0.22823246088E+03  0.24755780981E+03  0.90474397127E+02 0.  0.
         23    2    1    2    0    0 -0.14675328758E+03 -0.11467420585E+03  0.77825614657E+03  0.80548598487E+03  0.91860444382E+02 0.  0.
        -11    1    4    4    0    0 -0.99081903191E+01 -0.58826316546E+02  0.20779099150E+03  0.21618465232E+03  0.00000000000E+00 0. -1.
         11    1    4    4    0    0 -0.13684509726E+03 -0.55847889306E+02  0.57046515508E+03  0.58930133255E+03  0.00000000000E+00 0.  1.
        -13    1    3    3    0    0  0.57002007776E+01 -0.30239018694E+02  0.36179460728E+02  0.47495725271E+02  0.00000000000E+00 0.  1.
         13    1    3    3    0    0  0.15572427401E+02  0.53832911019E+02  0.19205300015E+03  0.20006208454E+03  0.00000000000E+00 0. -1.
         21    1    1    2  503  501  0.36309309668E+02  0.10328604315E+02 -0.46282357062E+02  0.59725225917E+02  0.00000000000E+00 0. -1.
          2    1    1    2  501    0  0.89171349735E+02  0.80751709211E+02  0.36901357731E+01  0.12035773866E+03  0.00000000000E+00 0. -1.
<scales pt_clust_5="13000.00000" pt_clust_6="13000.00000" pt_clust_7="13000.00000" pt_clust_8="13000.00000" pt_clust_9="37.74978" pt_clust_10="149.07403"></scales>
<clustering>
<clus scale="   37.750">  2  9  1 -1</clus>
<clus scale="   90.474">  7  8 -1 -1</clus>
<clus scale="   91.860">  5  6 -1 -1</clus>
<clus scale="   97.239">  1  7  2 -1</clus>
<clus scale="  149.074">  2 10  1 -1</clus>
<clus scale="   37.750">  2  5  1 -1</clus>
</clustering>
</event>
<event>
10    2  0.6640105E-006  0.1437690E+03  0.7546771E-02  0.1209492E+00
          1   -1    0    0  503    0 -0.00000000000E+00  0.00000000000E+00  0.80193085044E+02  0.80193085044E+02  0.00000000000E+00 0. -1.
         21   -1    0    0  501  502  0.00000000000E+00 -0.00000000000E+00 -0.60431653741E+03  0.60431653741E+03  0.00000000000E+00 0. -1.
         23    2    1    2    0    0 -0.11214534589E+03 -0.29171300660E+01 -0.54277577901E+02  0.15192212403E+03  0.86886063642E+02 0.  0.
         23    2    1    2    0    0  0.10446716547E+03 -0.25009547996E+02 -0.25405961046E+03  0.29090178722E+03  0.92405075559E+02 0.  0.
        -13    1    3    3    0    0 -0.16750193853E+02 -0.32341927252E+02  0.34798198145E+01  0.36587954280E+02  0.00000000000E+00 0.  1.
         13    1    3    3    0    0 -0.95395152037E+02  0.29424797186E+02 -0.57757397716E+02  0.11533416975E+03  0.00000000000E+00 0. -1.
        -13    1    4    4    0    0  0.82999594011E+02 -0.56495091705E+02 -0.20916601307E+03  0.23201519134E+03  0.00000000000E+00 0. -1.
         13    1    4    4    0    0  0.21467571463E+02  0.31485543709E+02 -0.44893597396E+02  0.58886595880E+02  0.00000000000E+00 0.  1.
         21    1    1    2  503  502 -0.33385552968E+02 -0.21248243113E+02 -0.12077133937E+03  0.12708972970E+03  0.00000000000E+00 0. -1.
          1    1    1    2  501    0  0.41063733384E+02  0.49174921175E+02 -0.95014924630E+02  0.11459598149E+03  0.00000000000E+00 0. -1.
<scales pt_clust_5="13000.00000" pt_clust_6="13000.00000" pt_clust_7="13000.00000" pt_clust_8="13000.00000" pt_clust_9="39.57377" pt_clust_10="55.90019"></scales>
<clustering>
<clus scale="   39.574">  2  9  1 -1</clus>
<clus scale="   55.900">  2 10  1 -1</clus>
<clus scale="   86.886">  5  6 -1 -1</clus>
<clus scale="   92.405">  7  8 -1 -1</clus>
<clus scale="  140.285">  1  5  2 -1</clus>
<clus scale="   39.574">  2  5  1 -1</clus>
</clustering>
</event>
<event>
10    2  0.6640105E-006  0.1732556E+03  0.7546771E-02  0.1174625E+00
          2   -1    0    0  502    0 -0.00000000000E+00  0.00000000000E+00  0.48090810720E+03  0.48090810720E+03  0.00000000000E+00 0. -1.
         21   -1    0    0  503  502  0.00000000000E+00 -0.00000000000E+00 -0.17831140061E+03  0.17831140061E+03  0.00000000000E+00 0. -1.
         23    2    1    2    0    0  0.13888665136E+03  0.52466299049E+02  0.28219910785E+03  0.33207997339E+03  0.92728408749E+02 0.  0.
         23    2    1    2    0    0 -0.14160909881E+03 -0.25546652470E+02  0.10460298283E+03  0.20017231030E+03  0.91768194261E+02 0.  0.
        -11    1    3    3    0    0  0.68377901549E+02 -0.18248141797E+02  0.81705548477E+02  0.10809407362E+03  0.00000000000E+00 0.  1.
         11    1    3    3    0    0  0.70508749815E+02  0.70714440847E+02  0.20049355937E+03  0.22398589977E+03  0.00000000000E+00 0. -1.
        -11    1    4    4    0    0 -0.98746553657E+02  0.27442078268E+02  0.64459205161E+02  0.12107410396E+03  0.00000000000E+00 0. -1.
         11    1    4    4    0    0 -0.42862545154E+02 -0.52988730738E+02  0.40143777666E+02  0.79098206349E+02  0.00000000000E+00 0.  1.
         21    1    1    2  503  501 -0.23278874760E+02 -0.11830155879E+02 -0.92227341408E+02  0.95852705238E+02  0.00000000000E+00 0. -1.
          2    1    1    2  501    0  0.26001322206E+02 -0.15089490700E+02  0.80219573196E+01  0.31114518882E+02  0.00000000000E+00 0. -1.
<scales pt_clust_5="13000.00000" pt_clust_6="13000.00000" pt_clust_7="13000.00000" pt_clust_8="13000.00000" pt_clust_9="26.11242" pt_clust_10="28.27747"></scales>
<clustering>
<clus scale="   26.112">  2  9  1 -1</clus>
<clus scale="   28.277">  2 10  1 -1</clus>
<clus scale="   91.768">  7  8 -1 -1</clus>
<clus scale="   92.728">  5  6 -1 -1</clus>
<clus scale="  172.744">  2  7  1 -1</clus>
<clus scale="   26.112">  2  5  1 -1</clus>
</clustering>
</event>
<event>
10    2  0.6640105E-006  0.2330379E+03  0.7546771E-02  0.1154982E+00
          3   -1    0    0  502    0 -0.00000000000E+00  0.00000000000E+00  0.41001869107E+03  0.41001869107E+03  0.00000000000E+00 0. -1.
         21   -1    0    0  503  502  0.00000000000E+00 -0.00000000000E+00 -0.70362024295E+03  0.70362024295E+03  0.00000000000E+00 0. -1.
         23    2    1    2    0    0 -0.65671918234E+02  0.15372903869E+02  0.14037367010E+03  0.17940144722E+03  0.89056077776E+02 0.  0.
         23    2    1    2    0    0 -0.41972613231E+02 -0.16925924037E+03  0.27177735584E+02  0.19857499077E+03  0.91011026468E+02 0.  0.
        -11    1    4    4    0    0  0.16975403410E+02 -0.97913453170E+02  0.35801050177E+02  0.10562634059E+03  0.00000000000E+00 0.  1.
         11    1    4    4    0    0 -0.58948016641E+02 -0.71345787195E+02 -0.86233145930E+01  0.92948650184E+02  0.00000000000E+00 0. -1.
        -13    1    3    3    0    0 -0.84981636556E+02 -0.29479225505E+01  0.10428505059E+03  0.13455831664E+03  0.00000000000E+00 0.  1.
         13    1    3    3    0    0  0.19309718322E+02  0.18320826419E+02  0.36088619509E+02  0.44843130583E+02  0.00000000000E+00 0. -1.
         21    1    1    2  503  501 -0.11405146722E+03 -0.45288091447E+02 -0.41663339670E+03  0.43432952426E+03  0.00000000000E+00 0. -1.
          3    1    1    2  501    0  0.22169599868E+03  0.19917442794E+03 -0.44519560866E+02  0.30133297177E+03  0.00000000000E+00 0. -1.
<scales pt_clust_5="13000.00000" pt_clust_6="13000.00000" pt_clust_7="13000.00000" pt_clust_8="13000.00000" pt_clust_9="124.67992" pt_clust_10="214.53128"></scales>
<clustering>
<clus scale="   89.056">  7  8 -1 -1</clus>
<clus scale="   91.011">  5  6 -1 -1</clus>
<clus scale="  111.714">  1  7  2 -1</clus>
<clus scale="  124.680">  2  9  1 -1</clus>
<clus scale="  214.531">  2 10  1 -1</clus>
<clus scale="  124.680">  2  5  1 -1</clus>
</clustering>
</event>
<event>
10    2  0.6640105E-006  0.9546409E+02  0.7546771E-02  0.1290219E+00
         21   -1    0    0  503  502  0.00000000000E+00  0.00000000000E+00  0.90456473766E+02  0.90456473766E+02  0.00000000000E+00 0.  1.
          2   -1    0    0  502    0 -0.00000000000E+00 -0.00000000000E+00 -0.42507455457E+03  0.42507455457E+03  0.00000000000E+00 0. -1.
         23    2    1    2    0    0 -0.11382109623E+02  0.13776506545E+02 -0.13355276045E+03  0.16287021274E+03  0.91493288397E+02 0.  0.
         23    2    1    2    0    0 -0.50106645572E+02 -0.33357428981E+02 -0.13368619119E+03  0.17290282464E+03  0.91651486932E+02 0.  0.
        -13    1    3    3    0    0 -0.35332616785E+02  0.10856426183E+02 -0.11875402113E+02  0.38823716639E+02  0.00000000000E+00 0. -1.
         13    1    3    3    0    0  0.23950507163E+02  0.29200803627E+01 -0.12167735833E+03  0.12404649610E+03  0.00000000000E+00 0.  1.
        -13    1    4    4    0    0 -0.27673416171E+01  0.30239226498E+02 -0.36347929173E+02  0.47362864715E+02  0.00000000000E+00 0. -1.
         13    1    4    4    0    0 -0.47339303955E+02 -0.63596655479E+02 -0.97338262012E+02  0.12553995993E+03  0.00000000000E+00 0.  1.
         21    1    1    2  503  501 -0.23390310202E+02 -0.39745550009E+02  0.13840833608E+02  0.48149600536E+02  0.00000000000E+00 0.  1.
          2    1    1    2  501    0  0.84879065397E+02  0.59326472445E+02 -0.81219962780E+02  0.13160839042E+03  0.00000000000E+00 0. -1.
<scales pt_clust_5="13000.00000" pt_clust_6="13000.00000" pt_clust_7="13000.00000" pt_clust_8="13000.00000" pt_clust_9="46.11741" pt_clust_10="86.17029"></scales>
<clustering>
<clus scale="   46.117">  1  9  2 -1</clus>
<clus scale="   86.170">  1 10  2 -1</clus>
<clus scale="   91.493">  5  6 -1 -1</clus>
<clus scale="   91.651">  7  8 -1 -1</clus>
<clus scale="   95.312">  2  5  1 -1</clus>
<clus scale="   46.117">  1  5  2 -1</clus>
</clustering>
</event>
<event>
10    2  0.6640105E-006  0.1658627E+03  0.7546771E-02  0.1210483E+00
         -2   -1    0    0    0  501 -0.00000000000E+00  0.00000000000E+00  0.39419948452E+03  0.39419948452E+03  0.00000000000E+00 0.  1.
         21   -1    0    0  503  502  0.00000000000E+00 -0.00000000000E+00 -0.54303807885E+03  0.54303807885E+03  0.00000000000E+00 0.  1.
         23    2    1    2    0    0  0.24377659859E+01 -0.10218360494E+02  0.16132088774E+03  0.18444359383E+03  0.88795567959E+02 0.  0.
         23    2    1    2    0    0 -0.12900313421E+03 -0.33090490447E+02  0.15778071833E+03  0.22552013592E+03  0.90707152068E+02 0.  0.
        -13    1    3    3    0    0  0.11752245936E+02  0.37198461800E+02  0.92128518642E+02  0.10004751267E+03  0.00000000000E+00 0. -1.
         13    1    3    3    0    0 -0.93144799503E+01 -0.47416822293E+02  0.69192369095E+02  0.84396081154E+02  0.00000000000E+00 0.  1.
        -13    1    4    4    0    0 -0.91788450935E+02 -0.15447830423E+02  0.41035734918E+02  0.10172358001E+03  0.00000000000E+00 0.  1.
         13    1    4    4    0    0 -0.37214683274E+02 -0.17642660024E+02  0.11674498341E+03  0.12379655591E+03  0.00000000000E+00 0. -1.
         21    1    1    2  503  501 -0.31940317125E+02 -0.12794255552E+02 -0.24825213675E+03  0.25062521867E+03  0.00000000000E+00 0.  1.
         -2    1    1    2    0  502  0.15850568535E+03  0.56103106493E+02 -0.21968806365E+03  0.27664861495E+03  0.00000000000E+00 0.  1.
<scales pt_clust_5="13000.00000" pt_clust_6="13000.00000" pt_clust_7="13000.00000" pt_clust_8="13000.00000" pt_clust_9="34.40751" pt_clust_10="138.86201"></scales>
<clustering>
<clus scale="   34.408">  2  9  1 -1</clus>
<clus scale="   88.796">  5  6 -1 -1</clus>
<clus scale="   89.448">  1  5  2 -1</clus>
<clus scale="   90.707">  7  8 -1 -1</clus>
<clus scale="  138.862">  2 10  1 -1</clus>
<clus scale="   34.408">  2  5  1 -1</clus>
</clustering>
</event>
<event>
10    2  0.6640105E-006  0.1604885E+03  0.7546771E-02  0.1189430E+00
          2   -1    0    0  503    0 -0.00000000000E+00  0.00000000000E+00  0.83140919897E+03  0.83140919897E+03  0.00000000000E+00 0. -1.
         21   -1    0    0  501  502  0.00000000000E+00 -0.00000000000E+00 -0.51430469899E+02  0.51430469899E+02  0.00000000000E+00 0.  1.
         23    2    1    2    0    0 -0.15567675494E+02  0.12750298050E+03  0.42707336193E+03  0.45522608614E+03  0.91322343780E+02 0.  0.
         23    2    1    2    0    0  0.13922073184E+02 -0.13584617408E+03  0.33165787188E+03  0.36818610638E+03  0.83162839166E+02 0.  0.
        -11    1    4    4    0    0  0.45198952135E+02 -0.10671107482E+03  0.26156110476E+03  0.28608462085E+03  0.00000000000E+00 0.  1.
         11    1    4    4    0    0 -0.31276878951E+02 -0.29135099260E+02  0.70096767118E+02  0.82101485530E+02  0.00000000000E+00 0. -1.
        -11    1    3    3    0    0 -0.25662929821E+02  0.46285374213E+01  0.14587863077E+03  0.14819103968E+03  0.00000000000E+00 0. -1.
         11    1    3    3    0    0  0.10095254328E+02  0.12287444308E+03  0.28119473116E+03  0.30703504646E+03  0.00000000000E+00 0.  1.
         21    1    1    2  503  502 -0.23688372774E+02 -0.38298753263E+01 -0.32202224117E+00  0.23998138428E+02  0.00000000000E+00 0.  1.
          2    1    1    2  501    0  0.25333975083E+02  0.12173068906E+02  0.21569517505E+02  0.35429337921E+02  0.00000000000E+00 0. -1.
<scales pt_clust_5="13000.00000" pt_clust_6="13000.00000" pt_clust_7="13000.00000" pt_clust_8="13000.00000" pt_clust_9="23.99598" pt_clust_10="24.07630"></scales>
<clustering>
<clus scale="   23.996">  2  9  1 -1</clus>
<clus scale="   24.076">  2 10  1 -1</clus>
<clus scale="   83.163">  5  6 -1 -1</clus>
<clus scale="   91.322">  7  8 -1 -1</clus>
<clus scale="  155.990">  2  5  1 -1</clus>
<clus scale="   23.996">  2  5  1 -1</clus>
</clustering>
</event>
<event>
10    2  0.6640105E-006  0.1508093E+03  0.7546771E-02  0.1199551E+00
          2   -1    0    0  503    0 -0.00000000000E+00  0.00000000000E+00  0.11092648929E+04  0.11092648929E+04  0.00000000000E+00 0. -1.
         21   -1    0    0  501  502  0.00000000000E+00 -0.00000000000E+00 -0.65502526265E+02  0.65502526265E+02  0.00000000000E+00 0. -1.
         23    2    1    2    0    0 -0.33917022382E+02 -0.14610316145E+03  0.61564382014E+03  0.64014590183E+03  0.90955836344E+02 0.  0.
         23    2    1    2    0    0 -0.48680887301E+02  0.91738738150E+02  0.35106798006E+03  0.37732704648E+03  0.91329888403E+02 0.  0.
        -11    1    3    3    0    0  0.27476306438E+02 -0.20655032799E+02  0.92531327884E+02  0.98709799085E+02  0.00000000000E+00 0.  1.
         11    1    3    3    0    0 -0.61393328821E+02 -0.12544812865E+03  0.52311249225E+03  0.54143610275E+03  0.00000000000E+00 0. -1.
        -11    1    4    4    0    0 -0.68538878653E+02  0.87997278185E+02  0.32905534792E+03  0.34744570921E+03  0.00000000000E+00 0.  1.
         11    1    4    4    0    0  0.19857991352E+02  0.37414599651E+01  0.22012632143E+02  0.29881337270E+02  0.00000000000E+00 0. -1.
         21    1    1    2  503  502 -0.88747587850E+01 -0.18280326356E+02  0.11387808822E+02  0.23294073601E+02  0.00000000000E+00 0. -1.
          2    1    1    2  501    0  0.91472668469E+02  0.72644749659E+02  0.65662757640E+02  0.13400039728E+03  0.00000000000E+00 0. -1.
<scales pt_clust_5="13000.00000" pt_clust_6="13000.00000" pt_clust_7="13000.00000" pt_clust_8="13000.00000" pt_clust_9="20.32072" pt_clust_10="106.41855"></scales>
<clustering>
<clus scale="   20.321">  2  9  1 -1</clus>
<clus scale="   90.956">  5  6 -1 -1</clus>
<clus scale="   91.330">  7  8 -1 -1</clus>
<clus scale="  106.419">  2 10  1 -1</clus>
<clus scale="  150.583">  1  5  2 -1</clus>
<clus scale="   20.321">  2  5  1 -1</clus>
</clustering>
</event>
<event>
10    2  0.6640105E-006  0.1752271E+03  0.7546771E-02  0.1193433E+00
         21   -1    0    0  503  502  0.00000000000E+00  0.00000000000E+00  0.77733152101E+02  0.77733152101E+02  0.00000000000E+00 0.  1.
         -1   -1    0    0    0  501 -0.00000000000E+00 -0.00000000000E+00 -0.11177806795E+04  0.11177806795E+04  0.00000000000E+00 0.  1.
         23    2    1    2    0    0  0.55951198388E+02  0.22015927948E+02 -0.23349999918E+03  0.25947270454E+03  0.95857170331E+02 0.  0.
         23    2    1    2    0    0 -0.42129733718E+02 -0.16110502510E+03 -0.67454155371E+03  0.70078887184E+03  0.91482193015E+02 0.  0.
        -11    1    3    3    0    0  0.76738728039E+02  0.38240414511E+02 -0.19241917620E+03  0.21065683244E+03  0.00000000000E+00 0.  1.
         11    1    3    3    0    0 -0.20787529650E+02 -0.16224486563E+02 -0.41080822971E+02  0.48815872103E+02  0.00000000000E+00 0. -1.
        -13    1    4    4    0    0 -0.10009392441E+02 -0.15733383190E+03 -0.55804503165E+03  0.57988652334E+03  0.00000000000E+00 0.  1.
         13    1    4    4    0    0 -0.32120341276E+02 -0.37711931986E+01 -0.11649652206E+03  0.12090234850E+03  0.00000000000E+00 0. -1.
         21    1    1    2  503  501 -0.31063898711E+02 -0.18466888461E+02 -0.27336396779E+02  0.45313026399E+02  0.00000000000E+00 0. -1.
         -1    1    1    2    0  502  0.17242434041E+02  0.15755598561E+03 -0.10466957769E+03  0.18993922878E+03  0.00000000000E+00 0.  1.
<scales pt_clust_5="13000.00000" pt_clust_6="13000.00000" pt_clust_7="13000.00000" pt_clust_8="13000.00000" pt_clust_9="36.13851" pt_clust_10="149.45082"></scales>
<clustering>
<clus scale="   36.139">  1  9  2 -1</clus>
<clus scale="   91.482">  7  8 -1 -1</clus>
<clus scale="   95.857">  5  6 -1 -1</clus>
<clus scale="  109.728">  2  5  1 -1</clus>
<clus scale="  149.451">  1 10  2 -1</clus>
<clus scale="   36.139">  1  5  2 -1</clus>
</clustering>
</event>
<event>
10    2  0.6640105E-006  0.2596259E+03  0.7546771E-02  0.1142048E+00
         -2   -1    0    0    0  501 -0.00000000000E+00  0.00000000000E+00  0.23450225037E+03  0.23450225037E+03  0.00000000000E+00 0.  1.
         21   -1    0    0  503  502  0.00000000000E+00 -0.00000000000E+00 -0.85720195747E+03  0.85720195747E+03  0.00000000000E+00 0.  1.
         23    2    1    2    0    0  0.16740642302E+02  0.59944589737E+02  0.11712052977E+03  0.16099347852E+03  0.91258307512E+02 0.  0.
         23    2    1    2    0    0  0.20370658433E+03 -0.10977047519E+03 -0.35595925453E+03  0.43461150276E+03  0.92920599020E+02 0.  0.
        -11    1    4    4    0    0  0.10707133181E+03 -0.66316543401E+02 -0.27087163880E+03  0.29871993360E+03  0.00000000000E+00 0.  1.
         11    1    4    4    0    0  0.96635252524E+02 -0.43453931790E+02 -0.85087615732E+02  0.13589156916E+03  0.00000000000E+00 0. -1.
        -11    1    3    3    0    0 -0.56643925436E+01 -0.19765431668E+02  0.51146075936E+02  0.55124211700E+02  0.00000000000E+00 0. -1.
         11    1    3    3    0    0  0.22405034845E+02  0.79710021405E+02  0.65974453833E+02  0.10586926682E+03  0.00000000000E+00 0.  1.
         21    1    1    2  503  501  0.12690797405E+02 -0.40438449525E+02 -0.14223481282E+03  0.14841518291E+03  0.00000000000E+00 0.  1.
         -2    1    1    2    0  502 -0.23313802404E+03  0.90264334979E+02 -0.24162616952E+03  0.34768404366E+03  0.00000000000E+00 0.  1.
<scales pt_clust_5="13000.00000" pt_clust_6="13000.00000" pt_clust_7="13000.00000" pt_clust_8="13000.00000" pt_clust_9="42.38307" pt_clust_10="242.42818"></scales>
<clustering>
<clus scale="   42.383">  2  9  1 -1</clus>
<clus scale="   91.258">  7  8 -1 -1</clus>
<clus scale="   92.921">  5  6 -1 -1</clus>
<clus scale="  109.850">  1  7  2 -1</clus>
<clus scale="  242.428">  2 10  1 -1</clus>
<clus scale="   42.383">  2  5  1 -1</clus>
</clustering>
</event>
<event>
10    2  0.6640105E-006  0.9257818E+02  0.7546771E-02  0.1297421E+00
         -1   -1    0    0    0  501 -0.00000000000E+00  0.00000000000E+00  0.25287546489E+03  0.25287546489E+03  0.00000000000E+00 0.  1.
         21   -1    0    0  503  502  0.00000000000E+00 -0.00000000000E+00 -0.25380352291E+03  0.25380352291E+03  0.00000000000E+00 0.  1.
         23    2    1    2    0    0  0.20989223877E+02 -0.21254036623E+01  0.13452552637E+03  0.16361999695E+03  0.90715606695E+02 0.  0.
         23    2    1    2    0    0  0.49766207286E+01  0.50651202885E+01  0.75421477500E+02  0.11910540656E+03  0.91909065960E+02 0.  0.
        -13    1    4    4    0    0  0.54195888784E+01  0.40988417144E+02  0.71507470353E+01  0.41958973614E+02  0.00000000000E+00 0.  1.
         13    1    4    4    0    0 -0.44296814985E+00 -0.35923296856E+02  0.68270730465E+02  0.77146432944E+02  0.00000000000E+00 0. -1.
        -13    1    3    3    0    0  0.38962527360E+02  0.34657894793E+02  0.78022731035E+02  0.93844524443E+02  0.00000000000E+00 0.  1.
         13    1    3    3    0    0 -0.17973303483E+02 -0.36783298455E+02  0.56502795330E+02  0.69775472506E+02  0.00000000000E+00 0. -1.
         21    1    1    2  503  501  0.22192978687E+02 -0.12734838797E+02 -0.87045582746E+02  0.90728374271E+02  0.00000000000E+00 0.  1.
         -1    1    1    2    0  502 -0.48158823293E+02  0.97951221709E+01 -0.12382947914E+03  0.13322521002E+03  0.00000000000E+00 0.  1.
<scales pt_clust_5="13000.00000" pt_clust_6="13000.00000" pt_clust_7="13000.00000" pt_clust_8="13000.00000" pt_clust_9="25.58719" pt_clust_10="30.86305"></scales>
<clustering>
<clus scale="   25.587">  2  9  1 -1</clus>
<clus scale="   30.863">  2 10  1 -1</clus>
<clus scale="   90.716">  7  8 -1 -1</clus>
<clus scale="   91.393">  1  7  2 -1</clus>
<clus scale="   91.909">  5  6 -1 -1</clus>
<clus scale="   25.587">  2  5  1 -1</clus>
</clustering>
</event>
<event>
10    2  0.6640105E-006  0.1847477E+03  0.7546771E-02  0.1178250E+00
         21   -1    0    0  501  502  0.00000000000E+00  0.00000000000E+00  0.22924099604E+03  0.22924099604E+03  0.00000000000E+00 0. -1.
          1   -1    0    0  503    0 -0.00000000000E+00 -0.00000000000E+00 -0.87780161992E+03  0.87780161992E+03  0.00000000000E+00 0. -1.
         23    2    1    2    0    0  0.77475903920E+02  0.44649740983E+02 -0.38200898164E+03  0.40351658971E+03  0.94332714694E+02 0.  0.
         23    2    1    2    0    0 -0.17525612152E+03  0.38440516608E+02 -0.28738971516E+03  0.35031325047E+03  0.89073810000E+02 0.  0.
        -13    1    3    3    0    0  0.66654764098E+02 -0.15711074520E+02 -0.19104616235E+03  0.20294908620E+03  0.00000000000E+00 0. -1.
         13    1    3    3    0    0  0.10821139822E+02  0.60360815503E+02 -0.19096281929E+03  0.20056750352E+03  0.00000000000E+00 0.  1.
        -13    1    4    4    0    0 -0.37018476120E+02  0.43171119865E+02 -0.50786448890E+02  0.76245501871E+02  0.00000000000E+00 0.  1.
         13    1    4    4    0    0 -0.13823764540E+03 -0.47306032564E+01 -0.23660326627E+03  0.27406774860E+03  0.00000000000E+00 0. -1.
         21    1    1    2  503  502 -0.34497460226E+02  0.95555521336E+02  0.72737919972E+02  0.12494693842E+03  0.00000000000E+00 0. -1.
          1    1    1    2  501    0  0.13227767783E+03 -0.17864577893E+03 -0.51899847058E+02  0.22826583736E+03  0.00000000000E+00 0. -1.
<scales pt_clust_5="13000.00000" pt_clust_6="13000.00000" pt_clust_7="13000.00000" pt_clust_8="13000.00000" pt_clust_9="101.59199" pt_clust_10="161.85665"></scales>
<clustering>
<clus scale="   89.074">  7  8 -1 -1</clus>
<clus scale="   94.333">  5  6 -1 -1</clus>
<clus scale="  101.592">  1  9  2 -1</clus>
<clus scale="  131.255">  2  5  1 -1</clus>
<clus scale="  161.857">  1 10  2 -1</clus>
<clus scale="  101.592">  1  5  2 -1</clus>
</clustering>
</event>
<event>
10    2  0.6640105E-006  0.1191161E+03  0.7546771E-02  0.1245260E+00
         21   -1    0    0  503  502  0.00000000000E+00  0.00000000000E+00  0.17082762302E+03  0.17082762302E+03  0.00000000000E+00 0. -1.
         -1   -1    0    0    0  501 -0.00000000000E+00 -0.00000000000E+00 -0.73540052408E+03  0.73540052408E+03  0.00000000000E+00 0.  1.
         23    2    1    2    0    0 -0.77113734182E+02  0.31123652114E+02 -0.35567901199E+03  0.37698738466E+03  0.93256200331E+02 0.  0.
         23    2    1    2    0    0  0.42315457708E+02 -0.55306827569E+02 -0.26436447059E+03  0.28816947324E+03  0.91124249593E+02 0.  0.
        -11    1    3    3    0    0 -0.38772481500E+02 -0.20980443882E+02 -0.24378458633E+03  0.24773858981E+03  0.00000000000E+00 0.  1.
         11    1    3    3    0    0 -0.38341252682E+02  0.52104095996E+02 -0.11189442567E+03  0.12924879486E+03  0.00000000000E+00 0. -1.
        -11    1    4    4    0    0 -0.21746188816E+02  0.67867379311E+01 -0.82697160860E+02  0.85777485123E+02  0.00000000000E+00 0.  1.
         11    1    4    4    0    0  0.64061646524E+02 -0.62093565500E+02 -0.18166730973E+03  0.20239198812E+03  0.00000000000E+00 0. -1.
         21    1    1    2  503  501  0.11912972226E+03 -0.42416245418E+02  0.39173510334E+02  0.13238426082E+03  0.00000000000E+00 0. -1.
         -1    1    1    2    0  502 -0.84331445787E+02  0.66599420873E+02  0.16297071188E+02  0.10868702838E+03  0.00000000000E+00 0.  1.
<scales pt_clust_5="13000.00000" pt_clust_6="13000.00000" pt_clust_7="13000.00000" pt_clust_8="13000.00000" pt_clust_9="53.36373" pt_clust_10="107.45825"></scales>
<clustering>
<clus scale="   91.124">  7  8 -1 -1</clus>
<clus scale="   93.256">  5  6 -1 -1</clus>
<clus scale="  107.458">  1 10  2 -1</clus>
<clus scale="   53.364">  1  9  2 -1</clus>
<clus scale="  117.454">  1  7  2 -1</clus>
<clus scale="  107.458">  1  5  2 -1</clus>
</clustering>
</event>
<event>
10    2  0.6640105E-006  0.2089529E+03  0.7546771E-02  0.1162949E+00
         21   -1    0    0  501  502  0.00000000000E+00  0.00000000000E+00  0.31871322274E+03  0.31871322274E+03  0.00000000000E+00 0. -1.
          2   -1    0    0  503    0 -0.00000000000E+00 -0.00000000000E+00 -0.88402381467E+03  0.88402381467E+03  0.00000000000E+00 0. -1.
         23    2    1    2    0    0 -0.87754971688E+02  0.29975250846E+02 -0.51892307694E+03  0.53485926598E+03  0.90519743186E+02 0.  0.
         23    2    1    2    0    0  0.18154790423E+02  0.15214099402E+03 -0.54375062797E+02  0.18672113047E+03  0.91824041690E+02 0.  0.
        -11    1    3    3    0    0 -0.63903432300E+02  0.58569110310E+02 -0.42645222281E+03  0.43517293997E+03  0.00000000000E+00 0. -1.
         11    1    3    3    0    0 -0.23851539387E+02 -0.28593859464E+02 -0.92470854129E+02  0.99686326011E+02  0.00000000000E+00 0.  1.
        -11    1    4    4    0    0  0.48643324273E+02  0.78981622810E+02 -0.54258803268E+02  0.10746295860E+03  0.00000000000E+00 0. -1.
         11    1    4    4    0    0 -0.30488533850E+02  0.73159371215E+02 -0.11625952932E+00  0.79258171876E+02  0.00000000000E+00 0.  1.
         21    1    1    2  503  502  0.36858361842E+02  0.42051702783E+02  0.18524757490E+03  0.19350335539E+03  0.00000000000E+00 0. -1.
          2    1    1    2  501    0  0.32741819423E+02 -0.22416794765E+03 -0.17726002708E+03  0.28765328556E+03  0.00000000000E+00 0. -1.
<scales pt_clust_5="13000.00000" pt_clust_6="13000.00000" pt_clust_7="13000.00000" pt_clust_8="13000.00000" pt_clust_9="55.91855" pt_clust_10="187.69572"></scales>
<clustering>
<clus scale="   55.919">  1  9  2 -1</clus>
<clus scale="   90.520">  5  6 -1 -1</clus>
<clus scale="   91.824">  7  8 -1 -1</clus>
<clus scale="  128.693">  2  5  1 -1</clus>
<clus scale="  187.696">  1 10  2 -1</clus>
<clus scale="   55.919">  1  5  2 -1</clus>
</clustering>
</event>
<event>
10    2  0.6640105E-006  0.5161610E+03  0.7546771E-02  0.1023409E+00
          2   -1    0    0  503    0 -0.00000000000E+00  0.00000000000E+00  0.28883086794E+04  0.28883086794E+04  0.00000000000E+00 0. -1.
         21   -1    0    0  501  502  0.00000000000E+00 -0.00000000000E+00 -0.24993452489E+03  0.24993452489E+03  0.00000000000E+00 0.  1.
         23    2    1    2    0    0 -0.70225359101E+02  0.28497547251E+03  0.57329282489E+03  0.65051833387E+03  0.91470315626E+02 0.  0.
         23    2    1    2    0    0 -0.28505966188E+03 -0.56810884213E+03  0.84900361918E+03  0.10648018116E+04  0.94810787041E+02 0.  0.
        -11    1    4    4    0    0 -0.25987492738E+03 -0.47401979474E+03  0.66875900716E+03  0.85992345784E+03  0.00000000000E+00 0.  1.
         11    1    4    4    0    0 -0.25184734499E+02 -0.94089047390E+02  0.18024461202E+03  0.20487835379E+03  0.00000000000E+00 0. -1.
        -11    1    3    3    0    0 -0.38034922894E+02  0.39527055187E+02  0.64300525292E+02  0.84519826101E+02  0.00000000000E+00 0.  1.
         11    1    3    3    0    0 -0.32190436207E+02  0.24544841733E+03  0.50899229960E+03  0.56599850777E+03  0.00000000000E+00 0. -1.
         21    1    1    2  503  502 -0.78421441282E+02  0.14797031384E+03  0.55208108138E+02  0.17633227565E+03  0.00000000000E+00 0.  1.
          2    1    1    2  501    0  0.43370646226E+03  0.13516305578E+03  0.11608696023E+04  0.12465907832E+04  0.00000000000E+00 0. -1.
<scales pt_clust_5="13000.00000" pt_clust_6="13000.00000" pt_clust_7="13000.00000" pt_clust_8="13000.00000" pt_clust_9="167.46682" pt_clust_10="507.37895"></scales>
<clustering>
<clus scale="   91.470">  7  8 -1 -1</clus>
<clus scale="   94.811">  5  6 -1 -1</clus>
<clus scale="  167.467">  2  9  1 -1</clus>
<clus scale="  339.289">  1  7  2 -1</clus>
<clus scale="  507.379">  2 10  1 -1</clus>
<clus scale="  167.467">  2  5  1 -1</clus>
</clustering>
</event>
<event>
10    2  0.6640105E-006  0.2031686E+03  0.7546771E-02  0.1147267E+00
         21   -1    0    0  501  502  0.00000000000E+00  0.00000000000E+00  0.33356667641E+03  0.33356667641E+03  0.00000000000E+00 0. -1.
         -4   -1    0    0    0  501 -0.00000000000E+00 -0.00000000000E+00 -0.28592945140E+03  0.28592945140E+03  0.00000000000E+00 0.  1.
         23    2    1    2    0    0  0.47062927050E+02  0.16977087381E+03 -0.91009959712E+02  0.21883647669E+03  0.92571713087E+02 0.  0.
         23    2    1    2    0    0 -0.11066964655E+03 -0.16013526395E+03 -0.12688048035E+02  0.21513129257E+03  0.90716112427E+02 0.  0.
        -11    1    4    4    0    0 -0.74764541021E+02 -0.11019087512E+03  0.34555418958E+02  0.13757122713E+03  0.00000000000E+00 0. -1.
         11    1    4    4    0    0 -0.35905105533E+02 -0.49944388825E+02 -0.47243466993E+02  0.77560065446E+02  0.00000000000E+00 0.  1.
        -13    1    3    3    0    0  0.73468829772E+02  0.12748491246E+03 -0.81092232810E+02  0.16800601797E+03  0.00000000000E+00 0.  1.
         13    1    3    3    0    0 -0.26405902722E+02  0.42285961357E+02 -0.99177269025E+01  0.50830458717E+02  0.00000000000E+00 0. -1.
         21    1    1    2  503  502  0.67844724883E+01 -0.28645554058E+02  0.10704258663E+03  0.11101672030E+03  0.00000000000E+00 0. -1.
         -4    1    1    2    0  503  0.56822247015E+02  0.19009944190E+02  0.44292646126E+02  0.74511638250E+02  0.00000000000E+00 0.  1.
<scales pt_clust_5="13000.00000" pt_clust_6="13000.00000" pt_clust_7="13000.00000" pt_clust_8="13000.00000" pt_clust_9="29.43802" pt_clust_10="59.72142"></scales>
<clustering>
<clus scale="   29.438">  1  9  2 -1</clus>
<clus scale="   59.721">  1 10  2 -1</clus>
<clus scale="   90.716">  5  6 -1 -1</clus>
<clus scale="   92.572">  7  8 -1 -1</clus>
<clus scale="  202.330">  1  5  2 -1</clus>
<clus scale="   29.438">  1  5  2 -1</clus>
</clustering>
</event>
<event>
10    2  0.6640105E-006  0.1121843E+03  0.7546771E-02  0.1256609E+00
         -3   -1    0    0    0  501 -0.00000000000E+00  0.00000000000E+00  0.40643167907E+03  0.40643167907E+03  0.00000000000E+00 0.  1.
         21   -1    0    0  503  502  0.00000000000E+00 -0.00000000000E+00 -0.10906468765E+03  0.10906468765E+03  0.00000000000E+00 0. -1.
         23    2    1    2    0    0 -0.56701665280E+02 -0.27963024462E+02  0.29622710756E+03  0.31670255883E+03  0.92482441240E+02 0.  0.
         23    2    1    2    0    0  0.58415899337E+02  0.26375997199E+02  0.25293022908E+02  0.11539674487E+03  0.92566523075E+02 0.  0.
        -11    1    3    3    0    0  0.20913878949E+02  0.82557827691E+01  0.33328968512E+02  0.40204084667E+02  0.00000000000E+00 0. -1.
         11    1    3    3    0    0 -0.77615544229E+02 -0.36218807231E+02  0.26289813905E+03  0.27649847417E+03  0.00000000000E+00 0.  1.
        -13    1    4    4    0    0  0.18485957133E+02 -0.34512399289E+02  0.14683726266E+02  0.41814448853E+02  0.00000000000E+00 0.  1.
         13    1    4    4    0    0  0.39929942203E+02  0.60888396488E+02  0.10609296642E+02  0.73582296012E+02  0.00000000000E+00 0. -1.
         21    1    1    2  503  501  0.27002641299E+02  0.29074439720E+02 -0.16190096505E+02  0.42855395308E+02  0.00000000000E+00 0. -1.
         -3    1    1    2    0  502 -0.28716875356E+02 -0.27487412456E+02 -0.79630425429E+01  0.40541667705E+02  0.00000000000E+00 0.  1.
<scales pt_clust_5="13000.00000" pt_clust_6="13000.00000" pt_clust_7="13000.00000" pt_clust_8="13000.00000" pt_clust_9="39.67954" pt_clust_10="27.68368"></scales>
<clustering>
<clus scale="   39.680">  2  9  1 -1</clus>
<clus scale="   27.684">  2 10  1 -1</clus>
<clus scale="   92.482">  5  6 -1 -1</clus>
<clus scale="   92.567">  7  8 -1 -1</clus>
<clus scale="  112.115">  1  5  2 -1</clus>
<clus scale="   39.680">  2  5  1 -1</clus>
</clustering>
</event>
<event>
10    2  0.6640105E-006  0.1145227E+03  0.7546771E-02  0.1252663E+00
          1   -1    0    0  503    0 -0.00000000000E+00  0.00000000000E+00  0.12595323279E+03  0.12595323279E+03  0.00000000000E+00 0. -1.
         21   -1    0    0  501  502  0.00000000000E+00 -0.00000000000E+00 -0.93148273050E+03  0.93148273050E+03  0.00000000000E+00 0.  1.
         23    2    1    2    0    0  0.23002404348E+02  0.54258418964E+02  0.50123793536E+02  0.11848054675E+03  0.89733821084E+02 0.  0.
         23    2    1    2    0    0 -0.45199063044E+02 -0.13623448485E+03 -0.18756989264E+03  0.25291345013E+03  0.90443122827E+02 0.  0.
        -13    1    4    4    0    0 -0.30910538343E+02 -0.92834598383E+02 -0.54027604423E+02  0.11177077470E+03  0.00000000000E+00 0.  1.
         13    1    4    4    0    0 -0.14288524701E+02 -0.43399886466E+02 -0.13354228822E+03  0.14114267542E+03  0.00000000000E+00 0. -1.
        -13    1    3    3    0    0  0.38720481041E+02  0.20747349508E+02  0.65113664923E+02  0.78546276318E+02  0.00000000000E+00 0. -1.
         13    1    3    3    0    0 -0.15718076693E+02  0.33511069456E+02 -0.14989871387E+02  0.39934270436E+02  0.00000000000E+00 0.  1.
         21    1    1    2  503  502 -0.36709019640E+02  0.15146109823E+02 -0.63247247158E+02  0.74680459551E+02  0.00000000000E+00 0.  1.
          1    1    1    2  501    0  0.58905678336E+02  0.66829956062E+02 -0.60483615145E+03  0.61136150685E+03  0.00000000000E+00 0. -1.
<scales pt_clust_5="13000.00000" pt_clust_6="13000.00000" pt_clust_7="13000.00000" pt_clust_8="13000.00000" pt_clust_9="39.71091" pt_clust_10="84.25074"></scales>
<clustering>
<clus scale="   39.711">  2  9  1 -1</clus>
<clus scale="   84.251">  2 10  1 -1</clus>
<clus scale="   89.734">  7  8 -1 -1</clus>
<clus scale="   90.443">  5  6 -1 -1</clus>
<clus scale="  113.963">  1  7  2 -1</clus>
<clus scale="   39.711">  2  5  1 -1</clus>
</clustering>
</event>
<event>
10    2  0.6640105E-006  0.1294311E+03  0.7546771E-02  0.1228930E+00
         -1   -1    0    0    0  501 -0.00000000000E+00  0.00000000000E+00  0.67090174117E+03  0.67090174117E+03  0.00000000000E+00 0.  1.
         21   -1    0    0  503  502  0.00000000000E+00 -0.00000000000E+00 -0.11044159727E+03  0.11044159727E+03  0.00000000000E+00 0.  1.
         23    2    1    2    0    0  0.65418741216E+02  0.76738513501E+02  0.36660605605E+03  0.39121580060E+03  0.92094468633E+02 0.  0.
         23    2    1    2    0    0 -0.16636246783E+02 -0.30761900306E+02 -0.37638625424E+02  0.10339983637E+03  0.89731827243E+02 0.  0.
        -13    1    4    4    0    0  0.26056869065E+02 -0.39104385954E+02 -0.17790447949E+01  0.47024232335E+02  0.00000000000E+00 0. -1.
         13    1    4    4    0    0 -0.42693115848E+02  0.83424856477E+01 -0.35859580629E+02  0.56375604037E+02  0.00000000000E+00 0.  1.
        -13    1    3    3    0    0  0.48258611533E+02  0.97972994742E+02  0.28900885158E+03  0.30895585053E+03  0.00000000000E+00 0.  1.
         13    1    3    3    0    0  0.17160129682E+02 -0.21234481242E+02  0.77597204470E+02  0.82259950072E+02  0.00000000000E+00 0. -1.
         21    1    1    2  503  501 -0.20169592547E+02 -0.66122962403E+00 -0.20696625575E+02  0.28906746588E+02  0.00000000000E+00 0.  1.
         -1    1    1    2    0  502 -0.28612901886E+02 -0.45315383571E+02  0.25218933886E+03  0.25782095488E+03  0.00000000000E+00 0.  1.
<scales pt_clust_5="13000.00000" pt_clust_6="13000.00000" pt_clust_7="13000.00000" pt_clust_8="13000.00000" pt_clust_9="20.18043" pt_clust_10="53.96801"></scales>
<clustering>
<clus scale="   20.180">  2  9  1 -1</clus>
<clus scale="   53.968">  2 10  1 -1</clus>
<clus scale="   89.732">  5  6 -1 -1</clus>
<clus scale="   92.094">  7  8 -1 -1</clus>
<clus scale="  127.761">  2  5  1 -1</clus>
<clus scale="   20.180">  2  5  1 -1</clus>
</clustering>
</event>
<event>
10    2  0.6640105E-006  0.1394457E+03  0.7546771E-02  0.1231633E+00
         -1   -1    0    0    0  501 -0.00000000000E+00  0.00000000000E+00  0.46317858458E+02  0.46317858458E+02  0.00000000000E+00 0.  1.
         21   -1    0    0  503  502  0.00000000000E+00 -0.00000000000E+00 -0.97022638791E+03  0.97022638791E+03  0.00000000000E+00 0. -1.
         23    2    1    2    0    0 -0.39943728077E+01 -0.20675888910E+02 -0.28165931595E+03  0.29676313985E+03  0.91065600056E+02 0.  0.
         23    2    1    2    0    0 -0.90759696446E+02  0.84905114885E+01 -0.14865318747E+03  0.19721190811E+03  0.92115988152E+02 0.  0.
        -13    1    3    3    0    0 -0.27925407829E+02 -0.48423151466E+02 -0.18997305149E+03  0.19802623638E+03  0.00000000000E+00 0. -1.
         13    1    3    3    0    0  0.23931035021E+02  0.27747262556E+02 -0.91686264460E+02  0.98736903471E+02  0.00000000000E+00 0.  1.
        -13    1    4    4    0    0 -0.17874788818E+02  0.40894372715E+02 -0.81603759828E+02  0.93010920934E+02  0.00000000000E+00 0.  1.
         13    1    4    4    0    0 -0.72884907628E+02 -0.32403861226E+02 -0.67049427639E+02  0.10420098718E+03  0.00000000000E+00 0. -1.
         21    1    1    2  503  501 -0.18971695031E+02 -0.23726651682E+02 -0.24466791890E+03  0.24654668879E+03  0.00000000000E+00 0. -1.
         -1    1    1    2    0  502  0.11372576428E+03  0.35912029104E+02 -0.24892810713E+03  0.27602250962E+03  0.00000000000E+00 0.  1.
<scales pt_clust_5="13000.00000" pt_clust_6="13000.00000" pt_clust_7="13000.00000" pt_clust_8="13000.00000" pt_clust_9="30.37893" pt_clust_10="104.68883"></scales>
<clustering>
<clus scale="   30.379">  2  9  1 -1</clus>
<clus scale="   91.066">  5  6 -1 -1</clus>
<clus scale="   92.116">  7  8 -1 -1</clus>
<clus scale="   96.620">  1  5  2 -1</clus>
<clus scale="  104.689">  2 10  1 -1</clus>
<clus scale="   30.379">  2  5  1 -1</clus>
</clustering>
</event>
<event>
10    2  0.6640105E-006  0.9479233E+02  0.7546771E-02  0.1293715E+00
          1   -1    0    0  502    0 -0.00000000000E+00  0.00000000000E+00  0.39119399030E+03  0.39119399030E+03  0.00000000000E+00 0. -1.
         21   -1    0    0  503  502  0.00000000000E+00 -0.00000000000E+00 -0.27102323757E+03  0.27102323757E+03  0.00000000000E+00 0.  1.
         23    2    1    2    0    0 -0.26055368887E+02 -0.28469247960E+00  0.24098082325E+03  0.25984020360E+03  0.93628045667E+02 0.  0.
         23    2    1    2    0    0 -0.18505323797E+02 -0.30066856145E+02  0.10974970942E+03  0.14625212138E+03  0.89990118582E+02 0.  0.
        -11    1    3    3    0    0 -0.24872763164E+02 -0.33822245789E+02  0.47178363220E+02  0.63153753758E+02  0.00000000000E+00 0. -1.
         11    1    3    3    0    0 -0.11826057233E+01  0.33537553309E+02  0.19380246003E+03  0.19668644984E+03  0.00000000000E+00 0.  1.
        -13    1    4    4    0    0  0.35097128748E+02 -0.23856023474E+02  0.42932666324E+02  0.60366647580E+02  0.00000000000E+00 0.  1.
         13    1    4    4    0    0 -0.53602452545E+02 -0.62108326712E+01  0.66817043099E+02  0.85885473800E+02  0.00000000000E+00 0. -1.
         21    1    1    2  503  501 -0.24130978598E+02  0.21206442977E+02 -0.13060479902E+03  0.13449769841E+03  0.00000000000E+00 0.  1.
          1    1    1    2  501    0  0.68691671282E+02  0.91451056476E+01 -0.99954980919E+02  0.12162720449E+03  0.00000000000E+00 0. -1.
<scales pt_clust_5="13000.00000" pt_clust_6="13000.00000" pt_clust_7="13000.00000" pt_clust_8="13000.00000" pt_clust_9="32.12503" pt_clust_10="55.86310"></scales>
<clustering>
<clus scale="   32.125">  2  9  1 -1</clus>
<clus scale="   55.863">  2 10  1 -1</clus>
<clus scale="   89.990">  7  8 -1 -1</clus>
<clus scale="   91.201">  2  7  1 -1</clus>
<clus scale="   93.628">  5  6 -1 -1</clus>
<clus scale="   32.125">  2  5  1 -1</clus>
</clustering>
</event>
<event>
10    2  0.6640105E-006  0.1298797E+03  0.7546771E-02  0.1230634E+00
         21   -1    0    0  501  502  0.00000000000E+00  0.00000000000E+00  0.11769113938E+04  0.11769113938E+04  0.00000000000E+00 0.  1.
          2   -1    0    0  503    0 -0.00000000000E+00 -0.00000000000E+00 -0.19377702383E+03  0.19377702383E+03  0.00000000000E+00 0. -1.
         23    2    1    2    0    0 -0.77224244193E+02  0.26430061505E+02 -0.13093767748E+03  0.18397272487E+03  0.10019558907E+03 0.  0.
         23    2    1    2    0    0  0.96278571434E+02 -0.14542670808E+02  0.33301387388E+03  0.35839934242E+03  0.89837608274E+02 0.  0.
        -13    1    4    4    0    0  0.56718717777E+02 -0.32486134196E+02  0.28997156303E+03  0.29724715176E+03  0.00000000000E+00 0.  1.
         13    1    4    4    0    0  0.39559853657E+02  0.17943463388E+02  0.43042310846E+02  0.61152190662E+02  0.00000000000E+00 0. -1.
        -13    1    3    3    0    0 -0.28362154136E+02  0.58890110803E+02 -0.42911867868E+02  0.78191338021E+02  0.00000000000E+00 0. -1.
         13    1    3    3    0    0 -0.48862090056E+02 -0.32460049298E+02 -0.88025809614E+02  0.10578138685E+03  0.00000000000E+00 0.  1.
         21    1    1    2  503  502 -0.12446935313E+03 -0.38857185871E+02  0.62252243754E+03  0.63603198505E+03  0.00000000000E+00 0.  1.
          2    1    1    2  501    0  0.10541502589E+03  0.26969795174E+02  0.15853573602E+03  0.19228436528E+03  0.00000000000E+00 0. -1.
<scales pt_clust_5="13000.00000" pt_clust_6="13000.00000" pt_clust_7="13000.00000" pt_clust_8="13000.00000" pt_clust_9="62.21930" pt_clust_10="108.81037"></scales>
<clustering>
<clus scale="   89.838">  5  6 -1 -1</clus>
<clus scale="  100.196">  7  8 -1 -1</clus>
<clus scale="  108.810">  1 10  2 -1</clus>
<clus scale="   62.219">  1  9  2 -1</clus>
<clus scale="  122.067">  1  5  2 -1</clus>
<clus scale="  108.810">  1  5  2 -1</clus>
</clustering>
</event>
<event>
10    2  0.6640105E-006  0.1172224E+03  0.7546771E-02  0.1248071E+00
          1   -1    0    0  502    0 -0.00000000000E+00  0.00000000000E+00  0.86959459157E+03  0.86959459157E+03  0.00000000000E+00 0. -1.
         21   -1    0    0  503  502  0.00000000000E+00 -0.00000000000E+00 -0.10262302542E+03  0.10262302542E+03  0.00000000000E+00 0. -1.
         23    2    1    2    0    0  0.58731199188E+02 -0.79070764660E+02  0.52655719717E+03  0.54375005553E+03  0.93274334181E+02 0.  0.
         23    2    1    2    0    0 -0.54033097412E+02 -0.12093135074E+02  0.21258727653E+03  0.23829441221E+03  0.92331236394E+02 0.  0.
        -11    1    3    3    0    0  0.47510705667E+02  0.49627648050E+01  0.24872648599E+03  0.25327210865E+03  0.00000000000E+00 0.  1.
         11    1    3    3    0    0  0.11220493521E+02 -0.84033529465E+02  0.27783071118E+03  0.29047794688E+03  0.00000000000E+00 0. -1.
        -11    1    4    4    0    0 -0.28020487479E+02 -0.45812314979E+02  0.16912111194E+03  0.17744257219E+03  0.00000000000E+00 0. -1.
         11    1    4    4    0    0 -0.26012609933E+02  0.33719179904E+02  0.43466164594E+02  0.60851840017E+02  0.00000000000E+00 0.  1.
         21    1    1    2  503  501 -0.50298176549E+02 -0.26108071384E+02  0.30424021637E+02  0.64320751302E+02  0.00000000000E+00 0. -1.
          1    1    1    2  501    0  0.45600074772E+02  0.11727197112E+03 -0.25969291887E+01  0.12585239795E+03  0.00000000000E+00 0. -1.
<scales pt_clust_5="13000.00000" pt_clust_6="13000.00000" pt_clust_7="13000.00000" pt_clust_8="13000.00000" pt_clust_9="56.67043" pt_clust_10="98.01892"></scales>
<clustering>
<clus scale="   56.670">  2  9  1 -1</clus>
<clus scale="   92.331">  7  8 -1 -1</clus>
<clus scale="   93.274">  5  6 -1 -1</clus>
<clus scale="   98.019">  2 10  1 -1</clus>
<clus scale="  116.473">  2  7  1 -1</clus>
<clus scale="   56.670">  2  5  1 -1</clus>
</clustering>
</event>
<event>
10    2  0.6640105E-006  0.1116457E+03  0.7546771E-02  0.1258653E+00
         -1   -1    0    0    0  501 -0.00000000000E+00  0.00000000000E+00  0.65194346113E+03  0.65194346113E+03  0.00000000000E+00 0.  1.
         21   -1    0    0  503  502  0.00000000000E+00 -0.00000000000E+00 -0.20538043960E+03  0.20538043960E+03  0.00000000000E+00 0. -1.
         23    2    1    2    0    0 -0.46370345982E+02 -0.28251030546E+02  0.34815753882E+03  0.36357002045E+03  0.89560919043E+02 0.  0.
         23    2    1    2    0    0  0.78495451847E+02  0.18577146037E+02  0.23991045890E+03  0.26947020309E+03  0.92468998874E+02 0.  0.
        -13    1    4    4    0    0  0.89973326883E+02  0.75087429422E-01  0.22694394630E+03  0.24412857259E+03  0.00000000000E+00 0. -1.
         13    1    4    4    0    0 -0.11477875036E+02  0.18502058608E+02  0.12966512592E+02  0.25341630510E+02  0.00000000000E+00 0.  1.
        -13    1    3    3    0    0 -0.55834952328E+02 -0.52502386151E+02  0.28795317304E+03  0.29797830847E+03  0.00000000000E+00 0.  1.
         13    1    3    3    0    0  0.94646063459E+01  0.24251355605E+02  0.60204365780E+02  0.65591711983E+02  0.00000000000E+00 0. -1.
         21    1    1    2  503  501 -0.36322905831E+02 -0.25577940148E+02 -0.17190052301E+03  0.17754823097E+03  0.00000000000E+00 0. -1.
         -1    1    1    2    0  502  0.41977999667E+01  0.35251824657E+02  0.30395546819E+02  0.46735446212E+02  0.00000000000E+00 0.  1.
<scales pt_clust_5="13000.00000" pt_clust_6="13000.00000" pt_clust_7="13000.00000" pt_clust_8="13000.00000" pt_clust_9="33.09043" pt_clust_10="35.50090"></scales>
<clustering>
<clus scale="   35.501">  2 10  1 -1</clus>
<clus scale="   33.090">  2  9  1 -1</clus>
<clus scale="   89.561">  7  8 -1 -1</clus>
<clus scale="   92.469">  5  6 -1 -1</clus>
<clus scale="  109.249">  1  7  2 -1</clus>
<clus scale="   35.501">  2  5  1 -1</clus>
</clustering>
</event>
<event>
10    2  0.1575289E-005  0.1567854E+03  0.7546771E-02  0.1192675E+00
         21   -1    0    0  501  502  0.00000000000E+00  0.00000000000E+00  0.29220074795E+03  0.29220074795E+03  0.00000000000E+00 0. -1.
          1   -1    0    0  503    0 -0.00000000000E+00 -0.00000000000E+00 -0.53671192738E+03  0.53671192738E+03  0.00000000000E+00 0. -1.
         23    2    1    2    0    0 -0.63334862794E+02 -0.92058616424E+02 -0.47905127217E+03  0.50096256973E+03  0.94801272167E+02 0.  0.
         23    2    1    2    0    0  0.25562594695E+02  0.63299541091E+02  0.16268889131E+03  0.19947902960E+03  0.93080232832E+02 0.  0.
        -13    1    4    4    0    0  0.49801155586E+02  0.63558265946E+02  0.15371348196E+03  0.17363076572E+03  0.00000000000E+00 0.  1.
         13    1    4    4    0    0 -0.24238560890E+02 -0.25872485534E+00  0.89754093489E+01  0.25848263879E+02  0.00000000000E+00 0. -1.
        -13    1    3    3    0    0  0.11256470394E+02 -0.25627360514E+02 -0.30385739847E+02  0.41312987288E+02  0.00000000000E+00 0.  1.
         13    1    3    3    0    0 -0.74591333188E+02 -0.66431255910E+02 -0.44866553232E+03  0.45964958244E+03  0.00000000000E+00 0. -1.
         21    1    1    2  503  502 -0.12048976121E+02 -0.16917517805E+02 -0.93862707471E+01  0.22792154632E+02  0.00000000000E+00 0.  1.
          1    1    1    2  501    0  0.49821244220E+02  0.45676593138E+02  0.81237472180E+02  0.10567892137E+03  0.00000000000E+00 0. -1.
<scales pt_clust_5="13000.00000" pt_clust_6="13000.00000" pt_clust_7="13000.00000" pt_clust_8="13000.00000" pt_clust_9="20.76970" pt_clust_10="67.11398"></scales>
<clustering>
<clus scale="   20.770">  2  9  1 -1</clus>
<clus scale="   67.114">  1 10  2 -1</clus>
<clus scale="   93.080">  5  6 -1 -1</clus>
<clus scale="   94.801">  7  8 -1 -1</clus>
<clus scale="  155.751">  1  5  2 -1</clus>
<clus scale="   67.114">  1  5  2 -1</clus>
</clustering>
</event>
<event>
10    2  0.6640105E-006  0.9153252E+02  0.7546771E-02  0.1300443E+00
         -1   -1    0    0    0  501 -0.00000000000E+00  0.00000000000E+00  0.21288217329E+03  0.21288217329E+03  0.00000000000E+00 0.  1.
         21   -1    0    0  503  502  0.00000000000E+00 -0.00000000000E+00 -0.47376694712E+03  0.47376694712E+03  0.00000000000E+00 0.  1.
         23    2    1    2    0    0  0.13619848924E+02  0.32074603018E+02  0.10840815349E+03  0.14556757844E+03  0.90682477400E+02 0.  0.
         23    2    1    2    0    0  0.77456833297E+01  0.35693286305E+02  0.18374317276E+02  0.97541958131E+02  0.88559650876E+02 0.  0.
        -11    1    4    4    0    0  0.45637284014E+02  0.26344531395E+02 -0.34831350059E+01  0.52810304450E+02  0.00000000000E+00 0.  1.
         11    1    4    4    0    0 -0.37891600685E+02  0.93487549106E+01  0.21857452282E+02  0.44731653681E+02  0.00000000000E+00 0. -1.
        -13    1    3    3    0    0  0.44292635249E+02  0.91128598152E+01  0.94578034747E+02  0.10483265907E+03  0.00000000000E+00 0.  1.
         13    1    3    3    0    0 -0.30672786325E+02  0.22961743203E+02  0.13830118743E+02  0.40734919373E+02  0.00000000000E+00 0. -1.
         21    1    1    2  503  501 -0.78487987010E+02  0.28273549263E+02 -0.77544020541E+02  0.11389834421E+03  0.00000000000E+00 0.  1.
         -1    1    1    2    0  502  0.57122454757E+02 -0.96041438586E+02 -0.31012322406E+03  0.32964123963E+03  0.00000000000E+00 0.  1.
<scales pt_clust_5="13000.00000" pt_clust_6="13000.00000" pt_clust_7="13000.00000" pt_clust_8="13000.00000" pt_clust_9="83.42516" pt_clust_10="72.71374"></scales>
<clustering>
<clus scale="   83.425">  2  9  1 -1</clus>
<clus scale="   72.714">  2 10  1 -1</clus>
<clus scale="   88.560">  5  6 -1 -1</clus>
<clus scale="   89.430">  2  5  1 -1</clus>
<clus scale="   90.682">  7  8 -1 -1</clus>
<clus scale="   83.425">  2  5  1 -1</clus>
</clustering>
</event>
<event>
10    2  0.6640105E-006  0.1316844E+03  0.7546771E-02  0.1237356E+00
         21   -1    0    0  501  502  0.00000000000E+00  0.00000000000E+00  0.15989915826E+03  0.15989915826E+03  0.00000000000E+00 0.  1.
         -1   -1    0    0    0  501 -0.00000000000E+00 -0.00000000000E+00 -0.31505174752E+03  0.31505174752E+03  0.00000000000E+00 0.  1.
         23    2    1    2    0    0  0.48507114056E+02  0.17698250813E+02 -0.47297652600E+02  0.11511873670E+03  0.91373340762E+02 0.  0.
         23    2    1    2    0    0  0.28348473785E+01  0.10927573516E+03  0.30828715337E+02  0.14645850685E+03  0.92468707593E+02 0.  0.
        -11    1    3    3    0    0  0.34807939406E+02  0.52008535011E+02 -0.46844056183E+02  0.78171900063E+02  0.00000000000E+00 0.  1.
         11    1    3    3    0    0  0.13699174650E+02 -0.34310284198E+02 -0.45359641712E+00  0.36946836637E+02  0.00000000000E+00 0. -1.
        -13    1    4    4    0    0  0.14605181051E+02  0.91347596800E+02  0.59992519296E+02  0.11025786651E+03  0.00000000000E+00 0.  1.
         13    1    4    4    0    0 -0.11770333673E+02  0.17928138362E+02 -0.29163803959E+02  0.36200640343E+02  0.00000000000E+00 0. -1.
         21    1    1    2  503  502 -0.18022740913E+02 -0.28584455300E+02  0.69396853885E+01  0.34497094198E+02  0.00000000000E+00 0.  1.
         -1    1    1    2    0  503 -0.33319220522E+02 -0.98389530676E+02 -0.14562333738E+03  0.17887656804E+03  0.00000000000E+00 0.  1.
<scales pt_clust_5="13000.00000" pt_clust_6="13000.00000" pt_clust_7="13000.00000" pt_clust_8="13000.00000" pt_clust_9="33.79187" pt_clust_10="93.75680"></scales>
<clustering>
<clus scale="   33.792">  1  9  2 -1</clus>
<clus scale="   91.373">  5  6 -1 -1</clus>
<clus scale="   92.469">  7  8 -1 -1</clus>
<clus scale="  102.032">  2  5  1 -1</clus>
<clus scale="   93.757">  1 10  2 -1</clus>
<clus scale="   33.792">  1  5  2 -1</clus>
</clustering>
</event>
<event>
10    2  0.6640105E-006  0.9161838E+02  0.7546771E-02  0.1301390E+00
          2   -1    0    0  503    0 -0.00000000000E+00  0.00000000000E+00  0.50503803767E+03  0.50503803767E+03  0.00000000000E+00 0. -1.
         21   -1    0    0  501  502  0.00000000000E+00 -0.00000000000E+00 -0.66686181699E+02  0.66686181699E+02  0.00000000000E+00 0. -1.
         23    2    1    2    0    0 -0.38701821758E+01  0.77822859434E+01  0.24131274847E+03  0.25811252652E+03  0.91184930139E+02 0.  0.
         23    2    1    2    0    0 -0.69762096722E+01  0.31553258865E+02  0.17749218484E+03  0.20037120662E+03  0.87182963439E+02 0.  0.
        -11    1    4    4    0    0  0.28232741043E+02  0.46763338226E+02  0.10399739468E+03  0.11747065833E+03  0.00000000000E+00 0. -1.
         11    1    4    4    0    0 -0.35208950715E+02 -0.15210079361E+02  0.73494790167E+02  0.82900548287E+02  0.00000000000E+00 0.  1.
        -13    1    3    3    0    0 -0.18039518845E+02  0.42263284678E+02  0.18468310499E+03  0.19031410547E+03  0.00000000000E+00 0.  1.
         13    1    3    3    0    0  0.14169336669E+02 -0.34480998735E+02  0.56629643482E+02  0.67798421046E+02  0.00000000000E+00 0. -1.
         21    1    1    2  503  502 -0.27675598197E+02  0.23771029413E+02 -0.10235213406E+01  0.36497235113E+02  0.00000000000E+00 0. -1.
          2    1    1    2  501    0  0.38521990045E+02 -0.63106574221E+02  0.20570443996E+02  0.76743251125E+02  0.00000000000E+00 0. -1.
<scales pt_clust_5="13000.00000" pt_clust_6="13000.00000" pt_clust_7="13000.00000" pt_clust_8="13000.00000" pt_clust_9="36.48288" pt_clust_10="53.99708"></scales>
<clustering>
<clus scale="   36.483">  2  9  1 -1</clus>
<clus scale="   53.997">  2 10  1 -1</clus>
<clus scale="   87.183">  5  6 -1 -1</clus>
<clus scale="   87.636">  2  5  1 -1</clus>
<clus scale="   91.185">  7  8 -1 -1</clus>
<clus scale="   36.483">  2  5  1 -1</clus>
</clustering>
</event>
<event>
10    2  0.6640105E-006  0.1179811E+03  0.7546771E-02  0.1270745E+00
         21   -1    0    0  503  502  0.00000000000E+00  0.00000000000E+00  0.49431975661E+03  0.49431975661E+03  0.00000000000E+00 0. -1.
          3   -1    0    0  502    0 -0.00000000000E+00 -0.00000000000E+00 -0.28592492068E+03  0.28592492068E+03  0.00000000000E+00 0. -1.
         23    2    1    2    0    0 -0.38118500092E+02 -0.94923162768E+01 -0.15481939221E+03  0.17122065717E+03  0.61679373535E+02 0.  0.
         23    2    1    2    0    0 -0.37780965893E+02  0.92287336222E+01 -0.48178911459E+02  0.11060364985E+03  0.91648180251E+02 0.  0.
        -11    1    4    4    0    0  0.53473710990E+01 -0.34924232853E+02 -0.29753789751E+02  0.46190739576E+02  0.00000000000E+00 0. -1.
         11    1    4    4    0    0 -0.43128336992E+02  0.44152966476E+02 -0.18425121708E+02  0.64412910276E+02  0.00000000000E+00 0.  1.
        -13    1    3    3    0    0 -0.47289904860E+01  0.22289496063E+02 -0.81404985941E+02  0.84533760840E+02  0.00000000000E+00 0.  1.
         13    1    3    3    0    0 -0.33389509606E+02 -0.31781812340E+02 -0.73414406272E+02  0.86686896331E+02  0.00000000000E+00 0. -1.
         21    1    1    2  503  501 -0.26584572974E+02 -0.97493975924E+02  0.30492616359E+03  0.32123477412E+03  0.00000000000E+00 0. -1.
          3    1    1    2  501    0  0.10248403896E+03  0.97757558579E+02  0.10646697601E+03  0.17718559615E+03  0.00000000000E+00 0. -1.
<scales pt_clust_5="13000.00000" pt_clust_6="13000.00000" pt_clust_7="13000.00000" pt_clust_8="13000.00000" pt_clust_9="102.35171" pt_clust_10="74.29771"></scales>
<clustering>
<clus scale="   61.679">  7  8 -1 -1</clus>
<clus scale="   73.126">  2  7  1 -1</clus>
<clus scale="   91.648">  5  6 -1 -1</clus>
<clus scale="  102.352">  1  9  2 -1</clus>
<clus scale="   74.298">  1 10  2 -1</clus>
<clus scale="  102.352">  1  5  2 -1</clus>
</clustering>
</event>
<event>
10    2  0.6640105E-006  0.2256194E+03  0.7546771E-02  0.1129835E+00
         21   -1    0    0  501  502  0.00000000000E+00  0.00000000000E+00  0.12339359284E+03  0.12339359284E+03  0.00000000000E+00 0. -1.
          2   -1    0    0  503    0 -0.00000000000E+00 -0.00000000000E+00 -0.98934336341E+03  0.98934336341E+03  0.00000000000E+00 0. -1.
         23    2    1    2    0    0 -0.21043977993E+03  0.10161605202E+03 -0.54532321734E+03  0.60018112669E+03  0.90715216214E+02 0.  0.
         23    2    1    2    0    0  0.17881081121E+03 -0.24422873636E+02 -0.30199577826E+03  0.36357032020E+03  0.91717744630E+02 0.  0.
        -11    1    3    3    0    0 -0.77590344551E+02  0.32348874883E+02 -0.31013121110E+03  0.32132239165E+03  0.00000000000E+00 0.  1.
         11    1    3    3    0    0 -0.13284943538E+03  0.69267177132E+02 -0.23519200624E+03  0.27885873504E+03  0.00000000000E+00 0. -1.
        -13    1    4    4    0    0  0.27680152427E+02  0.35041530826E+01 -0.38794933554E+01  0.28169494065E+02  0.00000000000E+00 0.  1.
         13    1    4    4    0    0  0.15113065878E+03 -0.27927026719E+02 -0.29811628490E+03  0.33540082613E+03  0.00000000000E+00 0. -1.
         21    1    1    2  503  502 -0.27343881916E+02  0.44411874761E+01  0.26764685992E+02  0.38519611118E+02  0.00000000000E+00 0. -1.
          2    1    1    2  501    0  0.58972850634E+02 -0.81634365855E+02 -0.45395460962E+02  0.11046589825E+03  0.00000000000E+00 0. -1.
<scales pt_clust_5="13000.00000" pt_clust_6="13000.00000" pt_clust_7="13000.00000" pt_clust_8="13000.00000" pt_clust_9="27.70220" pt_clust_10="93.93838"></scales>
<clustering>
<clus scale="   27.702">  1  9  2 -1</clus>
<clus scale="   90.715">  5  6 -1 -1</clus>
<clus scale="   91.718">  7  8 -1 -1</clus>
<clus scale="   93.938">  1 10  2 -1</clus>
<clus scale="  225.214">  2  5  1 -1</clus>
<clus scale="   27.702">  1  5  2 -1</clus>
</clustering>
</event>
<event>
10    2  0.6640105E-006  0.3006371E+03  0.7546771E-02  0.1085350E+00
         21   -1    0    0  503  502  0.00000000000E+00  0.00000000000E+00  0.11417141909E+03  0.11417141909E+03  0.00000000000E+00 0. -1.
          1   -1    0    0  502    0 -0.00000000000E+00 -0.00000000000E+00 -0.18208506580E+04  0.18208506580E+04  0.00000000000E+00 0. -1.
         23    2    1    2    0    0  0.14510798919E+03  0.19642722868E+03 -0.57080329622E+03  0.62725728607E+03  0.89416526745E+02 0.  0.
         23    2    1    2    0    0 -0.31524823258E+03 -0.15101352936E+03 -0.93980195542E+03  0.10076940411E+04  0.10016501863E+03 0.  0.
        -11    1    4    4    0    0 -0.38503881539E+02 -0.38379832757E+02 -0.25199424731E+03  0.25779189501E+03  0.00000000000E+00 0.  1.
         11    1    4    4    0    0 -0.27674435104E+03 -0.11263369660E+03 -0.68780770811E+03  0.74990214614E+03  0.00000000000E+00 0. -1.
        -13    1    3    3    0    0  0.19124777977E+02  0.88562054587E+02 -0.15410266486E+03  0.17876416297E+03  0.00000000000E+00 0. -1.
         13    1    3    3    0    0  0.12598321121E+03  0.10786517409E+03 -0.41670063136E+03  0.44849312310E+03  0.00000000000E+00 0.  1.
         21    1    1    2  503  501  0.22105887815E+02  0.11756283680E+02  0.19957297679E+02  0.32018341817E+02  0.00000000000E+00 0. -1.
          1    1    1    2  501    0  0.14803435558E+03 -0.57169983003E+02 -0.21603128493E+03  0.26805240804E+03  0.00000000000E+00 0. -1.
<scales pt_clust_5="13000.00000" pt_clust_6="13000.00000" pt_clust_7="13000.00000" pt_clust_8="13000.00000" pt_clust_9="25.03758" pt_clust_10="163.61875"></scales>
<clustering>
<clus scale="   25.038">  1  9  2 -1</clus>
<clus scale="   89.417">  7  8 -1 -1</clus>
<clus scale="  100.165">  5  6 -1 -1</clus>
<clus scale="  163.619">  1 10  2 -1</clus>
<clus scale="  297.229">  2  7  1 -1</clus>
<clus scale="   25.038">  1  5  2 -1</clus>
</clustering>
</event>
<event>
10    2  0.6640105E-006  0.3412650E+03  0.7546771E-02  0.1112583E+00
         21   -1    0    0  501  502  0.00000000000E+00  0.00000000000E+00  0.26036716350E+03  0.26036716350E+03  0.00000000000E+00 0. -1.
          1   -1    0    0  503    0 -0.00000000000E+00 -0.00000000000E+00 -0.12371536257E+04  0.12371536257E+04  0.00000000000E+00 0. -1.
         23    2    1    2    0    0  0.54226947064E+01  0.41912120585E+02 -0.11572715849E+03  0.15301066965E+03  0.90738406114E+02 0.  0.
         23    2    1    2    0    0 -0.41582628471E+02 -0.20925791902E+02 -0.40388312311E+03  0.41680022945E+03  0.91835997173E+02 0.  0.
        -11    1    4    4    0    0  0.19963906908E+02 -0.21528050977E+02 -0.53266061111E+02  0.60821770972E+02  0.00000000000E+00 0. -1.
         11    1    4    4    0    0 -0.61546535379E+02  0.60225907537E+00 -0.35061706200E+03  0.35597845848E+03  0.00000000000E+00 0.  1.
        -11    1    3    3    0    0 -0.22572862808E+02 -0.18673466795E+02 -0.17091719080E+02  0.33916947956E+02  0.00000000000E+00 0.  1.
         11    1    3    3    0    0  0.27995557515E+02  0.60585587381E+02 -0.98635439411E+02  0.11909372169E+03  0.00000000000E+00 0. -1.
         21    1    1    2  503  502  0.28647068419E+03 -0.20282612744E+03  0.28176586677E+02  0.35213322892E+03  0.00000000000E+00 0. -1.
          1    1    1    2  501    0 -0.25031075043E+03  0.18183979876E+03 -0.48535276724E+03  0.57557666115E+03  0.00000000000E+00 0. -1.
<scales pt_clust_5="13000.00000" pt_clust_6="13000.00000" pt_clust_7="13000.00000" pt_clust_8="13000.00000" pt_clust_9="341.26502" pt_clust_10="13000.00000"></scales>
<clustering>
<clus scale="   90.738">  7  8 -1 -1</clus>
<clus scale="   91.836">  5  6 -1 -1</clus>
<clus scale="  100.097">  2  7  1 -1</clus>
<clus scale="  100.138">  2  5  1 -1</clus>
<clus scale="  341.265">  1  9  2 -1</clus>
<clus scale="  341.265">  1  5  2 -1</clus>
</clustering>
</event>
<event>
10    2  0.6640105E-006  0.1799027E+03  0.7546771E-02  0.1193314E+00
         21   -1    0    0  503  502  0.00000000000E+00  0.00000000000E+00  0.27798519918E+03  0.27798519918E+03  0.00000000000E+00 0. -1.
          1   -1    0    0  502    0 -0.00000000000E+00 -0.00000000000E+00 -0.43128482118E+03  0.43128482118E+03  0.00000000000E+00 0. -1.
         23    2    1    2    0    0  0.48781328048E+02 -0.63252565603E+01 -0.30716862196E+03  0.32355304927E+03  0.88962837958E+02 0.  0.
         23    2    1    2    0    0  0.91066027051E+02  0.10724736472E+03  0.10579123816E+03  0.20022301613E+03  0.95406769129E+02 0.  0.
        -11    1    3    3    0    0 -0.12152525065E+02 -0.27334392348E+02 -0.16171523738E+03  0.16445872088E+03  0.00000000000E+00 0.  1.
         11    1    3    3    0    0  0.60933853113E+02  0.21009135787E+02 -0.14545338458E+03  0.15909432840E+03  0.00000000000E+00 0. -1.
        -11    1    4    4    0    0  0.73006277750E+01  0.75114420921E+02  0.72143157699E+02  0.10440359476E+03  0.00000000000E+00 0.  1.
         11    1    4    4    0    0  0.83765399276E+02  0.32132943795E+02  0.33648080457E+02  0.95819421368E+02  0.00000000000E+00 0. -1.
         21    1    1    2  503  501 -0.37898117006E+02 -0.36696160671E+02  0.37118891455E+02  0.64503392030E+02  0.00000000000E+00 0.  1.
          1    1    1    2  501    0 -0.10194923809E+03 -0.64225947485E+02  0.10958870359E+02  0.12099056293E+03  0.00000000000E+00 0. -1.
<scales pt_clust_5="13000.00000" pt_clust_6="13000.00000" pt_clust_7="13000.00000" pt_clust_8="13000.00000" pt_clust_9="32.10285" pt_clust_10="160.05170"></scales>
<clustering>
<clus scale="   32.103">  9 10 -1 -1</clus>
<clus scale="   88.963">  5  6 -1 -1</clus>
<clus scale="   95.407">  7  8 -1 -1</clus>
<clus scale="  101.656">  2  5  1 -1</clus>
<clus scale="  160.052">  1  9  2 -1</clus>
<clus scale="  160.052">  1  5  2 -1</clus>
</clustering>
</event>
<event>
10    2  0.6640105E-006  0.2021765E+03  0.7546771E-02  0.1162117E+00
         21   -1    0    0  503  502  0.00000000000E+00  0.00000000000E+00  0.11493761000E+03  0.11493761000E+03  0.00000000000E+00 0. -1.
          2   -1    0    0  502    0 -0.00000000000E+00 -0.00000000000E+00 -0.76434853258E+03  0.76434853258E+03  0.00000000000E+00 0. -1.
         23    2    1    2    0    0 -0.26399764334E+02 -0.10612175797E+03 -0.12756834961E+03  0.19310009895E+03  0.95158758513E+02 0.  0.
         23    2    1    2    0    0 -0.14956280192E+03  0.92427174260E+02 -0.36192620496E+03  0.41325129064E+03  0.94203169351E+02 0.  0.
        -11    1    3    3    0    0  0.10223184045E+02 -0.92543413077E+02 -0.12226904518E+03  0.15368316826E+03  0.00000000000E+00 0.  1.
         11    1    3    3    0    0 -0.36622948379E+02 -0.13578344889E+02 -0.52993044297E+01  0.39416930694E+02  0.00000000000E+00 0. -1.
        -13    1    4    4    0    0 -0.11049089080E+03  0.10333022738E+03 -0.32462493566E+03  0.35814343731E+03  0.00000000000E+00 0. -1.
         13    1    4    4    0    0 -0.39071911122E+02 -0.10903053124E+02 -0.37301269302E+02  0.55107853321E+02  0.00000000000E+00 0.  1.
         21    1    1    2  503  501 -0.21881393834E+02  0.67564914926E+01 -0.12327362135E+02  0.26007872474E+02  0.00000000000E+00 0. -1.
          2    1    1    2  501    0  0.19784396009E+03  0.69380922133E+01 -0.14758900588E+03  0.24692688052E+03  0.00000000000E+00 0. -1.
<scales pt_clust_5="13000.00000" pt_clust_6="13000.00000" pt_clust_7="13000.00000" pt_clust_8="13000.00000" pt_clust_9="22.90078" pt_clust_10="178.88850"></scales>
<clustering>
<clus scale="   22.901">  1  9  2 -1</clus>
<clus scale="   94.203">  7  8 -1 -1</clus>
<clus scale="   95.159">  5  6 -1 -1</clus>
<clus scale="  144.837">  2  5  1 -1</clus>
<clus scale="  178.889">  1 10  2 -1</clus>
<clus scale="   22.901">  1  5  2 -1</clus>
</clustering>
</event>
<event>
10    2  0.6640105E-006  0.1095130E+03  0.7546771E-02  0.1262975E+00
         21   -1    0    0  503  502  0.00000000000E+00  0.00000000000E+00  0.20107560198E+03  0.20107560198E+03  0.00000000000E+00 0.  1.
          2   -1    0    0  502    0 -0.00000000000E+00 -0.00000000000E+00 -0.66257418146E+03  0.66257418146E+03  0.00000000000E+00 0. -1.
         23    2    1    2    0    0  0.58557683529E+02  0.16798870633E+01 -0.53254091181E+03  0.54334702687E+03  0.90522618948E+02 0.  0.
         23    2    1    2    0    0 -0.33106721881E+02 -0.56394137416E+02 -0.64385108692E+02  0.13153252234E+03  0.94228490607E+02 0.  0.
        -13    1    4    4    0    0 -0.20480753775E+02 -0.11677591744E+02 -0.79301698828E+02  0.82732018355E+02  0.00000000000E+00 0. -1.
         13    1    4    4    0    0 -0.12625968106E+02 -0.44716545672E+02  0.14916590136E+02  0.48800503980E+02  0.00000000000E+00 0.  1.
        -13    1    3    3    0    0  0.76549145170E+02  0.22858292672E+02 -0.40716235375E+03  0.41492584335E+03  0.00000000000E+00 0. -1.
         13    1    3    3    0    0 -0.17991461642E+02 -0.21178405609E+02 -0.12537855805E+03  0.12842118352E+03  0.00000000000E+00 0.  1.
         21    1    1    2  503  501  0.17270400510E+02  0.28151636519E+02  0.13445815241E+03  0.13845496063E+03  0.00000000000E+00 0.  1.
          2    1    1    2  501    0 -0.42721362158E+02  0.26562613834E+02  0.96928860344E+00  0.50315273613E+02  0.00000000000E+00 0. -1.
<scales pt_clust_5="13000.00000" pt_clust_6="13000.00000" pt_clust_7="13000.00000" pt_clust_8="13000.00000" pt_clust_9="33.02698" pt_clust_10="52.06112"></scales>
<clustering>
<clus scale="   33.027">  1  9  2 -1</clus>
<clus scale="   52.061">  1 10  2 -1</clus>
<clus scale="   90.523">  7  8 -1 -1</clus>
<clus scale="   94.228">  5  6 -1 -1</clus>
<clus scale="  106.341">  2  7  1 -1</clus>
<clus scale="   33.027">  1  5  2 -1</clus>
</clustering>
</event>
<event>
10    2  0.6640105E-006  0.2157248E+03  0.7546771E-02  0.1162697E+00
         21   -1    0    0  501  502  0.00000000000E+00  0.00000000000E+00  0.65410970406E+03  0.65410970406E+03  0.00000000000E+00 0.  1.
          2   -1    0    0  503    0 -0.00000000000E+00 -0.00000000000E+00 -0.76838766490E+03  0.76838766490E+03  0.00000000000E+00 0. -1.
         23    2    1    2    0    0 -0.67012289732E+02  0.55536396125E+02 -0.26545601075E+03  0.29012561594E+03  0.78300964944E+02 0.  0.
         23    2    1    2    0    0 -0.13840912985E+03 -0.73406086407E+01 -0.36854045139E+03  0.40410616455E+03  0.90932701274E+02 0.  0.
        -11    1    4    4    0    0 -0.96023107486E+02  0.68808435367E+00 -0.12957501375E+03  0.16127800476E+03  0.00000000000E+00 0.  1.
         11    1    4    4    0    0 -0.42386022364E+02 -0.80286929944E+01 -0.23896543764E+03  0.24282815980E+03  0.00000000000E+00 0. -1.
        -13    1    3    3    0    0 -0.42346431282E+02  0.60638735434E+02 -0.24968149416E+03  0.26040569311E+03  0.00000000000E+00 0.  1.
         13    1    3    3    0    0 -0.24665858451E+02 -0.51023393087E+01 -0.15774516594E+02  0.29719922835E+02  0.00000000000E+00 0. -1.
         21    1    1    2  503  502  0.19165054901E+03 -0.12487418419E+03  0.58404098861E+03  0.62723789043E+03  0.00000000000E+00 0.  1.
          2    1    1    2  501    0  0.13770870568E+02  0.76678396709E+02 -0.64322487304E+02  0.10102769804E+03  0.00000000000E+00 0. -1.
<scales pt_clust_5="13000.00000" pt_clust_6="13000.00000" pt_clust_7="13000.00000" pt_clust_8="13000.00000" pt_clust_9="195.62317" pt_clust_10="77.90520"></scales>
<clustering>
<clus scale="   77.905">  1 10  2 -1</clus>
<clus scale="   78.301">  7  8 -1 -1</clus>
<clus scale="   90.933">  5  6 -1 -1</clus>
<clus scale="  117.634">  2  7  1 -1</clus>
<clus scale="  195.623">  1  9  2 -1</clus>
<clus scale="   77.905">  1  5  2 -1</clus>
</clustering>
</event>
<event>
10    2  0.6640105E-006  0.2474193E+03  0.7546771E-02  0.1141914E+00
          2   -1    0    0  502    0 -0.00000000000E+00  0.00000000000E+00  0.19181331942E+04  0.19181331942E+04  0.00000000000E+00 0. -1.
         21   -1    0    0  503  502  0.00000000000E+00 -0.00000000000E+00 -0.16353438554E+03  0.16353438554E+03  0.00000000000E+00 0. -1.
         23    2    1    2    0    0  0.29970471826E+02 -0.79118287513E+02  0.14601832187E+03  0.19236888977E+03  0.92339086153E+02 0.  0.
         23    2    1    2    0    0 -0.10538655728E+03  0.29382340756E+03  0.16031786829E+04  0.16358962329E+04  0.92390878547E+02 0.  0.
        -11    1    4    4    0    0 -0.97179710142E+02  0.13437852656E+03  0.80309685828E+03  0.82004027233E+03  0.00000000000E+00 0.  1.
         11    1    4    4    0    0 -0.82068471401E+01  0.15944488099E+03  0.80008182460E+03  0.81585596062E+03  0.00000000000E+00 0. -1.
        -13    1    3    3    0    0 -0.73694526932E+01 -0.70673833838E+02  0.13495628830E+03  0.15251983273E+03  0.00000000000E+00 0.  1.
         13    1    3    3    0    0  0.37339924520E+02 -0.84444536745E+01  0.11062033564E+02  0.39849057047E+02  0.00000000000E+00 0. -1.
         21    1    1    2  503  501 -0.49670060809E+01 -0.19787998430E+02 -0.33285987670E+02  0.39040914519E+02  0.00000000000E+00 0. -1.
          2    1    1    2  501    0  0.80383091537E+02 -0.19491712161E+03  0.38687791628E+02  0.21436154255E+03  0.00000000000E+00 0. -1.
<scales pt_clust_5="13000.00000" pt_clust_6="13000.00000" pt_clust_7="13000.00000" pt_clust_8="13000.00000" pt_clust_9="20.40186" pt_clust_10="229.52178"></scales>
<clustering>
<clus scale="   20.402">  2  9  1 -1</clus>
<clus scale="   92.339">  7  8 -1 -1</clus>
<clus scale="   92.391">  5  6 -1 -1</clus>
<clus scale="  127.333">  1  7  2 -1</clus>
<clus scale="  229.522">  2 10  1 -1</clus>
<clus scale="   20.402">  2  5  1 -1</clus>
</clustering>
</event>
<event>
10    2  0.6640105E-006  0.1473020E+03  0.7546771E-02  0.1218913E+00
         21   -1    0    0  501  502  0.00000000000E+00  0.00000000000E+00  0.16651453582E+03  0.16651453582E+03  0.00000000000E+00 0.  1.
          1   -1    0    0  503    0 -0.00000000000E+00 -0.00000000000E+00 -0.98652383164E+03  0.98652383164E+03  0.00000000000E+00 0. -1.
         23    2    1    2    0    0  0.52177243856E+02 -0.38408337365E+01 -0.43897023312E+03  0.45177902031E+03  0.93124652192E+02 0.  0.
         23    2    1    2    0    0 -0.21020184582E+01 -0.11398377488E+03 -0.34367559184E+03  0.37333046060E+03  0.90917550390E+02 0.  0.
        -11    1    4    4    0    0 -0.29518801537E+02 -0.35738586146E+02 -0.50021174993E+02  0.68196217869E+02  0.00000000000E+00 0.  1.
         11    1    4    4    0    0  0.27416783079E+02 -0.78245188732E+02 -0.29365441684E+03  0.30513424273E+03  0.00000000000E+00 0. -1.
        -11    1    3    3    0    0  0.16627212640E+02 -0.44804211224E+02 -0.27356933259E+03  0.27771219144E+03  0.00000000000E+00 0.  1.
         11    1    3    3    0    0  0.35550031216E+02  0.40963377487E+02 -0.16540090053E+03  0.17406682887E+03  0.00000000000E+00 0. -1.
         21    1    1    2  503  502  0.87515573375E+02  0.10755209173E+03  0.67894377731E+02  0.15438936021E+03  0.00000000000E+00 0.  1.
          1    1    1    2  501    0 -0.13759079877E+03  0.10272516880E+02 -0.10525784860E+03  0.17353952634E+03  0.00000000000E+00 0. -1.
<scales pt_clust_5="13000.00000" pt_clust_6="13000.00000" pt_clust_7="13000.00000" pt_clust_8="13000.00000" pt_clust_9="115.89599" pt_clust_10="124.49671"></scales>
<clustering>
<clus scale="   90.918">  5  6 -1 -1</clus>
<clus scale="   93.125">  7  8 -1 -1</clus>
<clus scale="  106.815">  2  7  1 -1</clus>
<clus scale="  124.497">  1 10  2 -1</clus>
<clus scale="  115.896">  1  9  2 -1</clus>
<clus scale="  124.497">  1  5  2 -1</clus>
</clustering>
</event>
<event>
10    2  0.6640105E-006  0.2670675E+03  0.7546771E-02  0.1103128E+00
         21   -1    0    0  501  502  0.00000000000E+00  0.00000000000E+00  0.40431235894E+03  0.40431235894E+03  0.00000000000E+00 0.  1.
          1   -1    0    0  503    0 -0.00000000000E+00 -0.00000000000E+00 -0.73305913285E+03  0.73305913285E+03  0.00000000000E+00 0. -1.
         23    2    1    2    0    0  0.11303241968E+02 -0.24028260191E+03 -0.52526316020E+03  0.58525678074E+03  0.93598183082E+02 0.  0.
         23    2    1    2    0    0  0.69630091723E+02  0.31375563274E+03  0.50089269800E+02  0.33760920087E+03  0.90443854469E+02 0.  0.
        -11    1    4    4    0    0 -0.15778792473E+02  0.73565384223E+02  0.32868412802E+02  0.82104619894E+02  0.00000000000E+00 0. -1.
         11    1    4    4    0    0  0.85408884195E+02  0.24019024852E+03  0.17220856997E+02  0.25550458097E+03  0.00000000000E+00 0.  1.
        -13    1    3    3    0    0 -0.40091570989E+02 -0.77486850388E+02 -0.18739238236E+03  0.20670619491E+03  0.00000000000E+00 0.  1.
         13    1    3    3    0    0  0.51394812957E+02 -0.16279575152E+03 -0.33787077784E+03  0.37855058583E+03  0.00000000000E+00 0. -1.
         21    1    1    2  503  502 -0.47522108167E+02 -0.81217134810E+00  0.12192562297E+03  0.13086201864E+03  0.00000000000E+00 0.  1.
          1    1    1    2  501    0 -0.33411225523E+02 -0.72660859485E+02  0.24501493530E+02  0.83643491541E+02  0.00000000000E+00 0. -1.
<scales pt_clust_5="13000.00000" pt_clust_6="13000.00000" pt_clust_7="13000.00000" pt_clust_8="13000.00000" pt_clust_9="47.52905" pt_clust_10="84.39330"></scales>
<clustering>
<clus scale="   47.529">  1  9  2 -1</clus>
<clus scale="   84.393">  1 10  2 -1</clus>
<clus scale="   90.444">  5  6 -1 -1</clus>
<clus scale="   93.598">  7  8 -1 -1</clus>
<clus scale="  265.978">  1  5  2 -1</clus>
<clus scale="   47.529">  1  5  2 -1</clus>
</clustering>
</event>
<event>
10    2  0.6640105E-006  0.1191863E+03  0.7546771E-02  0.1245301E+00
         21   -1    0    0  503  502  0.00000000000E+00  0.00000000000E+00  0.68861303264E+02  0.68861303264E+02  0.00000000000E+00 0.  1.
          2   -1    0    0  502    0 -0.00000000000E+00 -0.00000000000E+00 -0.73781762216E+03  0.73781762216E+03  0.00000000000E+00 0. -1.
         23    2    1    2    0    0  0.34994203701E+02 -0.65270549994E+02 -0.49667098121E+03  0.50981142784E+03  0.87981755997E+02 0.  0.
         23    2    1    2    0    0 -0.17839094079E+02  0.89368584475E+02 -0.16828973664E+03  0.21177452947E+03  0.90675458125E+02 0.  0.
        -13    1    3    3    0    0  0.53982800047E+02 -0.75471059986E+02 -0.42264932620E+03  0.43271523723E+03  0.00000000000E+00 0. -1.
         13    1    3    3    0    0 -0.18988596346E+02  0.10200509992E+02 -0.74021655011E+02  0.77096190605E+02  0.00000000000E+00 0.  1.
        -13    1    4    4    0    0 -0.45931592061E+02  0.36024759276E+02 -0.42255095047E+02  0.72062386080E+02  0.00000000000E+00 0.  1.
         13    1    4    4    0    0  0.28092497982E+02  0.53343825199E+02 -0.12603464159E+03  0.13971214339E+03  0.00000000000E+00 0. -1.
         21    1    1    2  503  501 -0.18317869435E+02  0.14907671376E+02  0.26551717312E+02  0.35535569486E+02  0.00000000000E+00 0.  1.
          2    1    1    2  501    0  0.11627598125E+01 -0.39005705857E+02 -0.30547318354E+02  0.49557398625E+02  0.00000000000E+00 0. -1.
<scales pt_clust_5="13000.00000" pt_clust_6="13000.00000" pt_clust_7="13000.00000" pt_clust_8="13000.00000" pt_clust_9="23.61743" pt_clust_10="35.42636"></scales>
<clustering>
<clus scale="   23.617">  1  9  2 -1</clus>
<clus scale="   35.426">  1 10  2 -1</clus>
<clus scale="   87.982">  5  6 -1 -1</clus>
<clus scale="   90.675">  7  8 -1 -1</clus>
<clus scale="  117.150">  2  5  1 -1</clus>
<clus scale="   23.617">  1  5  2 -1</clus>
</clustering>
</event>
<event>
10    2  0.6640105E-006  0.2108878E+03  0.7546771E-02  0.1141230E+00
         21   -1    0    0  503  502  0.00000000000E+00  0.00000000000E+00  0.75800224991E+03  0.75800224991E+03  0.00000000000E+00 0.  1.
         -1   -1    0    0    0  501 -0.00000000000E+00 -0.00000000000E+00 -0.30007945946E+03  0.30007945946E+03  0.00000000000E+00 0.  1.
         23    2    1    2    0    0 -0.61889632226E+01 -0.21432761337E+03 -0.18456807805E+03  0.29639499605E+03  0.88374142903E+02 0.  0.
         23    2    1    2    0    0  0.73842179138E+02  0.11776611205E+03  0.10051726650E+03  0.19496324267E+03  0.92657544548E+02 0.  0.
        -11    1    4    4    0    0  0.38828140405E+02  0.49296945240E+01  0.56822264856E+02  0.68997798217E+02  0.00000000000E+00 0. -1.
         11    1    4    4    0    0  0.35014038733E+02  0.11283641752E+03  0.43695001647E+02  0.12596544446E+03  0.00000000000E+00 0.  1.
        -11    1    3    3    0    0 -0.43289497057E+02 -0.14369932396E+03 -0.13877772183E+03  0.20440824919E+03  0.00000000000E+00 0.  1.
         11    1    3    3    0    0  0.37100533835E+02 -0.70628289411E+02 -0.45790356222E+02  0.91986746865E+02  0.00000000000E+00 0. -1.
         21    1    1    2  503  501  0.22137946123E+02 -0.58404700524E+01  0.35379431725E+02  0.42141475273E+02  0.00000000000E+00 0. -1.
         -1    1    1    2    0  502 -0.89791162038E+02  0.10240197137E+03  0.50659417027E+03  0.52458199537E+03  0.00000000000E+00 0.  1.
<scales pt_clust_5="13000.00000" pt_clust_6="13000.00000" pt_clust_7="13000.00000" pt_clust_8="13000.00000" pt_clust_9="22.89541" pt_clust_10="122.92532"></scales>
<clustering>
<clus scale="   22.895">  1  9  2 -1</clus>
<clus scale="   88.374">  7  8 -1 -1</clus>
<clus scale="   92.658">  5  6 -1 -1</clus>
<clus scale="  122.925">  1 10  2 -1</clus>
<clus scale="  209.041">  2  7  1 -1</clus>
<clus scale="   22.895">  1  5  2 -1</clus>
</clustering>
</event>
<event>
10    2  0.6640105E-006  0.1338007E+03  0.7546771E-02  0.1229484E+00
         21   -1    0    0  501  502  0.00000000000E+00  0.00000000000E+00  0.26374225849E+03  0.26374225849E+03  0.00000000000E+00 0. -1.
          2   -1    0    0  503    0 -0.00000000000E+00 -0.00000000000E+00 -0.62829198461E+03  0.62829198461E+03  0.00000000000E+00 0. -1.
         23    2    1    2    0    0  0.59430078049E+02 -0.34900700820E+02 -0.41117093124E+02  0.12149859534E+03  0.91221161075E+02 0.  0.
         23    2    1    2    0    0 -0.15600401323E+02  0.11817199505E+03 -0.40239188891E+03  0.42955614483E+03  0.91603801062E+02 0.  0.
        -11    1    4    4    0    0  0.37187045009E+02  0.30996457460E+02 -0.13152969990E+03  0.14015605105E+03  0.00000000000E+00 0.  1.
         11    1    4    4    0    0 -0.52787446331E+02  0.87175537593E+02 -0.27086218901E+03  0.28940009378E+03  0.00000000000E+00 0. -1.
        -11    1    3    3    0    0  0.15956569062E+02 -0.57777985150E+02 -0.42753659707E+01  0.60093147849E+02  0.00000000000E+00 0. -1.
         11    1    3    3    0    0  0.43473508987E+02  0.22877284329E+02 -0.36841727153E+02  0.61405447491E+02  0.00000000000E+00 0.  1.
         21    1    1    2  503  502  0.84593084479E+02 -0.11841509587E+03  0.13313153585E+03  0.19723623072E+03  0.00000000000E+00 0. -1.
          2    1    1    2  501    0 -0.12842276121E+03  0.35143801635E+02 -0.54172279940E+02  0.14374327220E+03  0.00000000000E+00 0. -1.
<scales pt_clust_5="13000.00000" pt_clust_6="13000.00000" pt_clust_7="13000.00000" pt_clust_8="13000.00000" pt_clust_9="97.52630" pt_clust_10="121.15123"></scales>
<clustering>
<clus scale="   91.221">  7  8 -1 -1</clus>
<clus scale="   91.604">  5  6 -1 -1</clus>
<clus scale="  114.330">  2  7  1 -1</clus>
<clus scale="  121.151">  1 10  2 -1</clus>
<clus scale="   97.526">  1  9  2 -1</clus>
<clus scale="  121.151">  1  5  2 -1</clus>
</clustering>
</event>
<event>
10    2  0.6640105E-006  0.1109766E+03  0.7546771E-02  0.1260585E+00
          1   -1    0    0  503    0 -0.00000000000E+00  0.00000000000E+00  0.32675826009E+03  0.32675826009E+03  0.00000000000E+00 0. -1.
         21   -1    0    0  501  502  0.00000000000E+00 -0.00000000000E+00 -0.24858491989E+03  0.24858491989E+03  0.00000000000E+00 0. -1.
         23    2    1    2    0    0 -0.70313590579E+02  0.29182673969E+02  0.24223651422E+03  0.26793088262E+03  0.85514908418E+02 0.  0.
         23    2    1    2    0    0  0.25741713689E+02 -0.64163685755E+02  0.20216070454E+02  0.10795197387E+03  0.80407243228E+02 0.  0.
        -11    1    3    3    0    0 -0.91515108723E+01  0.46494923348E+02  0.71809606113E+02  0.86035734312E+02  0.00000000000E+00 0. -1.
         11    1    3    3    0    0 -0.61162079707E+02 -0.17312249379E+02  0.17042690810E+03  0.18189514831E+03  0.00000000000E+00 0.  1.
        -13    1    4    4    0    0  0.51769429571E+02 -0.26922152836E+02  0.32227374486E+00  0.58352206571E+02  0.00000000000E+00 0.  1.
         13    1    4    4    0    0 -0.26027715881E+02 -0.37241532918E+02  0.19893796709E+02  0.49599767294E+02  0.00000000000E+00 0. -1.
         21    1    1    2  503  502  0.15426991816E+02 -0.12728477258E+02 -0.58229006682E+02  0.61568039022E+02  0.00000000000E+00 0. -1.
          1    1    1    2  501    0  0.29144885074E+02  0.47709489044E+02 -0.12605023779E+03  0.13789228447E+03  0.00000000000E+00 0. -1.
<scales pt_clust_5="13000.00000" pt_clust_6="13000.00000" pt_clust_7="13000.00000" pt_clust_8="13000.00000" pt_clust_9="20.00016" pt_clust_10="55.68455"></scales>
<clustering>
<clus scale="   20.000">  2  9  1 -1</clus>
<clus scale="   55.685">  2 10  1 -1</clus>
<clus scale="   80.407">  7  8 -1 -1</clus>
<clus scale="   85.515">  5  6 -1 -1</clus>
<clus scale="  107.090">  2  7  1 -1</clus>
<clus scale="   20.000">  2  5  1 -1</clus>
</clustering>
</event>
<event>
10    2  0.6640105E-006  0.1207213E+03  0.7546771E-02  0.1247820E+00
         21   -1    0    0  503  502  0.00000000000E+00  0.00000000000E+00  0.43296743650E+02  0.43296743650E+02  0.00000000000E+00 0. -1.
          1   -1    0    0  502    0 -0.00000000000E+00 -0.00000000000E+00 -0.81105138520E+03  0.81105138520E+03  0.00000000000E+00 0. -1.
         23    2    1    2    0    0 -0.27117615257E+02  0.73633109677E+02 -0.47236556780E+03  0.48753323907E+03  0.91663676830E+02 0.  0.
         23    2    1    2    0    0 -0.82190361757E+01 -0.26625513203E+02 -0.27624898127E+03  0.29762305463E+03  0.10718914352E+03 0.  0.
        -11    1    3    3    0    0  0.19307634901E+02  0.52473452194E+01 -0.22381427519E+02  0.30020787716E+02  0.00000000000E+00 0.  1.
         11    1    3    3    0    0 -0.46425250158E+02  0.68385764458E+02 -0.44998414028E+03  0.45751245135E+03  0.00000000000E+00 0. -1.
        -13    1    4    4    0    0 -0.42148969639E+02  0.16728747341E+02 -0.18972793205E+03  0.19507197346E+03  0.00000000000E+00 0.  1.
         13    1    4    4    0    0  0.33929933463E+02 -0.43354260545E+02 -0.86521049219E+02  0.10255108118E+03  0.00000000000E+00 0. -1.
         21    1    1    2  503  501  0.49757062974E+01 -0.21900046702E+02  0.49710449836E+01  0.23001760518E+02  0.00000000000E+00 0. -1.
          1    1    1    2  501    0  0.30360945136E+02 -0.25107549771E+02 -0.24111137467E+02  0.46190074638E+02  0.00000000000E+00 0. -1.
<scales pt_clust_5="13000.00000" pt_clust_6="13000.00000" pt_clust_7="13000.00000" pt_clust_8="13000.00000" pt_clust_9="22.45818" pt_clust_10="46.38661"></scales>
<clustering>
<clus scale="   22.458">  1  9  2 -1</clus>
<clus scale="   46.387">  1 10  2 -1</clus>
<clus scale="   91.664">  5  6 -1 -1</clus>
<clus scale="  107.174">  2  5  1 -1</clus>
<clus scale="  107.189">  7  8 -1 -1</clus>
<clus scale="   22.458">  1  5  2 -1</clus>
</clustering>
</event>
<event>
10    2  0.6640105E-006  0.2135517E+03  0.7546771E-02  0.1139373E+00
         21   -1    0    0  501  502  0.00000000000E+00  0.00000000000E+00  0.38881786270E+03  0.38881786270E+03  0.00000000000E+00 0. -1.
          1   -1    0    0  503    0 -0.00000000000E+00 -0.00000000000E+00 -0.38329486276E+03  0.38329486276E+03  0.00000000000E+00 0. -1.
         23    2    1    2    0    0  0.15884570571E+03  0.13937638051E+03 -0.21750359457E+03  0.31663941886E+03  0.91076749278E+02 0.  0.
         23    2    1    2    0    0 -0.10122515563E+03 -0.97028777356E+02  0.50725005687E+02  0.17835057648E+03  0.97850836274E+02 0.  0.
        -13    1    3    3    0    0  0.90115542520E+02  0.82801838720E+02 -0.61357329377E+02  0.13690024605E+03  0.00000000000E+00 0. -1.
         13    1    3    3    0    0  0.68730163191E+02  0.56574541791E+02 -0.15614626519E+03  0.17973917281E+03  0.00000000000E+00 0.  1.
        -13    1    4    4    0    0  0.17327829502E+02 -0.30358990611E+02  0.11345425505E+02  0.36751063468E+02  0.00000000000E+00 0.  1.
         13    1    4    4    0    0 -0.11855298513E+03 -0.66669786745E+02  0.39379580183E+02  0.14159951301E+03  0.00000000000E+00 0. -1.
         21    1    1    2  503  502  0.17962271934E+02 -0.55556435599E+02  0.18966956193E+03  0.19845327781E+03  0.00000000000E+00 0. -1.
          1    1    1    2  501    0 -0.75582822012E+02  0.13208832445E+02 -0.17367973110E+02  0.78669452316E+02  0.00000000000E+00 0. -1.
<scales pt_clust_5="13000.00000" pt_clust_6="13000.00000" pt_clust_7="13000.00000" pt_clust_8="13000.00000" pt_clust_9="58.38802" pt_clust_10="72.89282"></scales>
<clustering>
<clus scale="   58.388">  1  9  2 -1</clus>
<clus scale="   72.893">  1 10  2 -1</clus>
<clus scale="   91.077">  5  6 -1 -1</clus>
<clus scale="   97.851">  7  8 -1 -1</clus>
<clus scale="  210.534">  2  5  1 -1</clus>
<clus scale="   58.388">  1  5  2 -1</clus>
</clustering>
</event>
<event>
10    2  0.6640105E-006  0.1493040E+03  0.7546771E-02  0.1220884E+00
         -3   -1    0    0    0  501 -0.00000000000E+00  0.00000000000E+00  0.62939117324E+02  0.62939117324E+02  0.00000000000E+00 0.  1.
         21   -1    0    0  501  502  0.00000000000E+00 -0.00000000000E+00 -0.13690093858E+04  0.13690093858E+04  0.00000000000E+00 0.  1.
         23    2    1    2    0    0 -0.33380318725E+02 -0.11237185104E+02 -0.28793684140E+02  0.10144543729E+03  0.90672931421E+02 0.  0.
         23    2    1    2    0    0 -0.78673032333E+02  0.84792749376E+02 -0.60492698863E+03  0.62363585924E+03  0.98009014813E+02 0.  0.
        -11    1    3    3    0    0  0.46705816479E+01 -0.39734598127E+02 -0.35435386744E+02  0.53444543734E+02  0.00000000000E+00 0.  1.
         11    1    3    3    0    0 -0.38050900373E+02  0.28497413023E+02  0.66417026043E+01  0.48000893551E+02  0.00000000000E+00 0. -1.
        -13    1    4    4    0    0 -0.96134202035E+02  0.66876778820E+02 -0.56092358804E+03  0.57301794035E+03  0.00000000000E+00 0.  1.
         13    1    4    4    0    0  0.17461169702E+02  0.17915970556E+02 -0.44003400597E+02  0.50617918887E+02  0.00000000000E+00 0. -1.
         21    1    1    2  503  502 -0.21679424319E+02 -0.76738752395E+02 -0.32524244178E+03  0.33487531932E+03  0.00000000000E+00 0.  1.
         -3    1    1    2    0  503  0.13373277538E+03  0.31831881225E+01 -0.34710715393E+03  0.37199188729E+03  0.00000000000E+00 0.  1.
<scales pt_clust_5="13000.00000" pt_clust_6="13000.00000" pt_clust_7="13000.00000" pt_clust_8="13000.00000" pt_clust_9="79.74229" pt_clust_10="112.63184"></scales>
<clustering>
<clus scale="   79.742">  2  9  1 -1</clus>
<clus scale="   90.673">  5  6 -1 -1</clus>
<clus scale="   98.009">  7  8 -1 -1</clus>
<clus scale="   98.417">  1  5  2 -1</clus>
<clus scale="  112.632">  2 10  1 -1</clus>
<clus scale="   79.742">  2  5  1 -1</clus>
</clustering>
</event>
<event>
10    2  0.6640105E-006  0.2220650E+03  0.7546771E-02  0.1132449E+00
          1   -1    0    0  503    0 -0.00000000000E+00  0.00000000000E+00  0.15397472086E+03  0.15397472086E+03  0.00000000000E+00 0. -1.
         21   -1    0    0  501  502  0.00000000000E+00 -0.00000000000E+00 -0.52128929539E+03  0.52128929539E+03  0.00000000000E+00 0. -1.
         23    2    1    2    0    0  0.77259568175E+02  0.15794913853E+03 -0.10702820278E+03  0.22505288182E+03  0.90976877214E+02 0.  0.
         23    2    1    2    0    0 -0.62574815507E+02 -0.22902814490E+03 -0.13516191158E+03  0.28834963894E+03  0.92234880817E+02 0.  0.
        -11    1    4    4    0    0 -0.68029321985E+02 -0.12358325065E+03 -0.11231438248E+03  0.18032007377E+03  0.00000000000E+00 0. -1.
         11    1    4    4    0    0  0.54545064777E+01 -0.10544489425E+03 -0.22847529098E+02  0.10802956517E+03  0.00000000000E+00 0.  1.
        -11    1    3    3    0    0  0.56739315901E+02  0.32526737725E+02 -0.12311281740E+02  0.66550028505E+02  0.00000000000E+00 0. -1.
         11    1    3    3    0    0  0.20520252274E+02  0.12542240081E+03 -0.94716921040E+02  0.15850285332E+03  0.00000000000E+00 0.  1.
         21    1    1    2  503  502 -0.34579641243E+02  0.75856340046E+01 -0.34486176767E+02  0.49422563873E+02  0.00000000000E+00 0.  1.
          1    1    1    2  501    0  0.19894888575E+02  0.63493372366E+02 -0.90638283403E+02  0.11243893162E+03  0.00000000000E+00 0. -1.
<scales pt_clust_5="13000.00000" pt_clust_6="13000.00000" pt_clust_7="13000.00000" pt_clust_8="13000.00000" pt_clust_9="35.40188" pt_clust_10="66.30266"></scales>
<clustering>
<clus scale="   35.402">  2  9  1 -1</clus>
<clus scale="   66.303">  2 10  1 -1</clus>
<clus scale="   90.977">  7  8 -1 -1</clus>
<clus scale="   92.235">  5  6 -1 -1</clus>
<clus scale="  221.545">  1  7  2 -1</clus>
<clus scale="   35.402">  2  5  1 -1</clus>
</clustering>
</event>
<event>
10    2  0.6640105E-006  0.9987789E+02  0.7546771E-02  0.1282073E+00
          1   -1    0    0  503    0 -0.00000000000E+00  0.00000000000E+00  0.73223940094E+03  0.73223940094E+03  0.00000000000E+00 0. -1.
         21   -1    0    0  501  502  0.00000000000E+00 -0.00000000000E+00 -0.23607672200E+03  0.23607672200E+03  0.00000000000E+00 0.  1.
         23    2    1    2    0    0  0.39176052041E+02 -0.17954369769E+02  0.35014796569E+03  0.36443288980E+03  0.91381676738E+02 0.  0.
         23    2    1    2    0    0  0.34026955046E+02  0.51439315913E+02  0.24050842022E+03  0.26562829453E+03  0.94394140533E+02 0.  0.
        -11    1    4    4    0    0 -0.29730757271E+02  0.28447068704E+02  0.12617959280E+03  0.13271941563E+03  0.00000000000E+00 0.  1.
         11    1    4    4    0    0  0.63757712317E+02  0.22992247209E+02  0.11432882742E+03  0.13290887891E+03  0.00000000000E+00 0. -1.
        -13    1    3    3    0    0 -0.25507473692E+02 -0.32865592312E+01  0.42168267714E+02  0.49392261415E+02  0.00000000000E+00 0. -1.
         13    1    3    3    0    0  0.64683525733E+02 -0.14667810537E+02  0.30797969798E+03  0.31504062839E+03  0.00000000000E+00 0.  1.
         21    1    1    2  503  502 -0.75747079169E+02 -0.63159864838E+02 -0.20302448108E+03  0.22571160459E+03  0.00000000000E+00 0.  1.
          1    1    1    2  501    0  0.25440720821E+01  0.29674918694E+02  0.10853077411E+03  0.11254333402E+03  0.00000000000E+00 0. -1.
<scales pt_clust_5="13000.00000" pt_clust_6="13000.00000" pt_clust_7="13000.00000" pt_clust_8="13000.00000" pt_clust_9="81.76086" pt_clust_10="29.78379"></scales>
<clustering>
<clus scale="   29.784">  2 10  1 -1</clus>
<clus scale="   81.761">  2  9  1 -1</clus>
<clus scale="   91.382">  7  8 -1 -1</clus>
<clus scale="   94.394">  5  6 -1 -1</clus>
<clus scale="   97.036">  1  7  2 -1</clus>
<clus scale="   29.784">  2  5  1 -1</clus>
</clustering>
</event>
<event>
10    2  0.6640105E-006  0.1208404E+03  0.7546771E-02  0.1242359E+00
          1   -1    0    0  503    0 -0.00000000000E+00  0.00000000000E+00  0.11028918990E+03  0.11028918990E+03  0.00000000000E+00 0. -1.
         21   -1    0    0  501  502  0.00000000000E+00 -0.00000000000E+00 -0.35167064923E+03  0.35167064923E+03  0.00000000000E+00 0. -1.
         23    2    1    2    0    0  0.41138349113E+02  0.50135678817E+02 -0.92565641320E+01  0.11171770578E+03  0.90494263614E+02 0.  0.
         23    2    1    2    0    0 -0.89190734102E+02 -0.60184325790E+02 -0.10196772302E+03  0.17475213821E+03  0.92540548683E+02 0.  0.
        -11    1    4    4    0    0 -0.45996312822E+02  0.19590491046E+02 -0.25589578292E+02  0.56162929498E+02  0.00000000000E+00 0.  1.
         11    1    4    4    0    0 -0.43194421280E+02 -0.79774816836E+02 -0.76378144726E+02  0.11858920871E+03  0.00000000000E+00 0. -1.
        -13    1    3    3    0    0  0.34611253596E+02 -0.11516122068E+02  0.21677848821E+02  0.42432170255E+02  0.00000000000E+00 0.  1.
         13    1    3    3    0    0  0.65270955173E+01  0.61651800886E+02 -0.30934412953E+02  0.69285535526E+02  0.00000000000E+00 0. -1.
         21    1    1    2  503  502  0.22803321605E+02 -0.33389429211E+02 -0.51452372464E+01  0.40759280238E+02  0.00000000000E+00 0.  1.
          1    1    1    2  501    0  0.25249063383E+02  0.43438076183E+02 -0.12501193493E+03  0.13473071491E+03  0.00000000000E+00 0. -1.
<scales pt_clust_5="13000.00000" pt_clust_6="13000.00000" pt_clust_7="13000.00000" pt_clust_8="13000.00000" pt_clust_9="40.43322" pt_clust_10="49.36582"></scales>
<clustering>
<clus scale="   40.433">  1  9  2 -1</clus>
<clus scale="   49.366">  2 10  1 -1</clus>
<clus scale="   90.494">  7  8 -1 -1</clus>
<clus scale="   92.541">  5  6 -1 -1</clus>
<clus scale="  119.281">  1  7  2 -1</clus>
<clus scale="   49.366">  2  5  1 -1</clus>
</clustering>
</event>
<event>
10    2  0.6640105E-006  0.2075284E+03  0.7546771E-02  0.1144584E+00
          2   -1    0    0  503    0 -0.00000000000E+00  0.00000000000E+00  0.13770961497E+03  0.13770961497E+03  0.00000000000E+00 0. -1.
         21   -1    0    0  501  502  0.00000000000E+00 -0.00000000000E+00 -0.76281326757E+03  0.76281326757E+03  0.00000000000E+00 0. -1.
         23    2    1    2    0    0 -0.84587463503E+02  0.12081997735E+03 -0.13746024568E+03  0.22452568941E+03  0.98812753001E+02 0.  0.
         23    2    1    2    0    0  0.15482034282E+03 -0.20649011051E+03 -0.34287411254E+03  0.43798349641E+03  0.87517894117E+02 0.  0.
        -11    1    4    4    0    0  0.77947466472E+02 -0.17019347240E+03 -0.22589628320E+03  0.29337817973E+03  0.00000000000E+00 0. -1.
         11    1    4    4    0    0  0.76872876347E+02 -0.36296638105E+02 -0.11697782933E+03  0.14460531668E+03  0.00000000000E+00 0.  1.
        -13    1    3    3    0    0 -0.43440324951E+02  0.54863645621E+02 -0.12843830209E+03  0.14626509798E+03  0.00000000000E+00 0.  1.
         13    1    3    3    0    0 -0.41147138552E+02  0.65956331726E+02 -0.90219435934E+01  0.78260591437E+02  0.00000000000E+00 0. -1.
         21    1    1    2  503  502  0.33301246312E+02  0.19241724970E+02 -0.99943753959E+02  0.10708861257E+03  0.00000000000E+00 0.  1.
          2    1    1    2  501    0 -0.10353412563E+03  0.66428408191E+02 -0.44825540419E+02  0.13092508415E+03  0.00000000000E+00 0. -1.
<scales pt_clust_5="13000.00000" pt_clust_6="13000.00000" pt_clust_7="13000.00000" pt_clust_8="13000.00000" pt_clust_9="38.46059" pt_clust_10="120.74759"></scales>
<clustering>
<clus scale="   38.461">  2  9  1 -1</clus>
<clus scale="   87.518">  5  6 -1 -1</clus>
<clus scale="   98.813">  7  8 -1 -1</clus>
<clus scale="  120.748">  2 10  1 -1</clus>
<clus scale="  202.394">  2  5  1 -1</clus>
<clus scale="   38.461">  2  5  1 -1</clus>
</clustering>
</event>
<event>
10    2  0.6640105E-006  0.4120750E+03  0.7546771E-02  0.1092530E+00
          2   -1    0    0  503    0 -0.00000000000E+00  0.00000000000E+00  0.39679829130E+03  0.39679829130E+03  0.00000000000E+00 0. -1.
         21   -1    0    0  501  502  0.00000000000E+00 -0.00000000000E+00 -0.10019398489E+04  0.10019398489E+04  0.00000000000E+00 0. -1.
         23    2    1    2    0    0  0.75010150631E+01 -0.16321160535E+02  0.12368727814E+03  0.15615033887E+03  0.93604166827E+02 0.  0.
         23    2    1    2    0    0  0.13835033121E+03  0.35975131364E+03 -0.42083857352E+03  0.57790435038E+03  0.91140064844E+02 0.  0.
        -11    1    3    3    0    0  0.49678893267E+02 -0.44178183334E+01  0.79971123854E+02  0.94249085967E+02  0.00000000000E+00 0.  1.
         11    1    3    3    0    0 -0.42177878204E+02 -0.11903342202E+02  0.43716154282E+02  0.61901252900E+02  0.00000000000E+00 0. -1.
        -13    1    4    4    0    0  0.16540428736E+02  0.13188520912E+03 -0.10217269919E+03  0.16765009581E+03  0.00000000000E+00 0.  1.
         13    1    4    4    0    0  0.12180990248E+03  0.22786610452E+03 -0.31866587433E+03  0.41025425457E+03  0.00000000000E+00 0. -1.
         21    1    1    2  503  502  0.68772525584E+02  0.25414456599E+01 -0.24279577691E+03  0.25236067148E+03  0.00000000000E+00 0.  1.
          2    1    1    2  501    0 -0.21462387186E+03 -0.34597159877E+03 -0.65194485261E+02  0.41232277943E+03  0.00000000000E+00 0. -1.
<scales pt_clust_5="13000.00000" pt_clust_6="13000.00000" pt_clust_7="13000.00000" pt_clust_8="13000.00000" pt_clust_9="68.81947" pt_clust_10="401.86991"></scales>
<clustering>
<clus scale="   68.819">  2  9  1 -1</clus>
<clus scale="   91.140">  7  8 -1 -1</clus>
<clus scale="   93.604">  5  6 -1 -1</clus>
<clus scale="   95.431">  1  5  2 -1</clus>
<clus scale="  401.870">  2 10  1 -1</clus>
<clus scale="   68.819">  2  5  1 -1</clus>
</clustering>
</event>
<event>
10    2  0.1860401E-005  0.1545818E+03  0.7546771E-02  0.1195323E+00
         21   -1    0    0  501  502  0.00000000000E+00  0.00000000000E+00  0.25295104558E+03  0.25295104558E+03  0.00000000000E+00 0.  1.
          1   -1    0    0  503    0 -0.00000000000E+00 -0.00000000000E+00 -0.93097117040E+03  0.93097117040E+03  0.00000000000E+00 0. -1.
         23    2    1    2    0    0 -0.91910745032E+02 -0.79645865984E+02 -0.71320657484E+03  0.72905754943E+03  0.89834531059E+02 0.  0.
         23    2    1    2    0    0  0.14706927734E+03  0.12786199797E+03  0.15651007528E+03  0.26632135343E+03  0.91943443302E+02 0.  0.
        -11    1    4    4    0    0  0.12531538878E+03  0.12231787412E+03  0.91574028515E+02  0.19761430033E+03  0.00000000000E+00 0.  1.
         11    1    4    4    0    0  0.21753888561E+02  0.55441238461E+01  0.64936046764E+02  0.68707053103E+02  0.00000000000E+00 0. -1.
        -13    1    3    3    0    0 -0.10680200461E+03 -0.61857338744E+02 -0.65248162099E+03  0.66405215479E+03  0.00000000000E+00 0. -1.
         13    1    3    3    0    0  0.14891259580E+02 -0.17788527240E+02 -0.60724953845E+02  0.65005394643E+02  0.00000000000E+00 0.  1.
         21    1    1    2  503  502 -0.67246007443E+01 -0.29914745393E+02  0.20954127743E+02  0.37137416665E+02  0.00000000000E+00 0. -1.
          1    1    1    2  501    0 -0.48433931567E+02 -0.18301386590E+02 -0.14227775301E+03  0.15140589645E+03  0.00000000000E+00 0. -1.
<scales pt_clust_5="13000.00000" pt_clust_6="13000.00000" pt_clust_7="13000.00000" pt_clust_8="13000.00000" pt_clust_9="30.66125" pt_clust_10="52.12272"></scales>
<clustering>
<clus scale="   30.661">  1  9  2 -1</clus>
<clus scale="   52.123">  1 10  2 -1</clus>
<clus scale="   89.835">  7  8 -1 -1</clus>
<clus scale="   91.943">  5  6 -1 -1</clus>
<clus scale="  153.337">  2  7  1 -1</clus>
<clus scale="   30.661">  1  5  2 -1</clus>
</clustering>
</event>
<event>
10    2  0.6640105E-006  0.1897672E+03  0.7546771E-02  0.1183735E+00
         21   -1    0    0  503  502  0.00000000000E+00  0.00000000000E+00  0.84136994295E+03  0.84136994295E+03  0.00000000000E+00 0.  1.
         -1   -1    0    0    0  501 -0.00000000000E+00 -0.00000000000E+00 -0.17716576745E+03  0.17716576745E+03  0.00000000000E+00 0.  1.
         23    2    1    2    0    0  0.53362862754E+02  0.13570837249E+02 -0.32742006811E+02  0.11259217387E+03  0.92591553939E+02 0.  0.
         23    2    1    2    0    0 -0.15080387685E+03  0.12350688909E+03  0.36154093309E+03  0.42074381474E+03  0.91201701852E+02 0.  0.
        -11    1    4    4    0    0 -0.74252703399E+02  0.40125028999E+02  0.75963171633E+02  0.11355124552E+03  0.00000000000E+00 0. -1.
         11    1    4    4    0    0 -0.76551173448E+02  0.83381860090E+02  0.28557776146E+03  0.30719256922E+03  0.00000000000E+00 0.  1.
        -11    1    3    3    0    0  0.72268352554E+01 -0.30576835872E+02 -0.37065423049E+02  0.48590283242E+02  0.00000000000E+00 0.  1.
         11    1    3    3    0    0  0.46136027499E+02  0.44147673121E+02  0.43234162383E+01  0.64001890623E+02  0.00000000000E+00 0. -1.
         21    1    1    2  503  501 -0.54547583462E+01 -0.48173544124E+02  0.34545976443E+03  0.34884508537E+03  0.00000000000E+00 0.  1.
         -1    1    1    2    0  502  0.10289577244E+03 -0.88904182213E+02 -0.10054515213E+02  0.13635463643E+03  0.00000000000E+00 0.  1.
<scales pt_clust_5="13000.00000" pt_clust_6="13000.00000" pt_clust_7="13000.00000" pt_clust_8="13000.00000" pt_clust_9="48.48139" pt_clust_10="166.41474"></scales>
<clustering>
<clus scale="   48.481">  1  9  2 -1</clus>
<clus scale="   91.202">  5  6 -1 -1</clus>
<clus scale="   92.592">  7  8 -1 -1</clus>
<clus scale="  107.087">  2  7  1 -1</clus>
<clus scale="  166.415">  1 10  2 -1</clus>
<clus scale="   48.481">  1  5  2 -1</clus>
</clustering>
</event>
<event>
10    2  0.6640105E-006  0.1411171E+03  0.7546771E-02  0.1230234E+00
          3   -1    0    0  503    0 -0.00000000000E+00  0.00000000000E+00  0.86952090843E+03  0.86952090843E+03  0.00000000000E+00 0. -1.
         21   -1    0    0  501  502  0.00000000000E+00 -0.00000000000E+00 -0.79090266722E+02  0.79090266722E+02  0.00000000000E+00 0.  1.
         23    2    1    2    0    0 -0.39917447463E+00 -0.29278758230E+02  0.19715062852E+03  0.22048183832E+03  0.94268052278E+02 0.  0.
         23    2    1    2    0    0  0.53731285868E+01  0.92943605778E+02  0.16475465068E+03  0.21108394016E+03  0.93514440095E+02 0.  0.
        -11    1    4    4    0    0  0.17988064401E+01  0.59218176122E+02  0.16689838498E+03  0.17710194521E+03  0.00000000000E+00 0.  1.
         11    1    4    4    0    0  0.35743221467E+01  0.33725429657E+02 -0.21437342947E+01  0.33981994954E+02  0.00000000000E+00 0. -1.
        -13    1    3    3    0    0  0.38435501909E+02  0.18649801337E+01  0.39444620374E+02  0.55105753188E+02  0.00000000000E+00 0.  1.
         13    1    3    3    0    0 -0.38834676384E+02 -0.31143738364E+02  0.15770600815E+03  0.16537608514E+03  0.00000000000E+00 0. -1.
         21    1    1    2  503  502  0.52542249731E+01 -0.13759072109E+03  0.77150061544E+02  0.15783201642E+03  0.00000000000E+00 0.  1.
          3    1    1    2  501    0 -0.10228179085E+02  0.73925873541E+02  0.35137530095E+03  0.35921338024E+03  0.00000000000E+00 0. -1.
<scales pt_clust_5="13000.00000" pt_clust_6="13000.00000" pt_clust_7="13000.00000" pt_clust_8="13000.00000" pt_clust_9="105.68387" pt_clust_10="74.63013"></scales>
<clustering>
<clus scale="   74.630">  2 10  1 -1</clus>
<clus scale="   93.514">  5  6 -1 -1</clus>
<clus scale="   94.268">  7  8 -1 -1</clus>
<clus scale="   95.956">  1  7  2 -1</clus>
<clus scale="  105.684">  2  9  1 -1</clus>
<clus scale="   74.630">  2  5  1 -1</clus>
</clustering>
</event>
<event>
10    2  0.6640105E-006  0.9268676E+02  0.7546771E-02  0.1296968E+00
          2   -1    0    0  503    0 -0.00000000000E+00  0.00000000000E+00  0.21837878405E+03  0.21837878405E+03  0.00000000000E+00 0. -1.
         21   -1    0    0  501  502  0.00000000000E+00 -0.00000000000E+00 -0.17794676022E+03  0.17794676022E+03  0.00000000000E+00 0.  1.
         23    2    1    2    0    0 -0.13330320401E+02 -0.44938403472E+02  0.88390759973E+02  0.13481048453E+03  0.90353653726E+02 0.  0.
         23    2    1    2    0    0 -0.33039044433E+02 -0.45076051304E+02  0.72517187782E+01  0.10722021730E+03  0.91214904014E+02 0.  0.
        -11    1    3    3    0    0 -0.45570551698E+02 -0.10919543147E+01  0.52932020387E+02  0.69854608499E+02  0.00000000000E+00 0. -1.
         11    1    3    3    0    0  0.32240231297E+02 -0.43846449158E+02  0.35458739586E+02  0.64955876030E+02  0.00000000000E+00 0.  1.
        -13    1    4    4    0    0  0.23543791097E+02  0.97857872700E+01  0.12174325861E+02  0.28253954447E+02  0.00000000000E+00 0.  1.
         13    1    4    4    0    0 -0.56582835531E+02 -0.54861838574E+02 -0.49226070832E+01  0.78966262852E+02  0.00000000000E+00 0. -1.
         21    1    1    2  503  502  0.31100659481E+02  0.48743232378E+02 -0.83804775800E+02  0.10181549081E+03  0.00000000000E+00 0.  1.
          2    1    1    2  501    0  0.15268705354E+02  0.41271222398E+02  0.28594320879E+02  0.52479351635E+02  0.00000000000E+00 0. -1.
<scales pt_clust_5="13000.00000" pt_clust_6="13000.00000" pt_clust_7="13000.00000" pt_clust_8="13000.00000" pt_clust_9="82.02940" pt_clust_10="44.00510"></scales>
<clustering>
<clus scale="   44.005">  2 10  1 -1</clus>
<clus scale="   82.029">  2  9  1 -1</clus>
<clus scale="   90.354">  5  6 -1 -1</clus>
<clus scale="   91.215">  7  8 -1 -1</clus>
<clus scale="   91.839">  1  5  2 -1</clus>
<clus scale="   44.005">  2  5  1 -1</clus>
</clustering>
</event>
<event>
10    2  0.6640105E-006  0.3121161E+03  0.7546771E-02  0.1104593E+00
          1   -1    0    0  503    0 -0.00000000000E+00  0.00000000000E+00  0.85379155236E+03  0.85379155236E+03  0.00000000000E+00 0. -1.
         21   -1    0    0  501  502  0.00000000000E+00 -0.00000000000E+00 -0.28814607737E+03  0.28814607737E+03  0.00000000000E+00 0. -1.
         23    2    1    2    0    0 -0.33882111926E+02 -0.11602340618E+03  0.38636178587E+02  0.16504862183E+03  0.10554082140E+03 0.  0.
         23    2    1    2    0    0 -0.10606202040E+03  0.11649068562E+03  0.88193420000E+02  0.20094446942E+03  0.88212065240E+02 0.  0.
        -11    1    3    3    0    0 -0.12035112442E+02  0.19360376480E+02  0.10306341127E+02  0.25017769212E+02  0.00000000000E+00 0.  1.
         11    1    3    3    0    0 -0.21846999484E+02 -0.13538378266E+03  0.28329837460E+02  0.14003085262E+03  0.00000000000E+00 0. -1.
        -13    1    4    4    0    0 -0.42205594489E+02  0.48403085421E+02  0.86307939750E+02  0.10757895402E+03  0.00000000000E+00 0. -1.
         13    1    4    4    0    0 -0.63856425907E+02  0.68087600201E+02  0.18854802502E+01  0.93365515403E+02  0.00000000000E+00 0.  1.
         21    1    1    2  503  502  0.22941782717E+03 -0.26742004548E+03  0.19053768743E+03  0.40056289204E+03  0.00000000000E+00 0. -1.
          1    1    1    2  501    0 -0.89473694845E+02  0.26695276604E+03  0.24827818897E+03  0.37538164644E+03  0.00000000000E+00 0. -1.
<scales pt_clust_5="13000.00000" pt_clust_6="13000.00000" pt_clust_7="13000.00000" pt_clust_8="13000.00000" pt_clust_9="312.11610" pt_clust_10="13000.00000"></scales>
<clustering>
<clus scale="   88.212">  7  8 -1 -1</clus>
<clus scale="  105.541">  5  6 -1 -1</clus>
<clus scale="  160.463">  1  5  2 -1</clus>
<clus scale="  171.247">  1  7  2 -1</clus>
<clus scale="  312.116">  2  9  1 -1</clus>
<clus scale="  312.116">  2  5  1 -1</clus>
</clustering>
</event>
<event>
10    2  0.6640105E-006  0.9876189E+02  0.7546771E-02  0.1283723E+00
         21   -1    0    0  501  502  0.00000000000E+00  0.00000000000E+00  0.15331645608E+03  0.15331645608E+03  0.00000000000E+00 0.  1.
          2   -1    0    0  503    0 -0.00000000000E+00 -0.00000000000E+00 -0.38513982290E+03  0.38513982290E+03  0.00000000000E+00 0. -1.
         23    2    1    2    0    0  0.13815762243E+01 -0.21332278465E+02 -0.14230078009E+03  0.17064702885E+03  0.91727430925E+02 0.  0.
         23    2    1    2    0    0  0.31113716020E+02  0.58094697043E+02 -0.10628023913E+03  0.15414585434E+03  0.90124347616E+02 0.  0.
        -13    1    3    3    0    0 -0.29554259593E+02  0.16114243732E+02 -0.10238863782E+03  0.10778012927E+03  0.00000000000E+00 0.  1.
         13    1    3    3    0    0  0.30935835817E+02 -0.37446522197E+02 -0.39912142274E+02  0.62866899583E+02  0.00000000000E+00 0. -1.
        -13    1    4    4    0    0  0.17954835381E+02 -0.17223742100E+02 -0.21689916315E+01  0.24974745849E+02  0.00000000000E+00 0.  1.
         13    1    4    4    0    0  0.13158880639E+02  0.75318439144E+02 -0.10411124749E+03  0.12917110849E+03  0.00000000000E+00 0. -1.
         21    1    1    2  503  502 -0.41382848998E+02 -0.74226126719E+02  0.94388304175E+02  0.12700870066E+03  0.00000000000E+00 0.  1.
          2    1    1    2  501    0  0.88875567536E+01  0.37463708141E+02 -0.77630651781E+02  0.86654695134E+02  0.00000000000E+00 0. -1.
<scales pt_clust_5="13000.00000" pt_clust_6="13000.00000" pt_clust_7="13000.00000" pt_clust_8="13000.00000" pt_clust_9="57.94765" pt_clust_10="38.50350"></scales>
<clustering>
<clus scale="   38.504">  1 10  2 -1</clus>
<clus scale="   57.948">  1  9  2 -1</clus>
<clus scale="   90.124">  7  8 -1 -1</clus>
<clus scale="   91.727">  5  6 -1 -1</clus>
<clus scale="   97.275">  1  7  2 -1</clus>
<clus scale="   38.504">  1  5  2 -1</clus>
</clustering>
</event>
<event>
10    2  0.6640105E-006  0.1393363E+03  0.7546771E-02  0.1214674E+00
         21   -1    0    0  503  502  0.00000000000E+00  0.00000000000E+00  0.10631580692E+03  0.10631580692E+03  0.00000000000E+00 0.  1.
         -1   -1    0    0    0  501 -0.00000000000E+00 -0.00000000000E+00 -0.12051594312E+04  0.12051594312E+04  0.00000000000E+00 0.  1.
         23    2    1    2    0    0 -0.72989591410E+02  0.50398877916E+02 -0.61695794396E+03  0.62999477705E+03  0.91590322344E+02 0.  0.
         23    2    1    2    0    0  0.12139788812E+03 -0.88141131109E+02 -0.40633535566E+03  0.44230894513E+03  0.89568272553E+02 0.  0.
        -11    1    4    4    0    0  0.95082168034E+02 -0.88529258100E+02 -0.39061479565E+03  0.41165272597E+03  0.00000000000E+00 0. -1.
         11    1    4    4    0    0  0.26315720084E+02  0.38812699036E+00 -0.15720560012E+02  0.30656219160E+02  0.00000000000E+00 0.  1.
        -11    1    3    3    0    0 -0.50283496841E+02  0.72976001393E+02 -0.52937983073E+03  0.53674661808E+03  0.00000000000E+00 0.  1.
         11    1    3    3    0    0 -0.22706094569E+02 -0.22577123477E+02 -0.87578113232E+02  0.93248158975E+02  0.00000000000E+00 0. -1.
         21    1    1    2  503  501  0.21995172359E+02 -0.12493151345E+02  0.67457541806E+02  0.72044336239E+02  0.00000000000E+00 0.  1.
         -1    1    1    2    0  502 -0.70403469068E+02  0.50235404539E+02 -0.14300786651E+03  0.16712717975E+03  0.00000000000E+00 0.  1.
<scales pt_clust_5="13000.00000" pt_clust_6="13000.00000" pt_clust_7="13000.00000" pt_clust_8="13000.00000" pt_clust_9="25.29558" pt_clust_10="78.19464"></scales>
<clustering>
<clus scale="   25.296">  1  9  2 -1</clus>
<clus scale="   78.195">  1 10  2 -1</clus>
<clus scale="   89.568">  5  6 -1 -1</clus>
<clus scale="   91.590">  7  8 -1 -1</clus>
<clus scale="  138.016">  1  5  2 -1</clus>
<clus scale="   25.296">  1  5  2 -1</clus>
</clustering>
</event>
<event>
10    2  0.6640105E-006  0.1001021E+03  0.7546771E-02  0.1280091E+00
         21   -1    0    0  503  502  0.00000000000E+00  0.00000000000E+00  0.28542085766E+03  0.28542085766E+03  0.00000000000E+00 0.  1.
         -1   -1    0    0    0  501 -0.00000000000E+00 -0.00000000000E+00 -0.55853563466E+03  0.55853563466E+03  0.00000000000E+00 0.  1.
         23    2    1    2    0    0  0.24022016587E+02 -0.62546690312E+01 -0.29925850871E+03  0.31386281029E+03  0.91312816641E+02 0.  0.
         23    2    1    2    0    0 -0.93650536359E+02 -0.41062830234E+02 -0.17882346492E+03  0.22533540881E+03  0.91332556463E+02 0.  0.
        -11    1    4    4    0    0 -0.10643776296E+03 -0.14342185325E+02 -0.13685115943E+03  0.17396245429E+03  0.00000000000E+00 0.  1.
         11    1    4    4    0    0  0.12787226599E+02 -0.26720644908E+02 -0.41972305488E+02  0.51372954523E+02  0.00000000000E+00 0. -1.
        -13    1    3    3    0    0  0.44933976808E+02  0.22327812810E+02 -0.23684294028E+03  0.24209950817E+03  0.00000000000E+00 0. -1.
         13    1    3    3    0    0 -0.20911960221E+02 -0.28582481841E+02 -0.62415568425E+02  0.71763302114E+02  0.00000000000E+00 0.  1.
         21    1    1    2  503  501 -0.51330089931E+02  0.11605616692E+02 -0.11835429763E+02  0.53940206422E+02  0.00000000000E+00 0.  1.
         -1    1    1    2    0  502  0.12095860970E+03  0.35711882573E+02  0.21680262639E+03  0.25081806679E+03  0.00000000000E+00 0.  1.
<scales pt_clust_5="13000.00000" pt_clust_6="13000.00000" pt_clust_7="13000.00000" pt_clust_8="13000.00000" pt_clust_9="52.62574" pt_clust_10="88.44980"></scales>
<clustering>
<clus scale="   52.626">  1  9  2 -1</clus>
<clus scale="   88.450">  1 10  2 -1</clus>
<clus scale="   91.313">  7  8 -1 -1</clus>
<clus scale="   91.333">  5  6 -1 -1</clus>
<clus scale="  100.084">  2  7  1 -1</clus>
<clus scale="   52.626">  1  5  2 -1</clus>
</clustering>
</event>
<event>
10    2  0.6640105E-006  0.1113299E+03  0.7546771E-02  0.1261139E+00
         21   -1    0    0  501  502  0.00000000000E+00  0.00000000000E+00  0.44977642038E+03  0.44977642038E+03  0.00000000000E+00 0.  1.
          1   -1    0    0  503    0 -0.00000000000E+00 -0.00000000000E+00 -0.10926780877E+03  0.10926780877E+03  0.00000000000E+00 0. -1.
         23    2    1    2    0    0 -0.44222410950E+02  0.15995217560E+02  0.78123753568E+01  0.95750701343E+02  0.83040321435E+02 0.  0.
         23    2    1    2    0    0  0.10672032461E+03  0.19999194671E+02  0.67316058893E+02  0.15684776351E+03  0.90997657441E+02 0.  0.
        -11    1    3    3    0    0 -0.11687636764E+02 -0.33330722083E+02  0.97097565507E+01  0.36630823905E+02  0.00000000000E+00 0.  1.
         11    1    3    3    0    0 -0.32534774186E+02  0.49325939643E+02 -0.18973811939E+01  0.59119877439E+02  0.00000000000E+00 0. -1.
        -13    1    4    4    0    0  0.79896893536E+02  0.39645746562E+02  0.89040636362E+01  0.89635825240E+02  0.00000000000E+00 0. -1.
         13    1    4    4    0    0  0.26823431075E+02 -0.19646551891E+02  0.58411995257E+02  0.67211938268E+02  0.00000000000E+00 0.  1.
         21    1    1    2  503  502 -0.36644602425E+02 -0.61945010788E+02  0.25956202178E+03  0.26935562812E+03  0.00000000000E+00 0.  1.
          1    1    1    2  501    0 -0.25853311237E+02  0.25950598557E+02  0.58181555862E+01  0.37090136179E+02  0.00000000000E+00 0. -1.
<scales pt_clust_5="13000.00000" pt_clust_6="13000.00000" pt_clust_7="13000.00000" pt_clust_8="13000.00000" pt_clust_9="69.83108" pt_clust_10="36.63098"></scales>
<clustering>
<clus scale="   36.631">  1 10  2 -1</clus>
<clus scale="   69.831">  1  9  2 -1</clus>
<clus scale="   83.040">  5  6 -1 -1</clus>
<clus scale="   90.998">  7  8 -1 -1</clus>
<clus scale="  104.926">  2  5  1 -1</clus>
<clus scale="   36.631">  1  5  2 -1</clus>
</clustering>
</event>
<event>
10    2  0.6640105E-006  0.2355297E+03  0.7546771E-02  0.1139232E+00
         21   -1    0    0  503  502  0.00000000000E+00  0.00000000000E+00  0.48372385305E+03  0.48372385305E+03  0.00000000000E+00 0.  1.
         -4   -1    0    0    0  501 -0.00000000000E+00 -0.00000000000E+00 -0.64195781405E+03  0.64195781405E+03  0.00000000000E+00 0.  1.
         23    2    1    2    0    0  0.59583620968E+02  0.13008412538E+03 -0.11299064808E+03  0.20354006053E+03  0.90496310001E+02 0.  0.
         23    2    1    2    0    0 -0.12853537408E+03  0.12082979264E+03 -0.40742928002E+03  0.44849825502E+03  0.63489253870E+02 0.  0.
        -11    1    3    3    0    0  0.67764734070E+02  0.42408176494E+02 -0.66381335532E+02  0.10390858638E+03  0.00000000000E+00 0.  1.
         11    1    3    3    0    0 -0.81811131024E+01  0.87675948884E+02 -0.46609312549E+02  0.99631474147E+02  0.00000000000E+00 0. -1.
        -13    1    4    4    0    0 -0.67866145164E+02  0.36775809377E+02 -0.11742454938E+03  0.14052330274E+03  0.00000000000E+00 0. -1.
         13    1    4    4    0    0 -0.60669228920E+02  0.84053983262E+02 -0.29000473064E+03  0.30797495228E+03  0.00000000000E+00 0.  1.
         21    1    1    2  503  501  0.93880280374E+02 -0.13172295309E+03  0.29006661857E+03  0.33211908500E+03  0.00000000000E+00 0.  1.
         -4    1    1    2    0  502 -0.24928527257E+02 -0.11919096493E+03  0.72119348528E+02  0.14152426655E+03  0.00000000000E+00 0.  1.
<scales pt_clust_5="13000.00000" pt_clust_6="13000.00000" pt_clust_7="13000.00000" pt_clust_8="13000.00000" pt_clust_9="226.81125" pt_clust_10="121.76994"></scales>
<clustering>
<clus scale="   63.489">  7  8 -1 -1</clus>
<clus scale="   90.496">  5  6 -1 -1</clus>
<clus scale="  121.770">  1 10  2 -1</clus>
<clus scale="  157.460">  2  5  1 -1</clus>
<clus scale="  226.811">  1  9  2 -1</clus>
<clus scale="  121.770">  1  5  2 -1</clus>
</clustering>
</event>
<event>
10    2  0.1287190E-005  0.1631613E+03  0.7546771E-02  0.1185201E+00
         21   -1    0    0  501  502  0.00000000000E+00  0.00000000000E+00  0.30565736396E+03  0.30565736396E+03  0.00000000000E+00 0. -1.
          2   -1    0    0  503    0 -0.00000000000E+00 -0.00000000000E+00 -0.45383464451E+03  0.45383464451E+03  0.00000000000E+00 0. -1.
         23    2    1    2    0    0 -0.12610205905E+03  0.64187915198E+02 -0.34247320380E+03  0.38146212627E+03  0.90573951582E+02 0.  0.
         23    2    1    2    0    0  0.70528279003E+02 -0.23943829432E+02  0.19234756816E+03  0.22520109488E+03  0.90390270778E+02 0.  0.
        -11    1    4    4    0    0  0.41149088495E+02 -0.44775117657E+02  0.17492360264E+03  0.18519267103E+03  0.00000000000E+00 0.  1.
         11    1    4    4    0    0  0.29379190509E+02  0.20831288225E+02  0.17423965520E+02  0.40008423844E+02  0.00000000000E+00 0. -1.
        -13    1    3    3    0    0 -0.13254627880E+02 -0.15782204394E+02 -0.13610703172E+02  0.24698469115E+02  0.00000000000E+00 0.  1.
         13    1    3    3    0    0 -0.11284743117E+03  0.79970119592E+02 -0.32886250063E+03  0.35676365716E+03  0.00000000000E+00 0. -1.
         21    1    1    2  503  502 -0.35303517075E+02 -0.48713610721E+02  0.10824401889E+02  0.61127095985E+02  0.00000000000E+00 0. -1.
          2    1    1    2  501    0  0.90877297125E+02  0.84695249555E+01 -0.88760467983E+01  0.91701691328E+02  0.00000000000E+00 0. -1.
<scales pt_clust_5="13000.00000" pt_clust_6="13000.00000" pt_clust_7="13000.00000" pt_clust_8="13000.00000" pt_clust_9="60.16107" pt_clust_10="85.46174"></scales>
<clustering>
<clus scale="   60.161">  1  9  2 -1</clus>
<clus scale="   85.462">  1 10  2 -1</clus>
<clus scale="   90.390">  5  6 -1 -1</clus>
<clus scale="   90.574">  7  8 -1 -1</clus>
<clus scale="  163.059">  1  5  2 -1</clus>
<clus scale="   60.161">  1  5  2 -1</clus>
</clustering>
</event>
<event>
10    2  0.6640105E-006  0.1394196E+03  0.7546771E-02  0.1214602E+00
         21   -1    0    0  501  502  0.00000000000E+00  0.00000000000E+00  0.10829019696E+03  0.10829019696E+03  0.00000000000E+00 0. -1.
         -3   -1    0    0    0  501 -0.00000000000E+00 -0.00000000000E+00 -0.45216333925E+03  0.45216333925E+03  0.00000000000E+00 0.  1.
         23    2    1    2    0    0 -0.88209077618E+01  0.85933806170E+02 -0.21901589834E+03  0.25293571288E+03  0.92445030530E+02 0.  0.
         23    2    1    2    0    0 -0.13438156957E+02 -0.16497475901E+03 -0.10256265762E+03  0.21462276739E+03  0.90258397798E+02 0.  0.
        -11    1    3    3    0    0 -0.40390922799E+02  0.12938534846E+02 -0.11079002053E+03  0.11863077585E+03  0.00000000000E+00 0.  1.
         11    1    3    3    0    0  0.31570015037E+02  0.72995271325E+02 -0.10822587781E+03  0.13430493704E+03  0.00000000000E+00 0. -1.
        -13    1    4    4    0    0 -0.26261200106E+02 -0.37222697207E+02 -0.67665418378E+02  0.81570758625E+02  0.00000000000E+00 0.  1.
         13    1    4    4    0    0  0.12823043150E+02 -0.12775206180E+03 -0.34897239238E+02  0.13305200877E+03  0.00000000000E+00 0. -1.
         21    1    1    2  503  502  0.29416067927E+02  0.42665901115E+02 -0.52398495200E+01  0.52087812329E+02  0.00000000000E+00 0. -1.
         -3    1    1    2    0  503 -0.71570032082E+01  0.36375051724E+02 -0.17054736816E+02  0.40807243606E+02  0.00000000000E+00 0.  1.
<scales pt_clust_5="13000.00000" pt_clust_6="13000.00000" pt_clust_7="13000.00000" pt_clust_8="13000.00000" pt_clust_9="31.52768" pt_clust_10="90.18006"></scales>
<clustering>
<clus scale="   31.528">  9 10 -1 -1</clus>
<clus scale="   90.180">  1  9  2 -1</clus>
<clus scale="   90.258">  7  8 -1 -1</clus>
<clus scale="   92.445">  5  6 -1 -1</clus>
<clus scale="  137.979">  1  7  2 -1</clus>
<clus scale="   90.180">  1  5  2 -1</clus>
</clustering>
</event>
<event>
10    2  0.6640105E-006  0.1072816E+03  0.7546771E-02  0.1268944E+00
          1   -1    0    0  503    0 -0.00000000000E+00  0.00000000000E+00  0.74769255933E+03  0.74769255933E+03  0.00000000000E+00 0. -1.
         21   -1    0    0  501  502  0.00000000000E+00 -0.00000000000E+00 -0.64101749066E+02  0.64101749066E+02  0.00000000000E+00 0. -1.
         23    2    1    2    0    0  0.15115599457E+02  0.49887544803E+02  0.38945658174E+03  0.40387740888E+03  0.93398521759E+02 0.  0.
         23    2    1    2    0    0 -0.11366981643E+02  0.10137602895E+02  0.97493549218E+02  0.14081039129E+03  0.10045195315E+03 0.  0.
        -11    1    4    4    0    0 -0.20549195331E+02  0.42259727367E+02  0.96561742338E+02  0.10738865894E+03  0.00000000000E+00 0. -1.
         11    1    4    4    0    0  0.91822136880E+01 -0.32122124473E+02  0.93180687996E+00  0.33421732345E+02  0.00000000000E+00 0.  1.
        -13    1    3    3    0    0 -0.39273731494E+02  0.25724696280E+02  0.15265463192E+03  0.15971105982E+03  0.00000000000E+00 0.  1.
         13    1    3    3    0    0  0.54389330951E+02  0.24162848524E+02  0.23680194983E+03  0.24416634906E+03  0.00000000000E+00 0. -1.
         21    1    1    2  503  502  0.20340956141E+01  0.58402181505E+02  0.40724073574E+02  0.71227821236E+02  0.00000000000E+00 0. -1.
          1    1    1    2  501    0 -0.57827134275E+01 -0.11842732920E+03  0.15591660573E+03  0.19587868700E+03  0.00000000000E+00 0. -1.
<scales pt_clust_5="13000.00000" pt_clust_6="13000.00000" pt_clust_7="13000.00000" pt_clust_8="13000.00000" pt_clust_9="58.43759" pt_clust_10="94.66865"></scales>
<clustering>
<clus scale="   58.438">  2  9  1 -1</clus>
<clus scale="   93.399">  7  8 -1 -1</clus>
<clus scale="   94.669">  2 10  1 -1</clus>
<clus scale="  100.452">  5  6 -1 -1</clus>
<clus scale="  100.708">  1  7  2 -1</clus>
<clus scale="   58.438">  2  5  1 -1</clus>
</clustering>
</event>
<event>
10    2  0.6640105E-006  0.1107593E+03  0.7546771E-02  0.1260221E+00
          1   -1    0    0  503    0 -0.00000000000E+00  0.00000000000E+00  0.89037900344E+03  0.89037900344E+03  0.00000000000E+00 0. -1.
         21   -1    0    0  501  502  0.00000000000E+00 -0.00000000000E+00 -0.18640183947E+03  0.18640183947E+03  0.00000000000E+00 0. -1.
         23    2    1    2    0    0 -0.45655551078E+02 -0.11804249265E+02  0.35633918261E+03  0.37123369561E+03  0.92806648735E+02 0.  0.
         23    2    1    2    0    0  0.86894395829E+01  0.10959006029E+03  0.36097304378E+03  0.38922599719E+03  0.95445538819E+02 0.  0.
        -11    1    4    4    0    0  0.50705072101E+02  0.45807065156E+02  0.14928688790E+03  0.16418241823E+03  0.00000000000E+00 0.  1.
         11    1    4    4    0    0 -0.42015632518E+02  0.63782995139E+02  0.21168615587E+03  0.22504357896E+03  0.00000000000E+00 0. -1.
        -13    1    3    3    0    0  0.27244462052E+02 -0.91845089547E+01  0.14016712071E+03  0.14308542080E+03  0.00000000000E+00 0.  1.
         13    1    3    3    0    0 -0.72900013130E+02 -0.26197403104E+01  0.21617206190E+03  0.22814827481E+03  0.00000000000E+00 0. -1.
         21    1    1    2  503  502 -0.29474664751E+02 -0.39640433190E+02 -0.14758946323E+03  0.15563665848E+03  0.00000000000E+00 0. -1.
          1    1    1    2  501    0  0.66440776246E+02 -0.58145377840E+02  0.13425440082E+03  0.16068449163E+03  0.00000000000E+00 0. -1.
<scales pt_clust_5="13000.00000" pt_clust_6="13000.00000" pt_clust_7="13000.00000" pt_clust_8="13000.00000" pt_clust_9="49.39757" pt_clust_10="91.70975"></scales>
<clustering>
<clus scale="   49.398">  2  9  1 -1</clus>
<clus scale="   91.710">  2 10  1 -1</clus>
<clus scale="   92.807">  7  8 -1 -1</clus>
<clus scale="   95.446">  5  6 -1 -1</clus>
<clus scale="  108.494">  1  7  2 -1</clus>
<clus scale="   49.398">  2  5  1 -1</clus>
</clustering>
</event>
<event>
10    2  0.6640105E-006  0.1421107E+03  0.7546771E-02  0.1224364E+00
          1   -1    0    0  503    0 -0.00000000000E+00  0.00000000000E+00  0.32112358035E+02  0.32112358035E+02  0.00000000000E+00 0. -1.
         21   -1    0    0  501  502  0.00000000000E+00 -0.00000000000E+00 -0.13890617573E+04  0.13890617573E+04  0.00000000000E+00 0. -1.
         23    2    1    2    0    0 -0.28825675624E+02  0.51536600682E+02 -0.28010463864E+03  0.30045437932E+03  0.91253957087E+02 0.  0.
         23    2    1    2    0    0  0.10640751283E+03 -0.22206812607E+01 -0.37393075322E+03  0.39939446411E+03  0.91456216547E+02 0.  0.
        -11    1    3    3    0    0  0.24904374799E+02 -0.13246493776E+01 -0.13131531119E+03  0.13366261083E+03  0.00000000000E+00 0.  1.
         11    1    3    3    0    0 -0.53730050423E+02  0.52861250059E+02 -0.14878932745E+03  0.16679176850E+03  0.00000000000E+00 0. -1.
        -11    1    4    4    0    0 -0.93482126059E+01  0.18218647610E+02 -0.85782228713E+02  0.88192397420E+02  0.00000000000E+00 0.  1.
         11    1    4    4    0    0  0.11575572544E+03 -0.20439328871E+02 -0.28814852451E+03  0.31120206669E+03  0.00000000000E+00 0. -1.
         21    1    1    2  503  502  0.37705380916E+02 -0.51046744287E+01 -0.14475543454E+03  0.14967260698E+03  0.00000000000E+00 0. -1.
          1    1    1    2  501    0 -0.11528721812E+03 -0.44211244992E+02 -0.55815857283E+03  0.57165266488E+03  0.00000000000E+00 0. -1.
<scales pt_clust_5="13000.00000" pt_clust_6="13000.00000" pt_clust_7="13000.00000" pt_clust_8="13000.00000" pt_clust_9="38.04936" pt_clust_10="108.77141"></scales>
<clustering>
<clus scale="   38.049">  2  9  1 -1</clus>
<clus scale="   91.254">  5  6 -1 -1</clus>
<clus scale="   91.456">  7  8 -1 -1</clus>
<clus scale="  106.124">  1  5  2 -1</clus>
<clus scale="  108.771">  2 10  1 -1</clus>
<clus scale="   38.049">  2  5  1 -1</clus>
</clustering>
</event>
<event>
10    2  0.6640105E-006  0.1878520E+03  0.7546771E-02  0.1160626E+00
         21   -1    0    0  503  502  0.00000000000E+00  0.00000000000E+00  0.79412434936E+03  0.79412434936E+03  0.00000000000E+00 0. -1.
         -1   -1    0    0    0  501 -0.00000000000E+00 -0.00000000000E+00 -0.19034535543E+03  0.19034535543E+03  0.00000000000E+00 0. -1.
         23    2    1    2    0    0  0.32663540615E+02  0.16180914860E+03  0.13587814132E+02  0.18903662514E+03  0.91110424750E+02 0.  0.
         23    2    1    2    0    0  0.34404791383E+02 -0.16474456266E+03  0.26458028744E+02  0.19409667027E+03  0.93000158757E+02 0.  0.
        -11    1    4    4    0    0  0.42816648919E+02 -0.90653818321E+02 -0.25211153092E+02  0.10337786243E+03  0.00000000000E+00 0. -1.
         11    1    4    4    0    0 -0.84118575355E+01 -0.74090744336E+02  0.51669181836E+02  0.90718807836E+02  0.00000000000E+00 0.  1.
        -11    1    3    3    0    0  0.60925267260E+02  0.14026961684E+03  0.88156476897E+01  0.15318344964E+03  0.00000000000E+00 0. -1.
         11    1    3    3    0    0 -0.28261726645E+02  0.21539531754E+02  0.47721664419E+01  0.35853175503E+02  0.00000000000E+00 0.  1.
         21    1    1    2  503  501 -0.35912477203E+02  0.71256219641E+02  0.84366692299E+02  0.11612447471E+03  0.00000000000E+00 0. -1.
         -1    1    1    2    0  502 -0.31155854795E+02 -0.68320805578E+02  0.47936645876E+03  0.48521193467E+03  0.00000000000E+00 0. -1.
<scales pt_clust_5="13000.00000" pt_clust_6="13000.00000" pt_clust_7="13000.00000" pt_clust_8="13000.00000" pt_clust_9="67.37365" pt_clust_10="75.08941"></scales>
<clustering>
<clus scale="   75.089">  1 10  2 -1</clus>
<clus scale="   67.374">  1  9  2 -1</clus>
<clus scale="   91.110">  7  8 -1 -1</clus>
<clus scale="   93.000">  5  6 -1 -1</clus>
<clus scale="  186.924">  2  7  1 -1</clus>
<clus scale="   75.089">  1  5  2 -1</clus>
</clustering>
</event>
<event>
10    2  0.6640105E-006  0.2339054E+03  0.7546771E-02  0.1133536E+00
         21   -1    0    0  501  502  0.00000000000E+00  0.00000000000E+00  0.72698375516E+03  0.72698375516E+03  0.00000000000E+00 0. -1.
          1   -1    0    0  503    0 -0.00000000000E+00 -0.00000000000E+00 -0.73232661398E+03  0.73232661398E+03  0.00000000000E+00 0. -1.
         23    2    1    2    0    0  0.57561274875E+02 -0.14959496054E+03 -0.32774613257E+03  0.37651599101E+03  0.93031239291E+02 0.  0.
         23    2    1    2    0    0 -0.21912993633E+03  0.40631749834E+02 -0.21237968230E+03  0.32120857343E+03  0.91656696993E+02 0.  0.
        -11    1    3    3    0    0  0.75899175004E+02 -0.71500292071E+02 -0.16733232274E+03  0.19716257953E+03  0.00000000000E+00 0.  1.
         11    1    3    3    0    0 -0.18337900129E+02 -0.78094668469E+02 -0.16041380983E+03  0.17935341148E+03  0.00000000000E+00 0. -1.
        -13    1    4    4    0    0 -0.35308913004E+02 -0.24001396701E+02 -0.61030633854E+02  0.74481706813E+02  0.00000000000E+00 0.  1.
         13    1    4    4    0    0 -0.18382102332E+03  0.64633146536E+02 -0.15134904845E+03  0.24672686662E+03  0.00000000000E+00 0. -1.
         21    1    1    2  503  502 -0.85412650554E+02 -0.21002431327E+02  0.46588865995E+03  0.47411883159E+03  0.00000000000E+00 0. -1.
          1    1    1    2  501    0  0.24698131201E+03  0.12996564203E+03  0.68894296097E+02  0.28746697310E+03  0.00000000000E+00 0. -1.
<scales pt_clust_5="13000.00000" pt_clust_6="13000.00000" pt_clust_7="13000.00000" pt_clust_8="13000.00000" pt_clust_9="87.95694" pt_clust_10="215.19939"></scales>
<clustering>
<clus scale="   87.957">  1  9  2 -1</clus>
<clus scale="   91.657">  7  8 -1 -1</clus>
<clus scale="   93.031">  5  6 -1 -1</clus>
<clus scale="  184.607">  2  5  1 -1</clus>
<clus scale="  215.199">  1 10  2 -1</clus>
<clus scale="   87.957">  1  5  2 -1</clus>
</clustering>
</event>
<event>
10    2  0.6640105E-006  0.1628439E+03  0.7546771E-02  0.1201361E+00
         -3   -1    0    0    0  501 -0.00000000000E+00  0.00000000000E+00  0.60150103013E+03  0.60150103013E+03  0.00000000000E+00 0.  1.
         21   -1    0    0  503  502  0.00000000000E+00 -0.00000000000E+00 -0.16967433141E+03  0.16967433141E+03  0.00000000000E+00 0.  1.
         23    2    1    2    0    0  0.36862741127E+02  0.59898667314E+02  0.20047068957E+03  0.23162615577E+03  0.92279286018E+02 0.  0.
         23    2    1    2    0    0  0.52513999399E+02  0.57144062956E+02  0.33067193120E+03  0.35167829644E+03  0.91162130507E+02 0.  0.
        -11    1    4    4    0    0 -0.15107752766E+02  0.30741821759E+02  0.19323667882E+03  0.19624912189E+03  0.00000000000E+00 0. -1.
         11    1    4    4    0    0  0.67621752165E+02  0.26402241197E+02  0.13743525238E+03  0.15542917455E+03  0.00000000000E+00 0.  1.
        -11    1    3    3    0    0  0.41874586795E+02  0.20084819709E+02  0.18130016347E+03  0.18715402821E+03  0.00000000000E+00 0.  1.
         11    1    3    3    0    0 -0.50118456682E+01  0.39813847605E+02  0.19170526104E+02  0.44472127554E+02  0.00000000000E+00 0. -1.
         21    1    1    2  503  501 -0.27521522151E+02 -0.14455818316E+01 -0.24761620108E+02  0.37049449641E+02  0.00000000000E+00 0. -1.
         -3    1    1    2    0  502 -0.61855218375E+02 -0.11559714844E+03 -0.74554301942E+02  0.15082145970E+03  0.00000000000E+00 0.  1.
<scales pt_clust_5="13000.00000" pt_clust_6="13000.00000" pt_clust_7="13000.00000" pt_clust_8="13000.00000" pt_clust_9="27.55946" pt_clust_10="134.93560"></scales>
<clustering>
<clus scale="   27.559">  2  9  1 -1</clus>
<clus scale="   91.162">  5  6 -1 -1</clus>
<clus scale="   92.279">  7  8 -1 -1</clus>
<clus scale="  114.998">  1  7  2 -1</clus>
<clus scale="  134.936">  2 10  1 -1</clus>
<clus scale="   27.559">  2  5  1 -1</clus>
</clustering>
</event>
<event>
10    2  0.6640105E-006  0.1045589E+03  0.7546771E-02  0.1272483E+00
         -1   -1    0    0    0  501 -0.00000000000E+00  0.00000000000E+00  0.59415087685E+03  0.59415087685E+03  0.00000000000E+00 0.  1.
         21   -1    0    0  503  502  0.00000000000E+00 -0.00000000000E+00 -0.34837625875E+03  0.34837625875E+03  0.00000000000E+00 0.  1.
         23    2    1    2    0    0  0.30629474134E+02 -0.30514166382E+02  0.28509840362E+03  0.30197990451E+03  0.89674321568E+02 0.  0.
         23    2    1    2    0    0 -0.57062330810E+02  0.10742322722E+02  0.28484581641E+03  0.30522335727E+03  0.93019630185E+02 0.  0.
        -11    1    3    3    0    0 -0.16358397227E+02  0.12671354099E+02  0.18198816948E+02  0.27556438682E+02  0.00000000000E+00 0. -1.
         11    1    3    3    0    0  0.46987871361E+02 -0.43185520481E+02  0.26689958667E+03  0.27442346583E+03  0.00000000000E+00 0.  1.
        -11    1    4    4    0    0  0.25807143062E+02  0.47521622122E+01  0.78898710440E+02  0.83148049814E+02  0.00000000000E+00 0. -1.
         11    1    4    4    0    0 -0.82869473872E+02  0.59901605094E+01  0.20594710597E+03  0.22207530746E+03  0.00000000000E+00 0.  1.
         21    1    1    2  503  501  0.53194688670E+02  0.14684994329E+01 -0.21029945288E+03  0.21692784809E+03  0.00000000000E+00 0.  1.
         -1    1    1    2    0  502 -0.26761831994E+02  0.18303344227E+02 -0.11387014905E+03  0.11839602572E+03  0.00000000000E+00 0.  1.
<scales pt_clust_5="13000.00000" pt_clust_6="13000.00000" pt_clust_7="13000.00000" pt_clust_8="13000.00000" pt_clust_9="33.93840" pt_clust_10="32.42234"></scales>
<clustering>
<clus scale="   32.422">  2 10  1 -1</clus>
<clus scale="   33.938">  2  9  1 -1</clus>
<clus scale="   89.674">  5  6 -1 -1</clus>
<clus scale="   93.020">  7  8 -1 -1</clus>
<clus scale="  101.594">  1  5  2 -1</clus>
<clus scale="   32.422">  2  5  1 -1</clus>
</clustering>
</event>
<event>
10    2  0.6640105E-006  0.1866360E+03  0.7546771E-02  0.1161930E+00
         -3   -1    0    0    0  501 -0.00000000000E+00  0.00000000000E+00  0.23232424692E+03  0.23232424692E+03  0.00000000000E+00 0.  1.
         21   -1    0    0  503  502  0.00000000000E+00 -0.00000000000E+00 -0.33363867514E+03  0.33363867514E+03  0.00000000000E+00 0.  1.
         23    2    1    2    0    0  0.17468935029E+03  0.49281690374E+02  0.65121569028E+02  0.21184015133E+03  0.87694793739E+02 0.  0.
         23    2    1    2    0    0 -0.14297939165E+03  0.10062006738E+02 -0.23038636705E+02  0.17147750703E+03  0.91265580689E+02 0.  0.
        -11    1    3    3    0    0  0.15952662580E+03  0.18292535146E+02  0.73102265849E+02  0.17642931291E+03  0.00000000000E+00 0. -1.
         11    1    3    3    0    0  0.15162724499E+02  0.30989155228E+02 -0.79806968207E+01  0.35410838422E+02  0.00000000000E+00 0.  1.
        -13    1    4    4    0    0 -0.80823998474E+02  0.38807466823E+02  0.18272905807E+02  0.91501023476E+02  0.00000000000E+00 0.  1.
         13    1    4    4    0    0 -0.62155393175E+02 -0.28745460085E+02 -0.41311542511E+02  0.79976483550E+02  0.00000000000E+00 0. -1.
         21    1    1    2  503  501 -0.31354838790E+02  0.17708254328E+02 -0.48445740010E+02  0.60363050884E+02  0.00000000000E+00 0.  1.
         -3    1    1    2    0  502 -0.35511985471E+00 -0.77051951440E+02 -0.94951620534E+02  0.12228221282E+03  0.00000000000E+00 0.  1.
<scales pt_clust_5="13000.00000" pt_clust_6="13000.00000" pt_clust_7="13000.00000" pt_clust_8="13000.00000" pt_clust_9="36.00983" pt_clust_10="71.27760"></scales>
<clustering>
<clus scale="   36.010">  2  9  1 -1</clus>
<clus scale="   71.278">  2 10  1 -1</clus>
<clus scale="   87.695">  5  6 -1 -1</clus>
<clus scale="   91.266">  7  8 -1 -1</clus>
<clus scale="  184.916">  1  5  2 -1</clus>
<clus scale="   36.010">  2  5  1 -1</clus>
</clustering>
</event>
<event>
10    2  0.6640105E-006  0.1736201E+03  0.7546771E-02  0.1209120E+00
         21   -1    0    0  501  502  0.00000000000E+00  0.00000000000E+00  0.37852021302E+03  0.37852021302E+03  0.00000000000E+00 0. -1.
          2   -1    0    0  503    0 -0.00000000000E+00 -0.00000000000E+00 -0.10052202486E+04  0.10052202486E+04  0.00000000000E+00 0. -1.
         23    2    1    2    0    0 -0.23948784983E+02 -0.11016168423E+02 -0.39154435284E+03  0.39971643955E+03  0.75969411833E+02 0.  0.
         23    2    1    2    0    0 -0.81992205775E+02 -0.80417057421E+02 -0.54639366990E+03  0.56853780138E+03  0.10723602082E+03 0.  0.
        -11    1    3    3    0    0 -0.33719662111E+02  0.25128543061E+02 -0.23693090745E+03  0.24063398388E+03  0.00000000000E+00 0.  1.
         11    1    3    3    0    0  0.97708771276E+01 -0.36144711484E+02 -0.15461344539E+03  0.15908245568E+03  0.00000000000E+00 0. -1.
        -13    1    4    4    0    0  0.24708704788E+02 -0.41489907297E+01 -0.67173408752E+02  0.71693800707E+02  0.00000000000E+00 0.  1.
         13    1    4    4    0    0 -0.10670091056E+03 -0.76268066691E+02 -0.47922026114E+03  0.49684400067E+03  0.00000000000E+00 0. -1.
         21    1    1    2  503  502  0.67366659765E+02  0.93436528666E+02  0.34528761886E+03  0.36399476847E+03  0.00000000000E+00 0. -1.
          2    1    1    2  501    0  0.38574330994E+02 -0.20033028226E+01 -0.34049631728E+02  0.51491452248E+02  0.00000000000E+00 0. -1.
<scales pt_clust_5="13000.00000" pt_clust_6="13000.00000" pt_clust_7="13000.00000" pt_clust_8="13000.00000" pt_clust_9="136.54439" pt_clust_10="38.62633"></scales>
<clustering>
<clus scale="   38.626">  1 10  2 -1</clus>
<clus scale="   75.969">  5  6 -1 -1</clus>
<clus scale="   80.290">  2  5  1 -1</clus>
<clus scale="  107.236">  7  8 -1 -1</clus>
<clus scale="  136.544">  1  9  2 -1</clus>
<clus scale="   38.626">  1  5  2 -1</clus>
</clustering>
</event>
<event>
10    2  0.6640105E-006  0.1897973E+03  0.7546771E-02  0.1187957E+00
         -4   -1    0    0    0  501 -0.00000000000E+00  0.00000000000E+00  0.85981799906E+03  0.85981799906E+03  0.00000000000E+00 0.  1.
         21   -1    0    0  503  502  0.00000000000E+00 -0.00000000000E+00 -0.21718309272E+03  0.21718309272E+03  0.00000000000E+00 0. -1.
         23    2    1    2    0    0 -0.11852188791E+02  0.36250974932E+02  0.30753400324E+03  0.32274204756E+03  0.90170164388E+02 0.  0.
         23    2    1    2    0    0  0.18534739438E+03  0.33300235249E+02 -0.66371608083E+02  0.21300589684E+03  0.74187326788E+02 0.  0.
        -13    1    3    3    0    0 -0.44592621386E+02  0.42801725503E+02  0.23321885403E+03  0.24127064360E+03  0.00000000000E+00 0.  1.
         13    1    3    3    0    0  0.32740432596E+02 -0.65507505717E+01  0.74315149214E+02  0.81471403954E+02  0.00000000000E+00 0. -1.
        -13    1    4    4    0    0  0.14663220605E+03  0.48084019129E+02 -0.73550870956E+02  0.17094679688E+03  0.00000000000E+00 0. -1.
         13    1    4    4    0    0  0.38715188334E+02 -0.14783783880E+02  0.71792628729E+01  0.42059099954E+02  0.00000000000E+00 0.  1.
         21    1    1    2  503  501 -0.10918457087E+02 -0.31032052767E+02 -0.50003046682E+02  0.59854036469E+02  0.00000000000E+00 0. -1.
         -4    1    1    2    0  502 -0.16257674850E+03 -0.38519157414E+02  0.45147555787E+03  0.48139911092E+03  0.00000000000E+00 0.  1.
<scales pt_clust_5="13000.00000" pt_clust_6="13000.00000" pt_clust_7="13000.00000" pt_clust_8="13000.00000" pt_clust_9="32.89682" pt_clust_10="174.69768"></scales>
<clustering>
<clus scale="   32.897">  2  9  1 -1</clus>
<clus scale="   74.187">  7  8 -1 -1</clus>
<clus scale="   90.170">  5  6 -1 -1</clus>
<clus scale="   97.439">  1  5  2 -1</clus>
<clus scale="  174.698">  2 10  1 -1</clus>
<clus scale="   32.897">  2  5  1 -1</clus>
</clustering>
</event>
<event>
10    2  0.6640105E-006  0.1012744E+03  0.7546771E-02  0.1277922E+00
         -4   -1    0    0    0  501 -0.00000000000E+00  0.00000000000E+00  0.72177737030E+03  0.72177737030E+03  0.00000000000E+00 0.  1.
         21   -1    0    0  503  502  0.00000000000E+00 -0.00000000000E+00 -0.11044163186E+03  0.11044163186E+03  0.00000000000E+00 0.  1.
         23    2    1    2    0    0  0.30516792313E+02  0.29201132467E+02  0.55305640854E+03  0.56245530756E+03  0.93277013369E+02 0.  0.
         23    2    1    2    0    0 -0.39318281049E+02  0.19700842137E+02  0.10494436836E+03  0.14750775894E+03  0.93867822450E+02 0.  0.
        -11    1    4    4    0    0 -0.51712245802E+02 -0.24687705249E+02  0.52849374352E+02  0.77953162385E+02  0.00000000000E+00 0. -1.
         11    1    4    4    0    0  0.12393964753E+02  0.44388547385E+02  0.52094994005E+02  0.69554596554E+02  0.00000000000E+00 0.  1.
        -11    1    3    3    0    0  0.63781048407E+02  0.11835558193E+02  0.35063887783E+03  0.35658901444E+03  0.00000000000E+00 0. -1.
         11    1    3    3    0    0 -0.33264256095E+02  0.17365574273E+02  0.20241753071E+03  0.20586629312E+03  0.00000000000E+00 0.  1.
         21    1    1    2  503  501 -0.13211769218E+00 -0.79486635778E+02 -0.23583799302E+02  0.82911629534E+02  0.00000000000E+00 0. -1.
         -4    1    1    2    0  502  0.89336064287E+01  0.30584661175E+02 -0.23081239166E+02  0.39344306125E+02  0.00000000000E+00 0.  1.
<scales pt_clust_5="13000.00000" pt_clust_6="13000.00000" pt_clust_7="13000.00000" pt_clust_8="13000.00000" pt_clust_9="59.22328" pt_clust_10="31.86269"></scales>
<clustering>
<clus scale="   31.863">  2 10  1 -1</clus>
<clus scale="   59.223">  2  9  1 -1</clus>
<clus scale="   93.277">  7  8 -1 -1</clus>
<clus scale="   93.868">  5  6 -1 -1</clus>
<clus scale="  100.727">  1  7  2 -1</clus>
<clus scale="   31.863">  2  5  1 -1</clus>
</clustering>
</event>
<event>
10    2  0.6640105E-006  0.2252164E+03  0.7546771E-02  0.1156526E+00
         21   -1    0    0  501  502  0.00000000000E+00  0.00000000000E+00  0.63148484412E+03  0.63148484412E+03  0.00000000000E+00 0.  1.
          2   -1    0    0  503    0 -0.00000000000E+00 -0.00000000000E+00 -0.57487281935E+03  0.57487281935E+03  0.00000000000E+00 0.  1.
         23    2    1    2    0    0  0.67658376656E+02 -0.36682984249E+02 -0.25333538932E+03  0.28004622953E+03  0.91234718869E+02 0.  0.
         23    2    1    2    0    0 -0.10445488520E+03  0.92507083417E+02  0.53842829688E+02  0.17523311314E+03  0.91319275667E+02 0.  0.
        -13    1    3    3    0    0  0.53080022329E+02  0.11243930872E+02 -0.19846316386E+03  0.20574630534E+03  0.00000000000E+00 0.  1.
         13    1    3    3    0    0  0.14578354327E+02 -0.47926915121E+02 -0.54872225466E+02  0.74299924195E+02  0.00000000000E+00 0. -1.
        -13    1    4    4    0    0 -0.76193497513E+02  0.53064887798E+02 -0.11806124446E+02  0.93598696330E+02  0.00000000000E+00 0. -1.
         13    1    4    4    0    0 -0.28261387684E+02  0.39442195619E+02  0.65648954135E+02  0.81634416811E+02  0.00000000000E+00 0.  1.
         21    1    1    2  503  502  0.11016416052E+03  0.19228624831E+03  0.39833571244E+03  0.45583054237E+03  0.00000000000E+00 0.  1.
          2    1    1    2  501    0 -0.73367651983E+02 -0.24811034747E+03 -0.14223112805E+03  0.29524777843E+03  0.00000000000E+00 0.  1.
<scales pt_clust_5="13000.00000" pt_clust_6="13000.00000" pt_clust_7="13000.00000" pt_clust_8="13000.00000" pt_clust_9="225.21645" pt_clust_10="13000.00000"></scales>
<clustering>
<clus scale="   91.235">  5  6 -1 -1</clus>
<clus scale="   91.319">  7  8 -1 -1</clus>
<clus scale="  119.361">  2  5  1 -1</clus>
<clus scale="  154.651">  2  7  1 -1</clus>
<clus scale="  225.216">  1  9  2 -1</clus>
<clus scale="  225.216">  1  5  2 -1</clus>
</clustering>
</event>
<event>
10    2  0.6640105E-006  0.2232689E+03  0.7546771E-02  0.1163018E+00
          2   -1    0    0  503    0 -0.00000000000E+00  0.00000000000E+00  0.16716116046E+04  0.16716116046E+04  0.00000000000E+00 0. -1.
         21   -1    0    0  501  502  0.00000000000E+00 -0.00000000000E+00 -0.66384969878E+02  0.66384969878E+02  0.00000000000E+00 0. -1.
         23    2    1    2    0    0 -0.36314177148E+01 -0.57708859437E+02  0.55138692128E+03  0.56183314043E+03  0.91024398247E+02 0.  0.
         23    2    1    2    0    0  0.15037909837E+03  0.12321424912E+03  0.31709152144E+03  0.38297586796E+03  0.91257098649E+02 0.  0.
        -11    1    4    4    0    0  0.13532638980E+03  0.57308374120E+02  0.20939946915E+03  0.25582341410E+03  0.00000000000E+00 0. -1.
         11    1    4    4    0    0  0.15052708565E+02  0.65905874999E+02  0.10769205230E+03  0.12715245386E+03  0.00000000000E+00 0.  1.
        -11    1    3    3    0    0 -0.45915863638E+02 -0.41979942310E+02  0.29229932374E+03  0.29884691190E+03  0.00000000000E+00 0.  1.
         11    1    3    3    0    0  0.42284445923E+02 -0.15728917127E+02  0.25908759753E+03  0.26298622853E+03  0.00000000000E+00 0. -1.
         21    1    1    2  503  502  0.87748489947E+01  0.46615994960E+02  0.20415946237E+02  0.51641648132E+02  0.00000000000E+00 0. -1.
          2    1    1    2  501    0 -0.15552252965E+03 -0.11212138464E+03  0.71633224578E+03  0.74154591798E+03  0.00000000000E+00 0. -1.
<scales pt_clust_5="13000.00000" pt_clust_6="13000.00000" pt_clust_7="13000.00000" pt_clust_8="13000.00000" pt_clust_9="47.43468" pt_clust_10="203.76748"></scales>
<clustering>
<clus scale="   47.435">  2  9  1 -1</clus>
<clus scale="   91.024">  7  8 -1 -1</clus>
<clus scale="   91.257">  5  6 -1 -1</clus>
<clus scale="  105.322">  1  7  2 -1</clus>
<clus scale="  203.767">  2 10  1 -1</clus>
<clus scale="   47.435">  2  5  1 -1</clus>
</clustering>
</event>
<event>
10    2  0.6640105E-006  0.1209949E+03  0.7546771E-02  0.1243756E+00
         -3   -1    0    0    0  501 -0.00000000000E+00  0.00000000000E+00  0.28496333031E+03  0.28496333031E+03  0.00000000000E+00 0.  1.
         21   -1    0    0  503  502  0.00000000000E+00 -0.00000000000E+00 -0.28568529356E+03  0.28568529356E+03  0.00000000000E+00 0.  1.
         23    2    1    2    0    0 -0.74588000806E+02  0.53570205998E+02  0.93117571017E+02  0.15511400898E+03  0.83404657626E+02 0.  0.
         23    2    1    2    0    0  0.84882020967E+02  0.41626232909E+02  0.97139227619E+02  0.16317423331E+03  0.90841070689E+02 0.  0.
        -11    1    3    3    0    0 -0.67768204018E+02  0.42151411070E+00  0.67755138442E+02  0.95830401936E+02  0.00000000000E+00 0. -1.
         11    1    3    3    0    0 -0.68197967885E+01  0.53148691887E+02  0.25362432575E+02  0.59283607040E+02  0.00000000000E+00 0.  1.
        -13    1    4    4    0    0  0.79268976651E+02  0.66793964643E+02  0.87480288250E+02  0.13563850930E+03  0.00000000000E+00 0.  1.
         13    1    4    4    0    0  0.56130443163E+01 -0.25167731734E+02  0.96589393694E+01  0.27535724012E+02  0.00000000000E+00 0. -1.
         21    1    1    2  503  501  0.16116145282E+02 -0.10689815849E+03 -0.19522983702E+03  0.22316280086E+03  0.00000000000E+00 0.  1.
         -3    1    1    2    0  502 -0.26410165443E+02  0.11701719581E+02  0.42510751320E+01  0.29197580716E+02  0.00000000000E+00 0.  1.
<scales pt_clust_5="13000.00000" pt_clust_6="13000.00000" pt_clust_7="13000.00000" pt_clust_8="13000.00000" pt_clust_9="98.02427" pt_clust_10="28.88647"></scales>
<clustering>
<clus scale="   28.886">  2 10  1 -1</clus>
<clus scale="   83.405">  5  6 -1 -1</clus>
<clus scale="   90.841">  7  8 -1 -1</clus>
<clus scale="   98.024">  2  9  1 -1</clus>
<clus scale="  115.516">  1  5  2 -1</clus>
<clus scale="   28.886">  2  5  1 -1</clus>
</clustering>
</event>
<event>
10    2  0.6640105E-006  0.1193319E+03  0.7546771E-02  0.1245671E+00
         21   -1    0    0  501  502  0.00000000000E+00  0.00000000000E+00  0.15167089491E+03  0.15167089491E+03  0.00000000000E+00 0.  1.
          2   -1    0    0  503    0 -0.00000000000E+00 -0.00000000000E+00 -0.60755456339E+03  0.60755456339E+03  0.00000000000E+00 0. -1.
         23    2    1    2    0    0 -0.55824752011E+02 -0.24407744467E+02 -0.23864240517E+03  0.26236970332E+03  0.90418597328E+02 0.  0.
         23    2    1    2    0    0  0.90525254224E+02 -0.15587156138E+02 -0.31605620283E+03  0.34252337769E+03  0.94831217582E+02 0.  0.
        -13    1    4    4    0    0  0.32269631275E+02  0.40074618021E+02 -0.12379916917E+03  0.13406542582E+03  0.00000000000E+00 0.  1.
         13    1    4    4    0    0  0.58255622949E+02 -0.55661774159E+02 -0.19225703366E+03  0.20845795187E+03  0.00000000000E+00 0. -1.
        -13    1    3    3    0    0  0.12755921339E+02 -0.33332994081E+02 -0.11834193070E+03  0.12360669313E+03  0.00000000000E+00 0. -1.
         13    1    3    3    0    0 -0.68580673351E+02  0.89252496137E+01 -0.12030047447E+03  0.13876301019E+03  0.00000000000E+00 0.  1.
         21    1    1    2  503  502 -0.24727858327E+02 -0.24202690983E+02  0.79263503412E+02  0.86486647533E+02  0.00000000000E+00 0.  1.
          2    1    1    2  501    0 -0.99726438857E+01  0.64197591588E+02  0.19551436115E+02  0.67845729755E+02  0.00000000000E+00 0. -1.
<scales pt_clust_5="13000.00000" pt_clust_6="13000.00000" pt_clust_7="13000.00000" pt_clust_8="13000.00000" pt_clust_9="34.60112" pt_clust_10="55.16563"></scales>
<clustering>
<clus scale="   34.601">  1  9  2 -1</clus>
<clus scale="   55.166">  1 10  2 -1</clus>
<clus scale="   90.419">  7  8 -1 -1</clus>
<clus scale="   94.831">  5  6 -1 -1</clus>
<clus scale="  115.856">  2  7  1 -1</clus>
<clus scale="   34.601">  1  5  2 -1</clus>
</clustering>
</event>
<event>
10    2  0.6640105E-006  0.1802828E+03  0.7546771E-02  0.1167894E+00
         -2   -1    0    0    0  501 -0.00000000000E+00  0.00000000000E+00  0.11836155938E+03  0.11836155938E+03  0.00000000000E+00 0.  1.
         21   -1    0    0  503  502  0.00000000000E+00 -0.00000000000E+00 -0.51919776134E+03  0.51919776134E+03  0.00000000000E+00 0.  1.
         23    2    1    2    0    0  0.64389399521E+02 -0.12775992057E+03 -0.98249560413E+02  0.19644452839E+03  0.92026542586E+02 0.  0.
         23    2    1    2    0    0 -0.13131797963E+03  0.10922228913E+03 -0.94747201744E+02  0.21716331596E+03  0.94915506333E+02 0.  0.
        -11    1    3    3    0    0  0.54751676852E+02 -0.16173810594E+02 -0.43517758985E+02  0.71785330077E+02  0.00000000000E+00 0.  1.
         11    1    3    3    0    0  0.96377226688E+01 -0.11158610997E+03 -0.54731801428E+02  0.12465919832E+03  0.00000000000E+00 0. -1.
        -13    1    4    4    0    0 -0.22643542615E+02  0.48985271777E+02  0.97154433965E+01  0.54833171654E+02  0.00000000000E+00 0. -1.
         13    1    4    4    0    0 -0.10867443701E+03  0.60237017356E+02 -0.10446264514E+03  0.16233014430E+03  0.00000000000E+00 0.  1.
         21    1    1    2  503  501  0.37906986578E+02  0.91792076379E+01 -0.17435056668E+03  0.17865978166E+03  0.00000000000E+00 0.  1.
         -2    1    1    2    0  502  0.29021593527E+02  0.93584237961E+01 -0.33488873124E+02  0.45291694712E+02  0.00000000000E+00 0.  1.
<scales pt_clust_5="13000.00000" pt_clust_6="13000.00000" pt_clust_7="13000.00000" pt_clust_8="13000.00000" pt_clust_9="50.19587" pt_clust_10="30.49316"></scales>
<clustering>
<clus scale="   30.493">  2 10  1 -1</clus>
<clus scale="   50.196">  2  9  1 -1</clus>
<clus scale="   92.027">  5  6 -1 -1</clus>
<clus scale="   94.916">  7  8 -1 -1</clus>
<clus scale="  178.779">  1  5  2 -1</clus>
<clus scale="   30.493">  2  5  1 -1</clus>
</clustering>
</event>
<event>
10    2  0.6640105E-006  0.1060372E+03  0.7546771E-02  0.1275415E+00
         -1   -1    0    0    0  501 -0.00000000000E+00  0.00000000000E+00  0.68074320266E+02  0.68074320266E+02  0.00000000000E+00 0.  1.
         21   -1    0    0  503  502  0.00000000000E+00 -0.00000000000E+00 -0.48939168273E+03  0.48939168273E+03  0.00000000000E+00 0.  1.
         23    2    1    2    0    0 -0.91981442428E+01 -0.30653869361E+02 -0.25911277602E+02  0.93195672526E+02  0.83604865327E+02 0.  0.
         23    2    1    2    0    0  0.31714733058E+01  0.49738232779E+02 -0.64828227787E+02  0.12823358361E+03  0.98778554372E+02 0.  0.
        -13    1    3    3    0    0  0.16428131277E+02  0.20283943314E+02  0.74345976958E+01  0.27140285491E+02  0.00000000000E+00 0.  1.
         13    1    3    3    0    0 -0.25626275520E+02 -0.50937812674E+02 -0.33345875298E+02  0.66055387036E+02  0.00000000000E+00 0. -1.
        -13    1    4    4    0    0  0.30722857136E+02 -0.13203204018E+02 -0.46224827857E+02  0.57052197656E+02  0.00000000000E+00 0. -1.
         13    1    4    4    0    0 -0.27551383830E+02  0.62941436796E+02 -0.18603399930E+02  0.71181385951E+02  0.00000000000E+00 0.  1.
         21    1    1    2  503  501  0.17305120988E+02  0.15850144545E+02 -0.11765218193E+03  0.11996970537E+03  0.00000000000E+00 0.  1.
         -1    1    1    2    0  502 -0.11278450051E+02 -0.34934507963E+02 -0.21292567515E+03  0.21606704149E+03  0.00000000000E+00 0.  1.
<scales pt_clust_5="13000.00000" pt_clust_6="13000.00000" pt_clust_7="13000.00000" pt_clust_8="13000.00000" pt_clust_9="23.46688" pt_clust_10="25.79116"></scales>
<clustering>
<clus scale="   23.467">  2  9  1 -1</clus>
<clus scale="   25.791">  2 10  1 -1</clus>
<clus scale="   83.605">  5  6 -1 -1</clus>
<clus scale="   92.068">  1  5  2 -1</clus>
<clus scale="   98.779">  7  8 -1 -1</clus>
<clus scale="   23.467">  2  5  1 -1</clus>
</clustering>
</event>
<event>
10    2  0.6640105E-006  0.1356293E+03  0.7546771E-02  0.1238159E+00
          1   -1    0    0  502    0 -0.00000000000E+00  0.00000000000E+00  0.25055331699E+03  0.25055331699E+03  0.00000000000E+00 0. -1.
         21   -1    0    0  503  502  0.00000000000E+00 -0.00000000000E+00 -0.33293284990E+03  0.33293284990E+03  0.00000000000E+00 0.  1.
         23    2    1    2    0    0  0.21643452024E+02  0.36202210867E+00  0.38048568823E+02  0.99104036439E+02  0.88912014788E+02 0.  0.
         23    2    1    2    0    0 -0.98944432860E+02 -0.24384562661E+02  0.84829207699E+02  0.15984547045E+03  0.89274701080E+02 0.  0.
        -11    1    3    3    0    0 -0.22665090339E+02 -0.29507621183E+02  0.22372271819E+02  0.43415718056E+02  0.00000000000E+00 0. -1.
         11    1    3    3    0    0  0.44308542363E+02  0.29869643292E+02  0.15676297004E+02  0.55688318384E+02  0.00000000000E+00 0.  1.
        -13    1    4    4    0    0  0.31561455599E+01 -0.24111496809E+02  0.43220552074E+02  0.49591749866E+02  0.00000000000E+00 0.  1.
         13    1    4    4    0    0 -0.10210057842E+03 -0.27306585150E+00  0.41608655624E+02  0.11025372058E+03  0.00000000000E+00 0. -1.
         21    1    1    2  503  501 -0.13408932991E+02 -0.64891218152E+02 -0.18423580611E+03  0.19578943263E+03  0.00000000000E+00 0.  1.
          1    1    1    2  501    0  0.90709913828E+02  0.88913758704E+02 -0.21021503327E+02  0.12874722737E+03  0.00000000000E+00 0. -1.
<scales pt_clust_5="13000.00000" pt_clust_6="13000.00000" pt_clust_7="13000.00000" pt_clust_8="13000.00000" pt_clust_9="66.26213" pt_clust_10="102.10450"></scales>
<clustering>
<clus scale="   66.262">  2  9  1 -1</clus>
<clus scale="   88.912">  5  6 -1 -1</clus>
<clus scale="   89.275">  7  8 -1 -1</clus>
<clus scale="   91.871">  1  5  2 -1</clus>
<clus scale="  102.105">  2 10  1 -1</clus>
<clus scale="   66.262">  2  5  1 -1</clus>
</clustering>
</event>
<event>
10    2  0.6640105E-006  0.1428882E+03  0.7546771E-02  0.1209792E+00
         -1   -1    0    0    0  501 -0.00000000000E+00  0.00000000000E+00  0.70765193034E+03  0.70765193034E+03  0.00000000000E+00 0.  1.
         21   -1    0    0  501  502  0.00000000000E+00 -0.00000000000E+00 -0.39916398815E+03  0.39916398815E+03  0.00000000000E+00 0. -1.
         23    2    1    2    0    0 -0.74587097191E+02 -0.79572126009E+02  0.63864332525E+03  0.65418436973E+03  0.90536922896E+02 0.  0.
         23    2    1    2    0    0  0.88577958049E+02  0.73988266705E+02 -0.91655353287E+02  0.17371272122E+03  0.91951549559E+02 0.  0.
        -13    1    4    4    0    0  0.93748402801E+02  0.30954524299E+02 -0.84152163348E+02  0.12972483262E+03  0.00000000000E+00 0.  1.
         13    1    4    4    0    0 -0.51704447525E+01  0.43033742406E+02 -0.75031899390E+01  0.43987888602E+02  0.00000000000E+00 0. -1.
        -13    1    3    3    0    0 -0.79603970892E+02 -0.20206372603E+02  0.36243688634E+03  0.37162559957E+03  0.00000000000E+00 0.  1.
         13    1    3    3    0    0  0.50168737009E+01 -0.59365753406E+02  0.27620643892E+03  0.28255877017E+03  0.00000000000E+00 0. -1.
         21    1    1    2  503  502 -0.12107342391E+01 -0.56349999581E+02 -0.19286917463E+03  0.20093607653E+03  0.00000000000E+00 0. -1.
         -1    1    1    2    0  503 -0.12780126618E+02  0.61933858885E+02 -0.45630855149E+02  0.77982751006E+02  0.00000000000E+00 0.  1.
<scales pt_clust_5="13000.00000" pt_clust_6="13000.00000" pt_clust_7="13000.00000" pt_clust_8="13000.00000" pt_clust_9="56.36300" pt_clust_10="46.60805"></scales>
<clustering>
<clus scale="   56.363">  2  9  1 -1</clus>
<clus scale="   46.608">  2 10  1 -1</clus>
<clus scale="   90.537">  7  8 -1 -1</clus>
<clus scale="   91.952">  5  6 -1 -1</clus>
<clus scale="  141.982">  1  7  2 -1</clus>
<clus scale="   56.363">  2  5  1 -1</clus>
</clustering>
</event>
<event>
10    2  0.6640105E-006  0.3370703E+03  0.7546771E-02  0.1068059E+00
         21   -1    0    0  501  502  0.00000000000E+00  0.00000000000E+00  0.55273565943E+03  0.55273565943E+03  0.00000000000E+00 0. -1.
          3   -1    0    0  503    0 -0.00000000000E+00 -0.00000000000E+00 -0.26776141372E+03  0.26776141372E+03  0.00000000000E+00 0. -1.
         23    2    1    2    0    0 -0.28746811098E+03  0.19445011524E+03  0.34819016764E+02  0.36077232973E+03  0.92171296107E+02 0.  0.
         23    2    1    2    0    0  0.25773862203E+03 -0.13394327393E+03  0.22676116086E+03  0.37978328193E+03  0.91895153535E+02 0.  0.
        -11    1    4    4    0    0  0.10067735798E+03 -0.90004738569E+02  0.14207504450E+03  0.19601556480E+03  0.00000000000E+00 0.  1.
         11    1    4    4    0    0  0.15706126405E+03 -0.43938535359E+02  0.84686116358E+02  0.18376771713E+03  0.00000000000E+00 0. -1.
        -13    1    3    3    0    0 -0.14533056261E+03  0.53517812832E+02  0.42052986904E+02  0.16047922740E+03  0.00000000000E+00 0.  1.
         13    1    3    3    0    0 -0.14213754836E+03  0.14093230241E+03 -0.72339701397E+01  0.20029310233E+03  0.00000000000E+00 0. -1.
         21    1    1    2  503  502  0.37350073517E+01 -0.35914978033E+02  0.25327198664E+02  0.44105588299E+02  0.00000000000E+00 0.  1.
          3    1    1    2  501    0  0.25994481599E+02 -0.24591863284E+02 -0.19331305839E+01  0.35835873189E+02  0.00000000000E+00 0. -1.
<scales pt_clust_5="13000.00000" pt_clust_6="13000.00000" pt_clust_7="13000.00000" pt_clust_8="13000.00000" pt_clust_9="37.89790" pt_clust_10="35.78371"></scales>
<clustering>
<clus scale="   35.784">  1 10  2 -1</clus>
<clus scale="   37.898">  1  9  2 -1</clus>
<clus scale="   91.895">  5  6 -1 -1</clus>
<clus scale="   92.171">  7  8 -1 -1</clus>
<clus scale="  336.995">  1  5  2 -1</clus>
<clus scale="   35.784">  1  5  2 -1</clus>
</clustering>
</event>
<event>
10    2  0.6640105E-006  0.1278378E+03  0.7546771E-02  0.1243877E+00
         21   -1    0    0  501  502  0.00000000000E+00  0.00000000000E+00  0.16974736064E+03  0.16974736064E+03  0.00000000000E+00 0.  1.
          2   -1    0    0  503    0 -0.00000000000E+00 -0.00000000000E+00 -0.52738590240E+03  0.52738590240E+03  0.00000000000E+00 0. -1.
         23    2    1    2    0    0  0.81736497482E+00  0.21805236266E+02 -0.30220181186E+03  0.31742803650E+03  0.94649283423E+02 0.  0.
         23    2    1    2    0    0 -0.13757658902E+02 -0.30031691381E+02 -0.16493387204E+03  0.20987981273E+03  0.12551963185E+03 0.  0.
        -11    1    3    3    0    0  0.34739800961E+02 -0.10671348826E+02 -0.21806110279E+03  0.22106871331E+03  0.00000000000E+00 0.  1.
         11    1    3    3    0    0 -0.33922435986E+02  0.32476585092E+02 -0.84140709068E+02  0.96359323186E+02  0.00000000000E+00 0. -1.
        -13    1    4    4    0    0  0.53477910057E+02 -0.70737488262E+01 -0.10003786411E+03  0.11365517605E+03  0.00000000000E+00 0.  1.
         13    1    4    4    0    0 -0.67235568958E+02 -0.22957942555E+02 -0.64896007926E+02  0.96224636680E+02  0.00000000000E+00 0. -1.
         21    1    1    2  503  502  0.35080166184E+02  0.27251057351E+02  0.12784814797E+03  0.13534543630E+03  0.00000000000E+00 0.  1.
          2    1    1    2  501    0 -0.22139872257E+02 -0.19024602236E+02 -0.18351005842E+02  0.34479977512E+02  0.00000000000E+00 0. -1.
<scales pt_clust_5="13000.00000" pt_clust_6="13000.00000" pt_clust_7="13000.00000" pt_clust_8="13000.00000" pt_clust_9="20.72436" pt_clust_10="29.19093"></scales>
<clustering>
<clus scale="   29.191">  1 10  2 -1</clus>
<clus scale="   20.724">  1  9  2 -1</clus>
<clus scale="   94.649">  5  6 -1 -1</clus>
<clus scale="   97.703">  2  5  1 -1</clus>
<clus scale="  125.520">  7  8 -1 -1</clus>
<clus scale="   29.191">  1  5  2 -1</clus>
</clustering>
</event>
<event>
10    2  0.6640105E-006  0.3346409E+03  0.7546771E-02  0.1113038E+00
          1   -1    0    0  502    0 -0.00000000000E+00  0.00000000000E+00  0.39314564159E+03  0.39314564159E+03  0.00000000000E+00 0. -1.
         21   -1    0    0  503  502  0.00000000000E+00 -0.00000000000E+00 -0.57689132766E+03  0.57689132766E+03  0.00000000000E+00 0. -1.
         23    2    1    2    0    0  0.26590545547E+02 -0.40231889725E+02  0.10928472353E+03  0.15151278697E+03  0.93205749591E+02 0.  0.
         23    2    1    2    0    0  0.16250703818E+03 -0.23497983250E+03  0.80629370001E+02  0.31091371443E+03  0.92423932917E+02 0.  0.
        -11    1    3    3    0    0  0.10732546244E+02  0.24345844827E+02  0.68547918923E+02  0.73530435181E+02  0.00000000000E+00 0.  1.
         11    1    3    3    0    0  0.15857999303E+02 -0.64577734552E+02  0.40736804604E+02  0.77982351793E+02  0.00000000000E+00 0. -1.
        -13    1    4    4    0    0 -0.60452484463E+01 -0.23367045941E+02 -0.92349738654E+01  0.25842767017E+02  0.00000000000E+00 0.  1.
         13    1    4    4    0    0  0.16855228662E+03 -0.21161278656E+03  0.89864343866E+02  0.28507094741E+03  0.00000000000E+00 0. -1.
         21    1    1    2  503  501 -0.21413517563E+02  0.15122086289E+02 -0.66993983391E+02  0.71940322759E+02  0.00000000000E+00 0.  1.
          1    1    1    2  501    0 -0.16768406616E+03  0.26008963593E+03 -0.30666579621E+03  0.43567014510E+03  0.00000000000E+00 0. -1.
<scales pt_clust_5="13000.00000" pt_clust_6="13000.00000" pt_clust_7="13000.00000" pt_clust_8="13000.00000" pt_clust_9="23.55079" pt_clust_10="331.64694"></scales>
<clustering>
<clus scale="   23.551">  9 10 -1 -1</clus>
<clus scale="   92.424">  7  8 -1 -1</clus>
<clus scale="   93.206">  5  6 -1 -1</clus>
<clus scale="  104.943">  1  5  2 -1</clus>
<clus scale="  331.647">  2  9  1 -1</clus>
<clus scale="  331.647">  2  5  1 -1</clus>
</clustering>
</event>
<event>
10    2  0.6640105E-006  0.1215379E+03  0.7546771E-02  0.1240988E+00
          1   -1    0    0  502    0 -0.00000000000E+00  0.00000000000E+00  0.58657917252E+03  0.58657917252E+03  0.00000000000E+00 0. -1.
         21   -1    0    0  503  502  0.00000000000E+00 -0.00000000000E+00 -0.10304357679E+03  0.10304357679E+03  0.00000000000E+00 0.  1.
         23    2    1    2    0    0 -0.76579159754E+02 -0.29261534785E+01  0.17253628451E+03  0.20957333517E+03  0.90990566876E+02 0.  0.
         23    2    1    2    0    0  0.74723191872E+02  0.80857862101E+02  0.77536501998E+02  0.16177426872E+03  0.89651857812E+02 0.  0.
        -11    1    3    3    0    0 -0.44766452322E+02 -0.15346712097E+02  0.16869427778E+03  0.17520649583E+03  0.00000000000E+00 0. -1.
         11    1    3    3    0    0 -0.31812707432E+02  0.12420558618E+02  0.38420067279E+01  0.34366839340E+02  0.00000000000E+00 0.  1.
        -13    1    4    4    0    0  0.47542284753E+02  0.16352562734E+02 -0.83622066495E+01  0.50966671929E+02  0.00000000000E+00 0.  1.
         13    1    4    4    0    0  0.27180907120E+02  0.64505299367E+02  0.85898708648E+02  0.11080759679E+03  0.00000000000E+00 0. -1.
         21    1    1    2  503  501  0.40623210099E+02 -0.13770347063E+02 -0.24666919083E+02  0.49480547229E+02  0.00000000000E+00 0.  1.
          1    1    1    2  501    0 -0.38767242218E+02 -0.64161361560E+02  0.25812972830E+03  0.26879459819E+03  0.00000000000E+00 0. -1.
<scales pt_clust_5="13000.00000" pt_clust_6="13000.00000" pt_clust_7="13000.00000" pt_clust_8="13000.00000" pt_clust_9="42.89368" pt_clust_10="74.29566"></scales>
<clustering>
<clus scale="   42.894">  2  9  1 -1</clus>
<clus scale="   74.296">  2 10  1 -1</clus>
<clus scale="   89.652">  7  8 -1 -1</clus>
<clus scale="   90.991">  5  6 -1 -1</clus>
<clus scale="  120.539">  2  7  1 -1</clus>
<clus scale="   42.894">  2  5  1 -1</clus>
</clustering>
</event>
<event>
10    2  0.6640105E-006  0.1532526E+03  0.7546771E-02  0.1197210E+00
         -4   -1    0    0    0  501 -0.00000000000E+00  0.00000000000E+00  0.45602001563E+03  0.45602001563E+03  0.00000000000E+00 0.  1.
         21   -1    0    0  503  502  0.00000000000E+00 -0.00000000000E+00 -0.10827665602E+03  0.10827665602E+03  0.00000000000E+00 0. -1.
         23    2    1    2    0    0  0.11913913204E+03  0.77172707613E+01  0.20802907432E+03  0.25549654214E+03  0.88026690447E+02 0.  0.
         23    2    1    2    0    0 -0.12601130936E+03 -0.16745608366E+02  0.16950700987E+03  0.23092314702E+03  0.91834677260E+02 0.  0.
        -11    1    4    4    0    0 -0.67928341030E+02 -0.50556481401E+02  0.12246173809E+03  0.14888618009E+03  0.00000000000E+00 0.  1.
         11    1    4    4    0    0 -0.58082968332E+02  0.33810873034E+02  0.47045271781E+02  0.82036966927E+02  0.00000000000E+00 0. -1.
        -11    1    3    3    0    0  0.33447665599E+02 -0.38292725540E+02  0.78210549146E+02  0.93284345745E+02  0.00000000000E+00 0.  1.
         11    1    3    3    0    0  0.85691466443E+02  0.46009996302E+02  0.12981852518E+03  0.16221219640E+03  0.00000000000E+00 0. -1.
         21    1    1    2  503  501 -0.16525251186E+02 -0.18257562581E+02 -0.33681171555E+02  0.41723420707E+02  0.00000000000E+00 0. -1.
         -4    1    1    2    0  502  0.23397428507E+02  0.27285900187E+02  0.38884469799E+01  0.36153561783E+02  0.00000000000E+00 0.  1.
<scales pt_clust_5="13000.00000" pt_clust_6="13000.00000" pt_clust_7="13000.00000" pt_clust_8="13000.00000" pt_clust_9="24.62565" pt_clust_10="30.31708"></scales>
<clustering>
<clus scale="   24.626">  2  9  1 -1</clus>
<clus scale="   30.317">  2 10  1 -1</clus>
<clus scale="   88.027">  7  8 -1 -1</clus>
<clus scale="   91.835">  5  6 -1 -1</clus>
<clus scale="  151.002">  1  7  2 -1</clus>
<clus scale="   24.626">  2  5  1 -1</clus>
</clustering>
</event>
<event>
10    2  0.6640105E-006  0.1188612E+03  0.7546771E-02  0.1245573E+00
         21   -1    0    0  503  502  0.00000000000E+00  0.00000000000E+00  0.31979197675E+03  0.31979197675E+03  0.00000000000E+00 0.  1.
         -1   -1    0    0    0  501 -0.00000000000E+00 -0.00000000000E+00 -0.19840174322E+03  0.19840174322E+03  0.00000000000E+00 0.  1.
         23    2    1    2    0    0 -0.65995460132E+02 -0.26191902021E+02 -0.98556243254E+02  0.15376828100E+03  0.94286450074E+02 0.  0.
         23    2    1    2    0    0  0.56233860399E+02  0.56101028355E+02 -0.84801968022E+01  0.12223778856E+03  0.92523460683E+02 0.  0.
        -11    1    4    4    0    0  0.27614093093E+02  0.32898505064E+02  0.41779781121E+02  0.59919945622E+02  0.00000000000E+00 0. -1.
         11    1    4    4    0    0  0.28619767306E+02  0.23202523291E+02 -0.50259977924E+02  0.62317842939E+02  0.00000000000E+00 0.  1.
        -11    1    3    3    0    0 -0.39452805122E+02 -0.61256952060E+02 -0.50654084271E+02  0.88739924843E+02  0.00000000000E+00 0.  1.
         11    1    3    3    0    0 -0.26542655010E+02  0.35065050039E+02 -0.47902158983E+02  0.65028356157E+02  0.00000000000E+00 0. -1.
         21    1    1    2  503  501 -0.80774175306E+01  0.21930603900E+02  0.44493991510E+02  0.50258445479E+02  0.00000000000E+00 0. -1.
         -1    1    1    2    0  502  0.17839017263E+02 -0.51839730234E+02  0.18393268208E+03  0.19192920493E+03  0.00000000000E+00 0.  1.
<scales pt_clust_5="13000.00000" pt_clust_6="13000.00000" pt_clust_7="13000.00000" pt_clust_8="13000.00000" pt_clust_9="23.37084" pt_clust_10="38.70571"></scales>
<clustering>
<clus scale="   23.371">  1  9  2 -1</clus>
<clus scale="   38.706">  1 10  2 -1</clus>
<clus scale="   92.523">  5  6 -1 -1</clus>
<clus scale="   94.286">  7  8 -1 -1</clus>
<clus scale="  117.468">  1  5  2 -1</clus>
<clus scale="   23.371">  1  5  2 -1</clus>
</clustering>
</event>
<event>
10    2  0.6640105E-006  0.1673457E+03  0.7546771E-02  0.1198719E+00
         21   -1    0    0  503  502  0.00000000000E+00  0.00000000000E+00  0.41717490127E+03  0.41717490127E+03  0.00000000000E+00 0.  1.
         -1   -1    0    0    0  501 -0.00000000000E+00 -0.00000000000E+00 -0.21080757581E+03  0.21080757581E+03  0.00000000000E+00 0.  1.
         23    2    1    2    0    0  0.48628676313E+02 -0.37551489245E+02 -0.14603204561E+02  0.11174422880E+03  0.92188158582E+02 0.  0.
         23    2    1    2    0    0 -0.55068515753E+02 -0.11330401242E+03 -0.76344347753E+02  0.16643595758E+03  0.77473401133E+02 0.  0.
        -11    1    4    4    0    0  0.13141526673E+02 -0.36418186701E+02 -0.44169496242E+02  0.58736091495E+02  0.00000000000E+00 0.  1.
         11    1    4    4    0    0 -0.68210042426E+02 -0.76885825721E+02 -0.32174851511E+02  0.10769986608E+03  0.00000000000E+00 0. -1.
        -13    1    3    3    0    0  0.42525038112E+02  0.78020192652E+01 -0.40433174136E+02  0.59195370949E+02  0.00000000000E+00 0. -1.
         13    1    3    3    0    0  0.61036382010E+01 -0.45353508510E+02  0.25829969575E+02  0.52548857853E+02  0.00000000000E+00 0.  1.
         21    1    1    2  503  501  0.15071942138E+02 -0.13168191435E+02  0.34380085545E+02  0.39781339691E+02  0.00000000000E+00 0.  1.
         -1    1    1    2    0  502 -0.86321026982E+01  0.16402369310E+03  0.26293479224E+03  0.31002095101E+03  0.00000000000E+00 0.  1.
<scales pt_clust_5="13000.00000" pt_clust_6="13000.00000" pt_clust_7="13000.00000" pt_clust_8="13000.00000" pt_clust_9="20.01411" pt_clust_10="148.33221"></scales>
<clustering>
<clus scale="   20.014">  1  9  2 -1</clus>
<clus scale="   77.473">  5  6 -1 -1</clus>
<clus scale="   92.188">  7  8 -1 -1</clus>
<clus scale="  112.222">  2  7  1 -1</clus>
<clus scale="  148.332">  1 10  2 -1</clus>
<clus scale="   20.014">  1  5  2 -1</clus>
</clustering>
</event>
<event>
10    2  0.6640105E-006  0.2086287E+03  0.7546771E-02  0.1175357E+00
         21   -1    0    0  501  502  0.00000000000E+00  0.00000000000E+00  0.19215126104E+03  0.19215126104E+03  0.00000000000E+00 0. -1.
          4   -1    0    0  503    0 -0.00000000000E+00 -0.00000000000E+00 -0.56504200889E+03  0.56504200889E+03  0.00000000000E+00 0. -1.
         23    2    1    2    0    0  0.20331838417E+02  0.12583706754E+02 -0.14180270828E+03  0.17104174844E+03  0.92604202419E+02 0.  0.
         23    2    1    2    0    0 -0.23255348462E+03  0.38255770507E+02 -0.21031618629E+03  0.32814791674E+03  0.88901798962E+02 0.  0.
        -11    1    3    3    0    0 -0.15917768944E+02  0.37705122691E+02 -0.29678945841E+02  0.50555825298E+02  0.00000000000E+00 0.  1.
         11    1    3    3    0    0  0.36249607361E+02 -0.25121415937E+02 -0.11212376244E+03  0.12048592315E+03  0.00000000000E+00 0. -1.
        -11    1    4    4    0    0 -0.14732198900E+03  0.44437273863E+02 -0.18153110739E+03  0.23797475223E+03  0.00000000000E+00 0. -1.
         11    1    4    4    0    0 -0.85231495622E+02 -0.61815033562E+01 -0.28785078902E+02  0.90173164506E+02  0.00000000000E+00 0.  1.
         21    1    1    2  503  502  0.12413862685E+03 -0.30129331985E+02  0.55866483877E+02  0.13942467265E+03  0.00000000000E+00 0. -1.
          4    1    1    2  501    0  0.88083019350E+02 -0.20710145275E+02 -0.76638337158E+02  0.11857893210E+03  0.00000000000E+00 0. -1.
<scales pt_clust_5="13000.00000" pt_clust_6="13000.00000" pt_clust_7="13000.00000" pt_clust_8="13000.00000" pt_clust_9="188.73898" pt_clust_10="90.48501"></scales>
<clustering>
<clus scale="   88.902">  7  8 -1 -1</clus>
<clus scale="   90.485">  1 10  2 -1</clus>
<clus scale="   92.604">  5  6 -1 -1</clus>
<clus scale="   97.306">  2  5  1 -1</clus>
<clus scale="  188.739">  1  9  2 -1</clus>
<clus scale="   90.485">  1  5  2 -1</clus>
</clustering>
</event>
<event>
10    2  0.6640105E-006  0.1505831E+03  0.7546771E-02  0.1199888E+00
         -1   -1    0    0    0  501 -0.00000000000E+00  0.00000000000E+00  0.38434820373E+03  0.38434820373E+03  0.00000000000E+00 0.  1.
         21   -1    0    0  501  502  0.00000000000E+00 -0.00000000000E+00 -0.21393163032E+03  0.21393163032E+03  0.00000000000E+00 0.  1.
         23    2    1    2    0    0  0.35316245733E+02 -0.15417666874E+03  0.25405730480E+03  0.31267887375E+03  0.90583009282E+02 0.  0.
         23    2    1    2    0    0  0.26180279324E+02  0.67484246275E+02  0.34401757616E+02  0.12147166094E+03  0.91281723051E+02 0.  0.
        -11    1    3    3    0    0 -0.62792968363E+01 -0.13006430022E+03  0.15402747543E+03  0.20169436023E+03  0.00000000000E+00 0.  1.
         11    1    3    3    0    0  0.41595542569E+02 -0.24112368513E+02  0.10002982937E+03  0.11098451352E+03  0.00000000000E+00 0. -1.
        -11    1    4    4    0    0  0.38272884890E+02 -0.73173339410E+01  0.21826059559E+02  0.44662444734E+02  0.00000000000E+00 0.  1.
         11    1    4    4    0    0 -0.12092605566E+02  0.74801580216E+02  0.12575698058E+02  0.76809216204E+02  0.00000000000E+00 0. -1.
         21    1    1    2  503  502 -0.32655663882E+02  0.13520265334E+02 -0.38677389173E+02  0.52393991941E+02  0.00000000000E+00 0. -1.
         -1    1    1    2    0  503 -0.28840861175E+02  0.73172157126E+02 -0.79365099833E+02  0.11173530742E+03  0.00000000000E+00 0.  1.
<scales pt_clust_5="13000.00000" pt_clust_6="13000.00000" pt_clust_7="13000.00000" pt_clust_8="13000.00000" pt_clust_9="27.69631" pt_clust_10="114.03683"></scales>
<clustering>
<clus scale="   27.696">  9 10 -1 -1</clus>
<clus scale="   90.583">  5  6 -1 -1</clus>
<clus scale="   91.282">  7  8 -1 -1</clus>
<clus scale="  114.037">  2  9  1 -1</clus>
<clus scale="  150.161">  1  5  2 -1</clus>
<clus scale="  114.037">  2  5  1 -1</clus>
</clustering>
</event>
<event>
10    2  0.6640105E-006  0.1582881E+03  0.7546771E-02  0.1191453E+00
         21   -1    0    0  503  502  0.00000000000E+00  0.00000000000E+00  0.14508816395E+03  0.14508816395E+03  0.00000000000E+00 0.  1.
         -2   -1    0    0    0  501 -0.00000000000E+00 -0.00000000000E+00 -0.91154140343E+03  0.91154140343E+03  0.00000000000E+00 0.  1.
         23    2    1    2    0    0 -0.91191193519E+02 -0.20212543094E+02 -0.27556645180E+03  0.30480708828E+03  0.90808100060E+02 0.  0.
         23    2    1    2    0    0  0.16576766969E+03 -0.92473372312E+01 -0.53395287008E+03  0.56726997511E+03  0.95525513033E+02 0.  0.
        -11    1    3    3    0    0 -0.57280754723E+02  0.62741676339E+01 -0.24585400965E+03  0.25251662144E+03  0.00000000000E+00 0.  1.
         11    1    3    3    0    0 -0.33910438795E+02 -0.26486710728E+02 -0.29712442150E+02  0.52290466846E+02  0.00000000000E+00 0. -1.
        -13    1    4    4    0    0  0.13363487245E+03 -0.20341478419E+02 -0.50448783773E+03  0.52228347983E+03  0.00000000000E+00 0.  1.
         13    1    4    4    0    0  0.32132797240E+02  0.11094141188E+02 -0.29465032347E+02  0.44986495288E+02  0.00000000000E+00 0. -1.
         21    1    1    2  503  501 -0.25369913149E+02 -0.32401443958E+01  0.99569348725E+02  0.10280168401E+03  0.00000000000E+00 0.  1.
         -2    1    1    2    0  502 -0.49206563022E+02  0.32700024721E+02 -0.56503266328E+02  0.81750819977E+02  0.00000000000E+00 0.  1.
<scales pt_clust_5="13000.00000" pt_clust_6="13000.00000" pt_clust_7="13000.00000" pt_clust_8="13000.00000" pt_clust_9="25.57599" pt_clust_10="64.82006"></scales>
<clustering>
<clus scale="   25.576">  1  9  2 -1</clus>
<clus scale="   64.820">  1 10  2 -1</clus>
<clus scale="   90.808">  5  6 -1 -1</clus>
<clus scale="   95.526">  7  8 -1 -1</clus>
<clus scale="  155.487">  2  5  1 -1</clus>
<clus scale="   25.576">  1  5  2 -1</clus>
</clustering>
</event>
<event>
10    2  0.6640105E-006  0.9701872E+02  0.7546771E-02  0.1291573E+00
         21   -1    0    0  503  502  0.00000000000E+00  0.00000000000E+00  0.25925787228E+03  0.25925787228E+03  0.00000000000E+00 0.  1.
          1   -1    0    0  502    0 -0.00000000000E+00 -0.00000000000E+00 -0.35720314028E+03  0.35720314028E+03  0.00000000000E+00 0. -1.
         23    2    1    2    0    0  0.31815310110E+02 -0.74231377710E+01 -0.24215331132E+03  0.25748611047E+03  0.81200701792E+02 0.  0.
         23    2    1    2    0    0 -0.51918045130E+02 -0.17055701589E+02 -0.32284603100E+02  0.11043919007E+03  0.90377755779E+02 0.  0.
        -11    1    3    3    0    0  0.25893526959E+02 -0.42954860013E+02 -0.11810720640E+03  0.12831565353E+03  0.00000000000E+00 0.  1.
         11    1    3    3    0    0  0.59217831514E+01  0.35531722242E+02 -0.12404610493E+03  0.12917045695E+03  0.00000000000E+00 0. -1.
        -11    1    4    4    0    0  0.16957091056E+02 -0.29254388219E+02 -0.20396767886E+02  0.39489116315E+02  0.00000000000E+00 0.  1.
         11    1    4    4    0    0 -0.68875136186E+02  0.12198686630E+02 -0.11887835214E+02  0.70950073758E+02  0.00000000000E+00 0. -1.
         21    1    1    2  503  501 -0.68731390971E+02 -0.22507543363E+02  0.93465845780E+02  0.11817976959E+03  0.00000000000E+00 0.  1.
          1    1    1    2  501    0  0.88834125991E+02  0.46986382723E+02  0.83026800639E+02  0.13035594243E+03  0.00000000000E+00 0. -1.
<scales pt_clust_5="13000.00000" pt_clust_6="13000.00000" pt_clust_7="13000.00000" pt_clust_8="13000.00000" pt_clust_9="72.32284" pt_clust_10="51.63663"></scales>
<clustering>
<clus scale="   72.323">  1  9  2 -1</clus>
<clus scale="   51.637">  1 10  2 -1</clus>
<clus scale="   81.201">  5  6 -1 -1</clus>
<clus scale="   88.533">  2  5  1 -1</clus>
<clus scale="   90.378">  7  8 -1 -1</clus>
<clus scale="   72.323">  1  5  2 -1</clus>
</clustering>
</event>
<event>
10    2  0.6640105E-006  0.1316219E+03  0.7546771E-02  0.1261383E+00
         -2   -1    0    0    0  501 -0.00000000000E+00  0.00000000000E+00  0.64831534624E+03  0.64831534624E+03  0.00000000000E+00 0.  1.
         21   -1    0    0  503  502  0.00000000000E+00 -0.00000000000E+00 -0.93951470597E+02  0.93951470597E+02  0.00000000000E+00 0. -1.
         23    2    1    2    0    0  0.23174797651E+02 -0.46071821417E+01  0.29301820508E+03  0.29981008273E+03  0.58890744809E+02 0.  0.
         23    2    1    2    0    0  0.91088614229E+02 -0.42955362745E+02  0.47233772717E+02  0.14491312903E+03  0.92878882692E+02 0.  0.
        -11    1    3    3    0    0  0.12764835343E+02  0.27096371537E+02  0.14831077946E+03  0.15130512772E+03  0.00000000000E+00 0. -1.
         11    1    3    3    0    0  0.10409962308E+02 -0.31703553679E+02  0.14470742562E+03  0.14850495500E+03  0.00000000000E+00 0.  1.
        -13    1    4    4    0    0  0.34560529022E+02 -0.42834432523E+02 -0.18640774541E+02  0.58109355971E+02  0.00000000000E+00 0.  1.
         13    1    4    4    0    0  0.56528085207E+02 -0.12093022202E+00  0.65874547258E+02  0.86803773061E+02  0.00000000000E+00 0. -1.
         21    1    1    2  503  501 -0.65808115372E+01  0.50292733436E+02 -0.73725139541E+01  0.51254463991E+02  0.00000000000E+00 0. -1.
         -2    1    1    2    0  502 -0.10768260034E+03 -0.27301885497E+01  0.22148441180E+03  0.24628914108E+03  0.00000000000E+00 0.  1.
<scales pt_clust_5="13000.00000" pt_clust_6="13000.00000" pt_clust_7="13000.00000" pt_clust_8="13000.00000" pt_clust_9="50.72146" pt_clust_10="93.26221"></scales>
<clustering>
<clus scale="   50.721">  2  9  1 -1</clus>
<clus scale="   58.891">  5  6 -1 -1</clus>
<clus scale="   63.191">  1  5  2 -1</clus>
<clus scale="   92.879">  7  8 -1 -1</clus>
<clus scale="   93.262">  2 10  1 -1</clus>
<clus scale="   50.721">  2  5  1 -1</clus>
</clustering>
</event>
<event>
10    2  0.6640105E-006  0.1800073E+03  0.7546771E-02  0.1183853E+00
         21   -1    0    0  503  502  0.00000000000E+00  0.00000000000E+00  0.74909066553E+03  0.74909066553E+03  0.00000000000E+00 0.  1.
         -1   -1    0    0    0  501 -0.00000000000E+00 -0.00000000000E+00 -0.28871886540E+03  0.28871886540E+03  0.00000000000E+00 0.  1.
         23    2    1    2    0    0 -0.12790286262E+02  0.91822442888E+02  0.16499315966E+02  0.13078317824E+03  0.90758249445E+02 0.  0.
         23    2    1    2    0    0  0.11471166654E+03  0.51089387655E+02 -0.16852129978E+03  0.22897076848E+03  0.90880649036E+02 0.  0.
        -11    1    4    4    0    0  0.79760831336E+02  0.29807650346E+01 -0.44386211279E+02  0.91328040203E+02  0.00000000000E+00 0.  1.
         11    1    4    4    0    0  0.34950835207E+02  0.48108622621E+02 -0.12413508850E+03  0.13764272828E+03  0.00000000000E+00 0. -1.
        -13    1    3    3    0    0 -0.44437797972E+02  0.47431896347E+02 -0.16498761506E+02  0.67057526132E+02  0.00000000000E+00 0.  1.
         13    1    3    3    0    0  0.31647511710E+02  0.44390546540E+02  0.32998077472E+02  0.63725652107E+02  0.00000000000E+00 0. -1.
         21    1    1    2  503  501 -0.68168615261E+02 -0.74325964657E+02  0.58977810144E+03  0.59833896586E+03  0.00000000000E+00 0.  1.
         -1    1    1    2    0  502 -0.33752765021E+02 -0.68585865886E+02  0.22615682502E+02  0.79716618348E+02  0.00000000000E+00 0.  1.
<scales pt_clust_5="13000.00000" pt_clust_6="13000.00000" pt_clust_7="13000.00000" pt_clust_8="13000.00000" pt_clust_9="155.38131" pt_clust_10="76.44132"></scales>
<clustering>
<clus scale="   76.441">  1 10  2 -1</clus>
<clus scale="   90.758">  7  8 -1 -1</clus>
<clus scale="   90.881">  5  6 -1 -1</clus>
<clus scale="  125.137">  2  7  1 -1</clus>
<clus scale="  155.381">  1  9  2 -1</clus>
<clus scale="   76.441">  1  5  2 -1</clus>
</clustering>
</event>
<event>
10    2  0.6640105E-006  0.2210608E+03  0.7546771E-02  0.1169076E+00
         21   -1    0    0  501  502  0.00000000000E+00  0.00000000000E+00  0.72655700066E+02  0.72655700066E+02  0.00000000000E+00 0.  1.
          2   -1    0    0  503    0 -0.00000000000E+00 -0.00000000000E+00 -0.13433205500E+04  0.13433205500E+04  0.00000000000E+00 0. -1.
         23    2    1    2    0    0  0.15672434053E+02  0.57032174241E+01 -0.38741701413E+03  0.39878822653E+03  0.93069623925E+02 0.  0.
         23    2    1    2    0    0 -0.70226066525E+02 -0.20409152963E+03 -0.33230971085E+03  0.40663453098E+03  0.91306324926E+02 0.  0.
        -11    1    4    4    0    0  0.29420607860E+00 -0.50778156121E+02 -0.26318991450E+02  0.57194379158E+02  0.00000000000E+00 0. -1.
         11    1    4    4    0    0 -0.70520272603E+02 -0.15331337351E+03 -0.30599071940E+03  0.34944015182E+03  0.00000000000E+00 0.  1.
        -11    1    3    3    0    0  0.26033843725E+02 -0.37054021256E+02 -0.13056026304E+03  0.13819096858E+03  0.00000000000E+00 0.  1.
         11    1    3    3    0    0 -0.10361409673E+02  0.42757238680E+02 -0.25685675109E+03  0.26059725795E+03  0.00000000000E+00 0. -1.
         21    1    1    2  503  502 -0.24120409174E+02  0.26011855618E+02 -0.92195410942E+01  0.36652567569E+02  0.00000000000E+00 0.  1.
          2    1    1    2  501    0  0.78674041646E+02  0.17237645659E+03 -0.54171858387E+03  0.57390092501E+03  0.00000000000E+00 0. -1.
<scales pt_clust_5="13000.00000" pt_clust_6="13000.00000" pt_clust_7="13000.00000" pt_clust_8="13000.00000" pt_clust_9="35.47409" pt_clust_10="201.32332"></scales>
<clustering>
<clus scale="   35.474">  1  9  2 -1</clus>
<clus scale="   91.306">  5  6 -1 -1</clus>
<clus scale="   93.070">  7  8 -1 -1</clus>
<clus scale="   94.380">  2  7  1 -1</clus>
<clus scale="  201.323">  1 10  2 -1</clus>
<clus scale="   35.474">  1  5  2 -1</clus>
</clustering>
</event>
<event>
10    2  0.6640105E-006  0.1126069E+03  0.7546771E-02  0.1256243E+00
          2   -1    0    0  503    0 -0.00000000000E+00  0.00000000000E+00  0.14081487843E+03  0.14081487843E+03  0.00000000000E+00 0. -1.
         21   -1    0    0  501  502  0.00000000000E+00 -0.00000000000E+00 -0.28333138905E+03  0.28333138905E+03  0.00000000000E+00 0.  1.
         23    2    1    2    0    0 -0.74716369382E+02 -0.33103572702E+02  0.55585955372E+02  0.13367586180E+03  0.90005862106E+02 0.  0.
         23    2    1    2    0    0  0.12460747980E+02 -0.14772845571E+02 -0.13570247030E+03  0.16462630098E+03  0.91176484487E+02 0.  0.
        -11    1    3    3    0    0 -0.87136661785E+02 -0.16265757971E+01  0.34062145942E+02  0.93571755151E+02  0.00000000000E+00 0.  1.
         11    1    3    3    0    0  0.12420292403E+02 -0.31476996905E+02  0.21523809430E+02  0.40104106646E+02  0.00000000000E+00 0. -1.
        -13    1    4    4    0    0 -0.35184251942E+02 -0.23208451223E+02 -0.43934590497E+02  0.60883594136E+02  0.00000000000E+00 0.  1.
         13    1    4    4    0    0  0.47644999922E+02  0.84356056514E+01 -0.91767879804E+02  0.10374270685E+03  0.00000000000E+00 0. -1.
         21    1    1    2  503  502 -0.10169914772E+02  0.27022750925E+02 -0.35636600650E+02  0.45865275971E+02  0.00000000000E+00 0.  1.
          2    1    1    2  501    0  0.72425536174E+02  0.20853667348E+02 -0.26763395041E+02  0.79978828736E+02  0.00000000000E+00 0. -1.
<scales pt_clust_5="13000.00000" pt_clust_6="13000.00000" pt_clust_7="13000.00000" pt_clust_8="13000.00000" pt_clust_9="28.87311" pt_clust_10="75.13020"></scales>
<clustering>
<clus scale="   28.873">  2  9  1 -1</clus>
<clus scale="   75.130">  2 10  1 -1</clus>
<clus scale="   90.006">  5  6 -1 -1</clus>
<clus scale="   91.176">  7  8 -1 -1</clus>
<clus scale="  111.661">  1  5  2 -1</clus>
<clus scale="   28.873">  2  5  1 -1</clus>
</clustering>
</event>
