<event>
10    2  0.3544405E-006  0.9799357E+02  0.7546771E-02  0.1284673E+00
         -1   -1    0    0    0  501 -0.00000000000E+00  0.00000000000E+00  0.44060356306E+03  0.44060356306E+03  0.00000000000E+00 0.  1.
         21   -1    0    0  503  502  0.00000000000E+00 -0.00000000000E+00 -0.64055522924E+02  0.64055522924E+02  0.00000000000E+00 0. -1.
         23    2    1    2    0    0 -0.22851244401E+02 -0.32725862045E+02  0.31417869171E+03  0.32954633330E+03  0.91100900375E+02 0.  0.
         23    2    1    2    0    0  0.68897283444E+01  0.19552207839E+02  0.51795667533E+02  0.10699737906E+03  0.91301099457E+02 0.  0.
        -11    1    3    3    0    0  0.14497659958E+02 -0.53000883852E+02  0.14360766123E+03  0.15376097099E+03  0.00000000000E+00 0. -1.
         11    1    3    3    0    0 -0.37348904359E+02  0.20275021807E+02  0.17057103047E+03  0.17578536231E+03  0.00000000000E+00 0.  1.
        -13    1    4    4    0    0  0.30923137523E+02  0.29104318390E+02  0.65244886006E+02  0.77847266703E+02  0.00000000000E+00 0.  1.
         13    1    4    4    0    0 -0.24033409179E+02 -0.95521105507E+01 -0.13449218473E+02  0.29150112354E+02  0.00000000000E+00 0. -1.
         21    1    1    2  503  501  0.20723018755E+02 -0.13248554798E+02  0.27093119918E+02  0.36592415300E+02  0.00000000000E+00 0. -1.
         -1    1    1    2    0  502 -0.47615026985E+01  0.26422209004E+02 -0.16519439018E+02  0.31522958334E+02  0.00000000000E+00 0.  1.
<scales pt_clust_5="13000.00000" pt_clust_6="13000.00000" pt_clust_7="13000.00000" pt_clust_8="13000.00000" pt_clust_9="24.59609" pt_clust_10="21.36700"></scales>
<clustering>
<clus scale="   24.596">  2  9  1 -1</clus>
<clus scale="   21.367">  2 10  1 -1</clus>
<clus scale="   91.101">  5  6 -1 -1</clus>
<clus scale="   91.301">  7  8 -1 -1</clus>
<clus scale="   97.807">  1  5  2 -1</clus>
<clus scale="   24.596">  2  5  1 -1</clus>
</clustering>
</event>
<event>
10    2  0.3544405E-006  0.1022771E+03  0.7546771E-02  0.1282619E+00
          2   -1    0    0  503    0 -0.00000000000E+00  0.00000000000E+00  0.33866977553E+03  0.33866977553E+03  0.00000000000E+00 0. -1.
         21   -1    0    0  501  502  0.00000000000E+00 -0.00000000000E+00 -0.10865852114E+03  0.10865852114E+03  0.00000000000E+00 0.  1.
         23    2    1    2    0    0 -0.74647304431E+00 -0.61951055127E+02  0.83379198293E+02  0.13868773191E+03  0.91889639360E+02 0.  0.
         23    2    1    2    0    0  0.53924958347E+02  0.15827707046E+02 -0.31056539714E+02  0.10052236765E+03  0.77342228410E+02 0.  0.
        -13    1    3    3    0    0 -0.27409255498E+02 -0.35758433274E+02  0.90077024648E+02  0.10071644953E+03  0.00000000000E+00 0. -1.
         13    1    3    3    0    0  0.26662782453E+02 -0.26192621853E+02 -0.66978263548E+01  0.37971282380E+02  0.00000000000E+00 0.  1.
        -13    1    4    4    0    0  0.34317643391E+02  0.28428528701E+02 -0.52491852023E+02  0.68856927181E+02  0.00000000000E+00 0. -1.
         13    1    4    4    0    0  0.19607314956E+02 -0.12600821655E+02  0.21435312309E+02  0.31665440466E+02  0.00000000000E+00 0.  1.
         21    1    1    2  503  502 -0.17041958607E+02  0.25481337169E+02  0.15998010535E+03  0.16289064124E+03  0.00000000000E+00 0. -1.
          2    1    1    2  501    0 -0.36136526695E+02  0.20642010912E+02  0.17708490462E+02  0.45227555876E+02  0.00000000000E+00 0. -1.
<scales pt_clust_5="13000.00000" pt_clust_6="13000.00000" pt_clust_7="13000.00000" pt_clust_8="13000.00000" pt_clust_9="30.65497" pt_clust_10="46.55136"></scales>
<clustering>
<clus scale="   30.655">  1  9  2 -1</clus>
<clus scale="   46.551">  2 10  1 -1</clus>
<clus scale="   77.342">  7  8 -1 -1</clus>
<clus scale="   89.436">  2  7  1 -1</clus>
<clus scale="   91.890">  5  6 -1 -1</clus>
<clus scale="   46.551">  2  5  1 -1</clus>
</clustering>
</event>
<event>
10    2  0.3544405E-006  0.1924760E+03  0.7546771E-02  0.1156278E+00
         21   -1    0    0  501  502  0.00000000000E+00  0.00000000000E+00  0.10740064540E+04  0.10740064540E+04  0.00000000000E+00 0. -1.
          2   -1    0    0  503    0 -0.00000000000E+00 -0.00000000000E+00 -0.52972830402E+02  0.52972830402E+02  0.00000000000E+00 0. -1.
         23    2    1    2    0    0 -0.92272891991E+02  0.13775175676E+03  0.24340700814E+03  0.30830591820E+03  0.91190649214E+02 0.  0.
         23    2    1    2    0    0  0.72184714854E+02 -0.13815524243E+03  0.62947543819E+03  0.65482699467E+03  0.90893132848E+02 0.  0.
        -11    1    4    4    0    0  0.59264620437E+02 -0.62872989950E+02  0.18946722544E+03  0.20823817522E+03  0.00000000000E+00 0.  1.
         11    1    4    4    0    0  0.12920094417E+02 -0.75282252482E+02  0.44000821275E+03  0.44658881946E+03  0.00000000000E+00 0. -1.
        -13    1    3    3    0    0 -0.33451832782E+02 -0.37230391503E+01  0.64533084196E+02  0.72783274815E+02  0.00000000000E+00 0.  1.
         13    1    3    3    0    0 -0.58821059209E+02  0.14147479591E+03  0.17887392394E+03  0.23552264339E+03  0.00000000000E+00 0. -1.
         21    1    1    2  503  502 -0.87790579827E+01  0.18928475450E+02  0.13398327944E+02  0.24796657711E+02  0.00000000000E+00 0. -1.
          2    1    1    2  501    0  0.28867235120E+02 -0.18524989774E+02  0.13475284931E+03  0.13904971379E+03  0.00000000000E+00 0. -1.
<scales pt_clust_5="13000.00000" pt_clust_6="13000.00000" pt_clust_7="13000.00000" pt_clust_8="13000.00000" pt_clust_9="20.86526" pt_clust_10="33.50351"></scales>
<clustering>
<clus scale="   20.865">  2  9  1 -1</clus>
<clus scale="   33.504">  1 10  2 -1</clus>
<clus scale="   90.893">  5  6 -1 -1</clus>
<clus scale="   91.191">  7  8 -1 -1</clus>
<clus scale="  192.335">  1  5  2 -1</clus>
<clus scale="   33.504">  1  5  2 -1</clus>
</clustering>
</event>
<event>
10    2  0.3544405E-006  0.1632578E+03  0.7546771E-02  0.1185396E+00
         21   -1    0    0  501  502  0.00000000000E+00  0.00000000000E+00  0.93077499797E+02  0.93077499797E+02  0.00000000000E+00 0. -1.
          1   -1    0    0  503    0 -0.00000000000E+00 -0.00000000000E+00 -0.95424431503E+03  0.95424431503E+03  0.00000000000E+00 0. -1.
         23    2    1    2    0    0  0.52941758702E+02 -0.10147043537E+03 -0.59698707218E+03  0.61461028632E+03  0.90846907708E+02 0.  0.
         23    2    1    2    0    0 -0.88578381076E+02  0.13293764265E+03 -0.21922341075E+03  0.28538225860E+03  0.88688123633E+02 0.  0.
        -11    1    3    3    0    0  0.59352954678E+02 -0.32139908391E+02 -0.40058993909E+03  0.40623644130E+03  0.00000000000E+00 0.  1.
         11    1    3    3    0    0 -0.64111959762E+01 -0.69330526978E+02 -0.19639713308E+03  0.20837384502E+03  0.00000000000E+00 0. -1.
        -11    1    4    4    0    0 -0.34881841599E+02 -0.41654505308E+01 -0.35605248915E+02  0.50018272679E+02  0.00000000000E+00 0.  1.
         11    1    4    4    0    0 -0.53696539477E+02  0.13710309318E+03 -0.18361816184E+03  0.23536398592E+03  0.00000000000E+00 0. -1.
         21    1    1    2  503  502 -0.28339710195E+02 -0.34837309281E+02 -0.66058740639E+02  0.79878248020E+02  0.00000000000E+00 0. -1.
          1    1    1    2  501    0  0.63976332569E+02  0.33701020016E+01  0.21102408331E+02  0.67451021889E+02  0.00000000000E+00 0. -1.
<scales pt_clust_5="13000.00000" pt_clust_6="13000.00000" pt_clust_7="13000.00000" pt_clust_8="13000.00000" pt_clust_9="44.90854" pt_clust_10="63.27870"></scales>
<clustering>
<clus scale="   44.909">  2  9  1 -1</clus>
<clus scale="   63.279">  1 10  2 -1</clus>
<clus scale="   88.688">  7  8 -1 -1</clus>
<clus scale="   90.847">  5  6 -1 -1</clus>
<clus scale="  162.066">  1  7  2 -1</clus>
<clus scale="   63.279">  1  5  2 -1</clus>
</clustering>
</event>
<event>
10    2  0.3544405E-006  0.1008614E+03  0.7546771E-02  0.1280285E+00
          1   -1    0    0  503    0 -0.00000000000E+00  0.00000000000E+00  0.62392017954E+03  0.62392017954E+03  0.00000000000E+00 0. -1.
         21   -1    0    0  501  502  0.00000000000E+00 -0.00000000000E+00 -0.61793625996E+02  0.61793625996E+02  0.00000000000E+00 0. -1.
         23    2    1    2    0    0 -0.37894556226E+02  0.11283479221E+01  0.30314393307E+03  0.31964027611E+03  0.94002081871E+02 0.  0.
         23    2    1    2    0    0  0.46395229640E+02 -0.11843239623E+02  0.37996971836E+02  0.10909764605E+03  0.90364522053E+02 0.  0.
        -11    1    3    3    0    0 -0.24449004354E+02 -0.44805820294E+02  0.19115931648E+03  0.19785651272E+03  0.00000000000E+00 0.  1.
         11    1    3    3    0    0 -0.13445551872E+02  0.45934168217E+02  0.11198461659E+03  0.12178376340E+03  0.00000000000E+00 0. -1.
        -11    1    4    4    0    0  0.69410077867E+02  0.87215873652E+01  0.34607075206E+02  0.78047899715E+02  0.00000000000E+00 0. -1.
         11    1    4    4    0    0 -0.23014848227E+02 -0.20564826989E+02  0.33898966301E+01  0.31049746330E+02  0.00000000000E+00 0.  1.
         21    1    1    2  503  502  0.20086490077E+02  0.34701972940E+02  0.21557011334E+03  0.21926734316E+03  0.00000000000E+00 0.  1.
          1    1    1    2  501    0 -0.28587163490E+02 -0.23987081239E+02  0.54155352952E+01  0.37708540217E+02  0.00000000000E+00 0. -1.
<scales pt_clust_5="13000.00000" pt_clust_6="13000.00000" pt_clust_7="13000.00000" pt_clust_8="13000.00000" pt_clust_9="38.67878" pt_clust_10="37.31764"></scales>
<clustering>
<clus scale="   37.318">  2 10  1 -1</clus>
<clus scale="   38.679">  1  9  2 -1</clus>
<clus scale="   90.365">  7  8 -1 -1</clus>
<clus scale="   94.002">  5  6 -1 -1</clus>
<clus scale="   97.480">  2  7  1 -1</clus>
<clus scale="   37.318">  2  5  1 -1</clus>
</clustering>
</event>
<event>
10    2  0.3544405E-006  0.1104281E+03  0.7546771E-02  0.1260238E+00
          1   -1    0    0  503    0 -0.00000000000E+00  0.00000000000E+00  0.22851511836E+03  0.22851511836E+03  0.00000000000E+00 0. -1.
         21   -1    0    0  501  502  0.00000000000E+00 -0.00000000000E+00 -0.13714361771E+03  0.13714361771E+03  0.00000000000E+00 0.  1.
         23    2    1    2    0    0  0.28172191719E+02 -0.62603641666E+02  0.72301677476E+02  0.13526788812E+03  0.91416522877E+02 0.  0.
         23    2    1    2    0    0  0.25520631399E+01  0.40150021915E+02 -0.17635856808E+02  0.10249151823E+03  0.92601029027E+02 0.  0.
        -11    1    4    4    0    0 -0.97381498700E+01 -0.29064804179E+02 -0.46148730144E+01  0.30998249270E+02  0.00000000000E+00 0.  1.
         11    1    4    4    0    0  0.12290213010E+02  0.69214826094E+02 -0.13020983794E+02  0.71493268956E+02  0.00000000000E+00 0. -1.
        -13    1    3    3    0    0 -0.29226664322E+02 -0.41857685058E+01  0.33466603878E+02  0.44628826340E+02  0.00000000000E+00 0. -1.
         13    1    3    3    0    0  0.57398856040E+02 -0.58417873160E+02  0.38835073598E+02  0.90639061782E+02  0.00000000000E+00 0.  1.
         21    1    1    2  503  502  0.31997405797E+02 -0.20255844638E+01  0.49877815569E+02  0.59293620703E+02  0.00000000000E+00 0. -1.
          1    1    1    2  501    0 -0.62721660655E+02  0.24479204215E+02 -0.13172135579E+02  0.68605709019E+02  0.00000000000E+00 0. -1.
<scales pt_clust_5="13000.00000" pt_clust_6="13000.00000" pt_clust_7="13000.00000" pt_clust_8="13000.00000" pt_clust_9="32.06146" pt_clust_10="62.48123"></scales>
<clustering>
<clus scale="   32.061">  1  9  2 -1</clus>
<clus scale="   62.481">  2 10  1 -1</clus>
<clus scale="   91.417">  7  8 -1 -1</clus>
<clus scale="   92.601">  5  6 -1 -1</clus>
<clus scale="  109.437">  1  7  2 -1</clus>
<clus scale="   62.481">  2  5  1 -1</clus>
</clustering>
</event>
<event>
10    2  0.3544405E-006  0.1182724E+03  0.7546771E-02  0.1247460E+00
          3   -1    0    0  503    0 -0.00000000000E+00  0.00000000000E+00  0.32729203277E+03  0.32729203277E+03  0.00000000000E+00 0. -1.
         21   -1    0    0  501  502  0.00000000000E+00 -0.00000000000E+00 -0.18446091317E+03  0.18446091317E+03  0.00000000000E+00 0. -1.
         23    2    1    2    0    0 -0.42858964339E+02  0.48377481521E+02  0.13239003574E+03  0.17343626899E+03  0.91519103447E+02 0.  0.
         23    2    1    2    0    0  0.77103902613E+02 -0.21579109129E+02  0.60078842801E+02  0.13261070865E+03  0.86979669736E+02 0.  0.
        -11    1    3    3    0    0 -0.26978954482E+02  0.30238407471E+02  0.17199426286E+01  0.40560861356E+02  0.00000000000E+00 0. -1.
         11    1    3    3    0    0 -0.15880009856E+02  0.18139074050E+02  0.13067009311E+03  0.13287540763E+03  0.00000000000E+00 0.  1.
        -11    1    4    4    0    0  0.26048505528E+02 -0.33901659261E+02 -0.11082307714E+02  0.44166329768E+02  0.00000000000E+00 0.  1.
         11    1    4    4    0    0  0.51055397085E+02  0.12322550132E+02  0.71161150515E+02  0.88444378882E+02  0.00000000000E+00 0. -1.
         21    1    1    2  503  502 -0.53445063175E+02 -0.63897295128E+00  0.66386875193E+02  0.85229104549E+02  0.00000000000E+00 0. -1.
          3    1    1    2  501    0  0.19200124901E+02 -0.26159399441E+02 -0.11602463413E+03  0.12047686375E+03  0.00000000000E+00 0. -1.
<scales pt_clust_5="13000.00000" pt_clust_6="13000.00000" pt_clust_7="13000.00000" pt_clust_8="13000.00000" pt_clust_9="50.90024" pt_clust_10="32.44933"></scales>
<clustering>
<clus scale="   32.449">  2 10  1 -1</clus>
<clus scale="   50.900">  1  9  2 -1</clus>
<clus scale="   86.980">  7  8 -1 -1</clus>
<clus scale="   91.519">  5  6 -1 -1</clus>
<clus scale="  114.796">  2  7  1 -1</clus>
<clus scale="   32.449">  2  5  1 -1</clus>
</clustering>
</event>
<event>
10    2  0.3544405E-006  0.2620106E+03  0.7546771E-02  0.1106013E+00
          1   -1    0    0  503    0 -0.00000000000E+00  0.00000000000E+00  0.56847232302E+03  0.56847232302E+03  0.00000000000E+00 0. -1.
         21   -1    0    0  501  502  0.00000000000E+00 -0.00000000000E+00 -0.19027062778E+03  0.19027062778E+03  0.00000000000E+00 0.  1.
         23    2    1    2    0    0 -0.12316149941E+03 -0.20160697002E+03  0.24775895830E+03  0.35404924101E+03  0.90289746649E+02 0.  0.
         23    2    1    2    0    0  0.97572068673E+02  0.24627355033E+03  0.10112336154E+03  0.29799686989E+03  0.91680041673E+02 0.  0.
        -11    1    4    4    0    0  0.80573169522E+02  0.82106217648E+02  0.47520045780E+02  0.12446534206E+03  0.00000000000E+00 0.  1.
         11    1    4    4    0    0  0.16998899151E+02  0.16416733268E+03  0.53603315756E+02  0.17353152783E+03  0.00000000000E+00 0. -1.
        -13    1    3    3    0    0 -0.79593017453E+02 -0.10114403612E+03  0.73424473693E+02  0.14817664393E+03  0.00000000000E+00 0.  1.
         13    1    3    3    0    0 -0.43568481958E+02 -0.10046293390E+03  0.17433448460E+03  0.20587259708E+03  0.00000000000E+00 0. -1.
         21    1    1    2  503  502  0.27522853293E+02 -0.69595824929E+02  0.32305172750E+02  0.81515093617E+02  0.00000000000E+00 0. -1.
          1    1    1    2  501    0 -0.19334225551E+01  0.24929244614E+02 -0.29857973480E+01  0.25181746278E+02  0.00000000000E+00 0. -1.
<scales pt_clust_5="13000.00000" pt_clust_6="13000.00000" pt_clust_7="13000.00000" pt_clust_8="13000.00000" pt_clust_9="71.51105" pt_clust_10="25.00411"></scales>
<clustering>
<clus scale="   25.004">  2 10  1 -1</clus>
<clus scale="   71.511">  2  9  1 -1</clus>
<clus scale="   90.290">  7  8 -1 -1</clus>
<clus scale="   91.680">  5  6 -1 -1</clus>
<clus scale="  261.527">  1  7  2 -1</clus>
<clus scale="   25.004">  2  5  1 -1</clus>
</clustering>
</event>
<event>
10    2  0.3544405E-006  0.1002292E+03  0.7546771E-02  0.1280554E+00
         21   -1    0    0  501  502  0.00000000000E+00  0.00000000000E+00  0.37390108026E+03  0.37390108026E+03  0.00000000000E+00 0. -1.
          1   -1    0    0  503    0 -0.00000000000E+00 -0.00000000000E+00 -0.54626103516E+02  0.54626103516E+02  0.00000000000E+00 0. -1.
         23    2    1    2    0    0 -0.15866459183E+02 -0.40815574090E+02  0.12074159987E+03  0.15716920474E+03  0.90586805684E+02 0.  0.
         23    2    1    2    0    0  0.17972421640E+02  0.39508143016E+02  0.13975751629E+03  0.17129861541E+03  0.89034549355E+02 0.  0.
        -11    1    3    3    0    0  0.35635455510E+02 -0.38137764753E+01  0.56438180578E+02  0.66855806086E+02  0.00000000000E+00 0.  1.
         11    1    3    3    0    0 -0.51501914693E+02 -0.37001797614E+02  0.64303419290E+02  0.90313398653E+02  0.00000000000E+00 0. -1.
        -13    1    4    4    0    0 -0.89610766918E+01 -0.25879829047E+02  0.28984363510E+02  0.39876807483E+02  0.00000000000E+00 0.  1.
         13    1    4    4    0    0  0.26933498332E+02  0.65387972063E+02  0.11077315278E+03  0.13142180793E+03  0.00000000000E+00 0. -1.
         21    1    1    2  503  502  0.26657045951E+02 -0.96042875905E-01 -0.75885681895E+01  0.27716307298E+02  0.00000000000E+00 0.  1.
          1    1    1    2  501    0 -0.28763008408E+02  0.14034739495E+01  0.66364428776E+02  0.72343056326E+02  0.00000000000E+00 0. -1.
<scales pt_clust_5="13000.00000" pt_clust_6="13000.00000" pt_clust_7="13000.00000" pt_clust_8="13000.00000" pt_clust_9="26.65722" pt_clust_10="26.64437"></scales>
<clustering>
<clus scale="   26.657">  2  9  1 -1</clus>
<clus scale="   26.644">  1 10  2 -1</clus>
<clus scale="   89.035">  7  8 -1 -1</clus>
<clus scale="   90.587">  5  6 -1 -1</clus>
<clus scale="   98.828">  1  7  2 -1</clus>
<clus scale="   26.644">  1  5  2 -1</clus>
</clustering>
</event>
<event>
10    2  0.3544405E-006  0.2937203E+03  0.7546771E-02  0.1113120E+00
         21   -1    0    0  501  502  0.00000000000E+00  0.00000000000E+00  0.18205395285E+04  0.18205395285E+04  0.00000000000E+00 0. -1.
          2   -1    0    0  503    0 -0.00000000000E+00 -0.00000000000E+00 -0.91733597454E+03  0.91733597454E+03  0.00000000000E+00 0. -1.
         23    2    1    2    0    0 -0.82812122810E+02  0.93089751235E+02  0.13051342754E+03  0.20213089518E+03  0.91102110559E+02 0.  0.
         23    2    1    2    0    0  0.32704658032E+03 -0.72768473406E+01 -0.64031081714E+03  0.72488339795E+03  0.91899836078E+02 0.  0.
        -11    1    4    4    0    0  0.14231799653E+03  0.29137300031E+02 -0.21179968067E+03  0.25683165522E+03  0.00000000000E+00 0.  1.
         11    1    4    4    0    0  0.18472858379E+03 -0.36414147372E+02 -0.42851113646E+03  0.46805174273E+03  0.00000000000E+00 0. -1.
        -13    1    3    3    0    0 -0.51976094674E+02  0.10470124922E+03  0.79369440611E+02  0.14129180482E+03  0.00000000000E+00 0. -1.
         13    1    3    3    0    0 -0.30836028136E+02 -0.11611497988E+02  0.51143986929E+02  0.60839090359E+02  0.00000000000E+00 0.  1.
         21    1    1    2  503  502  0.10510087130E+02  0.27135703910E+02 -0.18574548410E+03  0.18801115185E+03  0.00000000000E+00 0.  1.
          2    1    1    2  501    0 -0.25474454464E+03 -0.11294860781E+03  0.15987464277E+04  0.16228500581E+04  0.00000000000E+00 0. -1.
<scales pt_clust_5="13000.00000" pt_clust_6="13000.00000" pt_clust_7="13000.00000" pt_clust_8="13000.00000" pt_clust_9="29.09997" pt_clust_10="278.97314"></scales>
<clustering>
<clus scale="   29.100">  2  9  1 -1</clus>
<clus scale="   91.102">  7  8 -1 -1</clus>
<clus scale="   91.900">  5  6 -1 -1</clus>
<clus scale="  154.879">  2  7  1 -1</clus>
<clus scale="  278.973">  1 10  2 -1</clus>
<clus scale="  278.973">  1  5  2 -1</clus>
</clustering>
</event>
<event>
10    2  0.3544405E-006  0.1346666E+03  0.7546771E-02  0.1221324E+00
         -1   -1    0    0    0  501 -0.00000000000E+00  0.00000000000E+00  0.76358926359E+03  0.76358926359E+03  0.00000000000E+00 0.  1.
         21   -1    0    0  503  502  0.00000000000E+00 -0.00000000000E+00 -0.10548071196E+03  0.10548071196E+03  0.00000000000E+00 0. -1.
         23    2    1    2    0    0  0.72436745476E+01  0.54622158058E+02  0.28447859662E+03  0.30430540076E+03  0.92938980134E+02 0.  0.
         23    2    1    2    0    0  0.47755642296E+02 -0.15117334592E+03  0.15434296065E+02  0.18312480211E+03  0.90346520489E+02 0.  0.
        -11    1    4    4    0    0 -0.13325477962E+02 -0.72240578882E+02  0.35076471677E+02  0.81404105950E+02  0.00000000000E+00 0.  1.
         11    1    4    4    0    0  0.61081120258E+02 -0.78932767037E+02 -0.19642175612E+02  0.10172069616E+03  0.00000000000E+00 0. -1.
        -11    1    3    3    0    0 -0.31878431524E+02  0.40327962604E+02  0.23029532074E+03  0.23596294988E+03  0.00000000000E+00 0.  1.
         11    1    3    3    0    0  0.39122106071E+02  0.14294195454E+02  0.54183275879E+02  0.68342450879E+02  0.00000000000E+00 0. -1.
         21    1    1    2  503  501 -0.33809370392E+02  0.64544888063E+02  0.12013670402E+03  0.14050602747E+03  0.00000000000E+00 0.  1.
         -1    1    1    2    0  502 -0.21189946451E+02  0.32006299798E+02  0.23805895493E+03  0.24113374522E+03  0.00000000000E+00 0.  1.
<scales pt_clust_5="13000.00000" pt_clust_6="13000.00000" pt_clust_7="13000.00000" pt_clust_8="13000.00000" pt_clust_9="76.60607" pt_clust_10="38.38513"></scales>
<clustering>
<clus scale="   38.385">  2 10  1 -1</clus>
<clus scale="   76.606">  1  9  2 -1</clus>
<clus scale="   90.347">  5  6 -1 -1</clus>
<clus scale="   92.939">  7  8 -1 -1</clus>
<clus scale="  132.891">  2  5  1 -1</clus>
<clus scale="   38.385">  2  5  1 -1</clus>
</clustering>
</event>
<event>
10    2  0.3544405E-006  0.1041307E+03  0.7546771E-02  0.1274051E+00
         21   -1    0    0  501  502  0.00000000000E+00  0.00000000000E+00  0.37613955074E+03  0.37613955074E+03  0.00000000000E+00 0. -1.
          2   -1    0    0  503    0 -0.00000000000E+00 -0.00000000000E+00 -0.39248930247E+03  0.39248930247E+03  0.00000000000E+00 0. -1.
         23    2    1    2    0    0  0.19296128274E+02  0.14394392206E+00 -0.54560327761E+02  0.10531121430E+03  0.87984437297E+02 0.  0.
         23    2    1    2    0    0  0.53448441555E+02  0.63927383117E+02  0.25372362427E+03  0.28274442537E+03  0.92872419750E+02 0.  0.
        -13    1    3    3    0    0  0.45195931120E+02  0.15066070707E+02 -0.56289607281E+01  0.47972324055E+02  0.00000000000E+00 0.  1.
         13    1    3    3    0    0 -0.25899802846E+02 -0.14922126785E+02 -0.48931367033E+02  0.57338890249E+02  0.00000000000E+00 0. -1.
        -13    1    4    4    0    0  0.64618738021E+02  0.10993502041E+02  0.17796546851E+03  0.18965269936E+03  0.00000000000E+00 0. -1.
         13    1    4    4    0    0 -0.11170296466E+02  0.52933881076E+02  0.75758155756E+02  0.93091726015E+02  0.00000000000E+00 0.  1.
         21    1    1    2  503  502 -0.67194277554E+02 -0.29792839546E+02 -0.28958390019E+03  0.29876666393E+03  0.00000000000E+00 0. -1.
          2    1    1    2  501    0 -0.55502922746E+01 -0.34278487493E+02  0.74070851949E+02  0.81806549601E+02  0.00000000000E+00 0. -1.
<scales pt_clust_5="13000.00000" pt_clust_6="13000.00000" pt_clust_7="13000.00000" pt_clust_8="13000.00000" pt_clust_9="73.79636" pt_clust_10="34.72493"></scales>
<clustering>
<clus scale="   34.725">  1 10  2 -1</clus>
<clus scale="   73.796">  2  9  1 -1</clus>
<clus scale="   87.984">  5  6 -1 -1</clus>
<clus scale="   92.872">  7  8 -1 -1</clus>
<clus scale="   99.796">  2  5  1 -1</clus>
<clus scale="   34.725">  1  5  2 -1</clus>
</clustering>
</event>
<event>
10    2  0.3544405E-006  0.1400235E+03  0.7546771E-02  0.1214312E+00
          1   -1    0    0  503    0 -0.00000000000E+00  0.00000000000E+00  0.80424230400E+03  0.80424230400E+03  0.00000000000E+00 0. -1.
         21   -1    0    0  501  502  0.00000000000E+00 -0.00000000000E+00 -0.12414720351E+03  0.12414720351E+03  0.00000000000E+00 0. -1.
         23    2    1    2    0    0 -0.13408503715E+03  0.38031372847E+01  0.36231058183E+03  0.39637547411E+03  0.88607548963E+02 0.  0.
         23    2    1    2    0    0  0.71330085977E+02 -0.70064219221E+02  0.21235471308E+03  0.25252539687E+03  0.93153507271E+02 0.  0.
        -11    1    4    4    0    0  0.21261341785E+02 -0.18523500714E+02 -0.15169754121E+00  0.28199073484E+02  0.00000000000E+00 0.  1.
         11    1    4    4    0    0  0.50068744192E+02 -0.51540718508E+02  0.21250641062E+03  0.22432632339E+03  0.00000000000E+00 0. -1.
        -11    1    3    3    0    0 -0.13216338171E+03  0.27344522684E+02  0.28145631501E+03  0.31214185821E+03  0.00000000000E+00 0.  1.
         11    1    3    3    0    0 -0.19216554414E+01 -0.23541385399E+02  0.80854266814E+02  0.84233615903E+02  0.00000000000E+00 0. -1.
         21    1    1    2  503  502  0.57856385693E+02  0.46821059157E+02  0.18395671633E+03  0.19844305588E+03  0.00000000000E+00 0. -1.
          1    1    1    2  501    0  0.48985654800E+01  0.19440022779E+02 -0.78526910746E+02  0.81045580637E+02  0.00000000000E+00 0. -1.
<scales pt_clust_5="13000.00000" pt_clust_6="13000.00000" pt_clust_7="13000.00000" pt_clust_8="13000.00000" pt_clust_9="77.07185" pt_clust_10="20.04770"></scales>
<clustering>
<clus scale="   20.048">  2 10  1 -1</clus>
<clus scale="   77.072">  1  9  2 -1</clus>
<clus scale="   88.608">  7  8 -1 -1</clus>
<clus scale="   93.154">  5  6 -1 -1</clus>
<clus scale="  137.041">  1  7  2 -1</clus>
<clus scale="   20.048">  2  5  1 -1</clus>
</clustering>
</event>
<event>
10    2  0.3544405E-006  0.1921338E+03  0.7546771E-02  0.1156630E+00
         21   -1    0    0  503  502  0.00000000000E+00  0.00000000000E+00  0.10031720387E+04  0.10031720387E+04  0.00000000000E+00 0. -1.
         -1   -1    0    0    0  501 -0.00000000000E+00 -0.00000000000E+00 -0.18840771320E+03  0.18840771320E+03  0.00000000000E+00 0.  1.
         23    2    1    2    0    0 -0.13646413094E+03  0.26580372262E+02 -0.34238946411E+02  0.16961579693E+03  0.90929851506E+02 0.  0.
         23    2    1    2    0    0  0.23440151264E+03  0.13999561873E+02  0.64745754360E+03  0.69460215734E+03  0.90171111551E+02 0.  0.
        -11    1    3    3    0    0 -0.22218555046E+02  0.44765354220E+02 -0.45477381444E+01  0.50182497437E+02  0.00000000000E+00 0. -1.
         11    1    3    3    0    0 -0.11424557589E+03 -0.18184981958E+02 -0.29691208266E+02  0.11943329949E+03  0.00000000000E+00 0.  1.
        -13    1    4    4    0    0  0.13542640071E+03  0.57822738723E+01  0.49030891371E+03  0.50870087041E+03  0.00000000000E+00 0. -1.
         13    1    4    4    0    0  0.98975111932E+02  0.82172880006E+01  0.15714862990E+03  0.18590128693E+03  0.00000000000E+00 0.  1.
         21    1    1    2  503  501 -0.30771875985E+02 -0.16533053211E+02 -0.52739327306E+02  0.63258887477E+02  0.00000000000E+00 0. -1.
         -1    1    1    2    0  502 -0.67165505720E+02 -0.24046880924E+02  0.25428505563E+03  0.26410291016E+03  0.00000000000E+00 0.  1.
<scales pt_clust_5="13000.00000" pt_clust_6="13000.00000" pt_clust_7="13000.00000" pt_clust_8="13000.00000" pt_clust_9="34.93208" pt_clust_10="72.64102"></scales>
<clustering>
<clus scale="   34.932">  2  9  1 -1</clus>
<clus scale="   72.641">  1 10  2 -1</clus>
<clus scale="   90.171">  7  8 -1 -1</clus>
<clus scale="   90.930">  5  6 -1 -1</clus>
<clus scale="  191.776">  1  7  2 -1</clus>
<clus scale="   72.641">  1  5  2 -1</clus>
</clustering>
</event>
<event>
10    2  0.3544405E-006  0.2106779E+03  0.7546771E-02  0.1141052E+00
         21   -1    0    0  503  502  0.00000000000E+00  0.00000000000E+00  0.47817508525E+03  0.47817508525E+03  0.00000000000E+00 0.  1.
         -3   -1    0    0    0  501 -0.00000000000E+00 -0.00000000000E+00 -0.17015506077E+03  0.17015506077E+03  0.00000000000E+00 0.  1.
         23    2    1    2    0    0  0.16231930912E+03  0.71554872253E+02  0.15699332635E+02  0.20057105848E+03  0.92274712672E+02 0.  0.
         23    2    1    2    0    0 -0.13827473722E+03 -0.14915337373E+03  0.22415693807E+03  0.31650354295E+03  0.92528525134E+02 0.  0.
        -11    1    4    4    0    0 -0.10405787921E+03 -0.75402719874E+02  0.81096005552E+02  0.15195451460E+03  0.00000000000E+00 0.  1.
         11    1    4    4    0    0 -0.34216858006E+02 -0.73750653851E+02  0.14306093252E+03  0.16454902834E+03  0.00000000000E+00 0. -1.
        -13    1    3    3    0    0  0.30954515855E+02  0.36725779346E+02  0.40007726145E+02  0.62510663664E+02  0.00000000000E+00 0. -1.
         13    1    3    3    0    0  0.13136479326E+03  0.34829092908E+02 -0.24308393510E+02  0.13806039482E+03  0.00000000000E+00 0.  1.
         21    1    1    2  503  501  0.14234596378E+01  0.36281989318E+02 -0.11399164378E+02  0.38057192943E+02  0.00000000000E+00 0. -1.
         -3    1    1    2    0  502 -0.25468031536E+02  0.41316512155E+02  0.79562918141E+02  0.93198351649E+02  0.00000000000E+00 0.  1.
<scales pt_clust_5="13000.00000" pt_clust_6="13000.00000" pt_clust_7="13000.00000" pt_clust_8="13000.00000" pt_clust_9="36.30990" pt_clust_10="49.95724"></scales>
<clustering>
<clus scale="   36.310">  2  9  1 -1</clus>
<clus scale="   49.957">  1 10  2 -1</clus>
<clus scale="   92.275">  7  8 -1 -1</clus>
<clus scale="   92.529">  5  6 -1 -1</clus>
<clus scale="  210.567">  2  7  1 -1</clus>
<clus scale="   49.957">  1  5  2 -1</clus>
</clustering>
</event>
<event>
10    2  0.3544405E-006  0.1775756E+03  0.7546771E-02  0.1191925E+00
         -1   -1    0    0    0  501 -0.00000000000E+00  0.00000000000E+00  0.77557362481E+02  0.77557362481E+02  0.00000000000E+00 0.  1.
         21   -1    0    0  503  502  0.00000000000E+00 -0.00000000000E+00 -0.15810352062E+04  0.15810352062E+04  0.00000000000E+00 0.  1.
         23    2    1    2    0    0  0.43003917944E+01  0.57181623770E+02 -0.40490879125E+03  0.41988346020E+03  0.95198526526E+02 0.  0.
         23    2    1    2    0    0  0.22161515803E+02 -0.16799861684E+03 -0.18048993118E+03  0.26577219419E+03  0.96662174098E+02 0.  0.
        -13    1    4    4    0    0  0.52101556417E+02 -0.15151499469E+03 -0.13985798979E+03  0.21267727453E+03  0.00000000000E+00 0.  1.
         13    1    4    4    0    0 -0.29940040614E+02 -0.16483622152E+02 -0.40631941398E+02  0.53094919653E+02  0.00000000000E+00 0. -1.
        -13    1    3    3    0    0  0.96437394855E+01 -0.21801227745E+02 -0.40674138944E+02  0.47145316005E+02  0.00000000000E+00 0.  1.
         13    1    3    3    0    0 -0.53433476911E+01  0.78982851515E+02 -0.36423465231E+03  0.37273814420E+03  0.00000000000E+00 0. -1.
         21    1    1    2  503  501  0.34831665379E+01 -0.32347872288E+02  0.95028041093E+01  0.33894255806E+02  0.00000000000E+00 0.  1.
         -1    1    1    2    0  502 -0.29945074135E+02  0.14316486536E+03 -0.92758192535E+03  0.93904265844E+03  0.00000000000E+00 0.  1.
<scales pt_clust_5="13000.00000" pt_clust_6="13000.00000" pt_clust_7="13000.00000" pt_clust_8="13000.00000" pt_clust_9="32.53486" pt_clust_10="148.96152"></scales>
<clustering>
<clus scale="   32.535">  1  9  2 -1</clus>
<clus scale="   95.199">  7  8 -1 -1</clus>
<clus scale="   96.662">  5  6 -1 -1</clus>
<clus scale="  108.987">  1  7  2 -1</clus>
<clus scale="  148.962">  2 10  1 -1</clus>
<clus scale="  148.962">  2  5  1 -1</clus>
</clustering>
</event>
<event>
10    2  0.3544405E-006  0.1096925E+03  0.7546771E-02  0.1261637E+00
         21   -1    0    0  503  502  0.00000000000E+00  0.00000000000E+00  0.10523117440E+03  0.10523117440E+03  0.00000000000E+00 0.  1.
         -2   -1    0    0    0  501 -0.00000000000E+00 -0.00000000000E+00 -0.35951833570E+03  0.35951833570E+03  0.00000000000E+00 0.  1.
         23    2    1    2    0    0 -0.56658336652E+02 -0.63511156112E+01 -0.15320473883E+03  0.18718202028E+03  0.91186144423E+02 0.  0.
         23    2    1    2    0    0  0.66247044159E+02 -0.74969339251E+01 -0.12993864769E+03  0.17149840240E+03  0.89904254528E+02 0.  0.
        -11    1    3    3    0    0 -0.54700346491E+02 -0.32534116932E+02 -0.50705931370E+02  0.81373755886E+02  0.00000000000E+00 0. -1.
         11    1    3    3    0    0 -0.19579901608E+01  0.26183001321E+02 -0.10249880746E+03  0.10580826440E+03  0.00000000000E+00 0.  1.
        -13    1    4    4    0    0 -0.50508172650E+01 -0.27423413077E+02 -0.82834417847E+01  0.29088997020E+02  0.00000000000E+00 0. -1.
         13    1    4    4    0    0  0.71297861424E+02  0.19926479152E+02 -0.12165520591E+03  0.14240940538E+03  0.00000000000E+00 0.  1.
         21    1    1    2  503  501  0.89099309978E+01  0.24801895083E+02 -0.32042019805E+02  0.41487490925E+02  0.00000000000E+00 0.  1.
         -2    1    1    2    0  502 -0.18498638505E+02 -0.10953845546E+02  0.60898245027E+02  0.64581596497E+02  0.00000000000E+00 0.  1.
<scales pt_clust_5="13000.00000" pt_clust_6="13000.00000" pt_clust_7="13000.00000" pt_clust_8="13000.00000" pt_clust_9="24.56014" pt_clust_10="21.49852"></scales>
<clustering>
<clus scale="   21.499">  1 10  2 -1</clus>
<clus scale="   24.560">  1  9  2 -1</clus>
<clus scale="   89.904">  7  8 -1 -1</clus>
<clus scale="   91.186">  5  6 -1 -1</clus>
<clus scale="  108.629">  1  7  2 -1</clus>
<clus scale="   21.499">  1  5  2 -1</clus>
</clustering>
</event>
<event>
10    2  0.3544405E-006  0.1046526E+03  0.7546771E-02  0.1271171E+00
         -1   -1    0    0    0  501 -0.00000000000E+00  0.00000000000E+00  0.32913315774E+03  0.32913315774E+03  0.00000000000E+00 0.  1.
         21   -1    0    0  503  502  0.00000000000E+00 -0.00000000000E+00 -0.19965969115E+03  0.19965969115E+03  0.00000000000E+00 0.  1.
         23    2    1    2    0    0  0.97312647338E+01 -0.32307183603E+02  0.14923316603E+03  0.17776176288E+03  0.90500026923E+02 0.  0.
         23    2    1    2    0    0  0.43664626867E+02  0.39993613734E+02 -0.11635723214E+03  0.15933903706E+03  0.91344591960E+02 0.  0.
        -11    1    3    3    0    0 -0.32428094833E+02 -0.19682731291E+02  0.23678589675E+02  0.44717634716E+02  0.00000000000E+00 0. -1.
         11    1    3    3    0    0  0.42159359566E+02 -0.12624452312E+02  0.12555457636E+03  0.13304412817E+03  0.00000000000E+00 0.  1.
        -13    1    4    4    0    0  0.22240148319E+02  0.34831956423E+02 -0.12793578310E+03  0.13444498497E+03  0.00000000000E+00 0.  1.
         13    1    4    4    0    0  0.21424478548E+02  0.51616573109E+01  0.11578550958E+02  0.24894052092E+02  0.00000000000E+00 0. -1.
         21    1    1    2  503  501 -0.39695282103E+01 -0.25246501824E+02  0.12802078708E+03  0.13054679212E+03  0.00000000000E+00 0.  1.
         -1    1    1    2    0  502 -0.49426363390E+02  0.17560071693E+02 -0.31423254382E+02  0.61145256822E+02  0.00000000000E+00 0.  1.
<scales pt_clust_5="13000.00000" pt_clust_6="13000.00000" pt_clust_7="13000.00000" pt_clust_8="13000.00000" pt_clust_9="25.55666" pt_clust_10="52.13616"></scales>
<clustering>
<clus scale="   25.557">  1  9  2 -1</clus>
<clus scale="   52.136">  2 10  1 -1</clus>
<clus scale="   90.500">  5  6 -1 -1</clus>
<clus scale="   91.345">  7  8 -1 -1</clus>
<clus scale="  103.916">  1  5  2 -1</clus>
<clus scale="   52.136">  2  5  1 -1</clus>
</clustering>
</event>
<event>
10    2  0.3544405E-006  0.1817334E+03  0.7546771E-02  0.1166232E+00
          3   -1    0    0  503    0 -0.00000000000E+00  0.00000000000E+00  0.20862358877E+03  0.20862358877E+03  0.00000000000E+00 0. -1.
         21   -1    0    0  501  502  0.00000000000E+00 -0.00000000000E+00 -0.51669800574E+03  0.51669800574E+03  0.00000000000E+00 0. -1.
         23    2    1    2    0    0  0.14779266594E+03 -0.28955677156E+02  0.86386421945E+02  0.19628370047E+03  0.91561857936E+02 0.  0.
         23    2    1    2    0    0 -0.16121230552E+03  0.18617323659E+02 -0.97842585003E+02  0.21080458439E+03  0.92354692186E+02 0.  0.
        -11    1    3    3    0    0  0.87791510109E+02  0.54585289078E+01  0.91502819889E+02  0.12692482355E+03  0.00000000000E+00 0.  1.
         11    1    3    3    0    0  0.60001155831E+02 -0.34414206064E+02 -0.51163979436E+01  0.69358876922E+02  0.00000000000E+00 0. -1.
        -13    1    4    4    0    0 -0.60665207945E+02 -0.33372145030E+02 -0.15833608149E+02  0.71025845056E+02  0.00000000000E+00 0. -1.
         13    1    4    4    0    0 -0.10054709758E+03  0.51989468689E+02 -0.82008976855E+02  0.13977873934E+03  0.00000000000E+00 0.  1.
         21    1    1    2  503  502  0.14032083525E+01 -0.23661386150E+02 -0.47857124790E+01  0.24181257870E+02  0.00000000000E+00 0. -1.
          3    1    1    2  501    0  0.12016431232E+02  0.33999739647E+02 -0.29183254143E+03  0.29405205178E+03  0.00000000000E+00 0. -1.
<scales pt_clust_5="13000.00000" pt_clust_6="13000.00000" pt_clust_7="13000.00000" pt_clust_8="13000.00000" pt_clust_9="23.70296" pt_clust_10="35.93893"></scales>
<clustering>
<clus scale="   23.703">  1  9  2 -1</clus>
<clus scale="   35.939">  2 10  1 -1</clus>
<clus scale="   91.562">  5  6 -1 -1</clus>
<clus scale="   92.355">  7  8 -1 -1</clus>
<clus scale="  181.332">  1  5  2 -1</clus>
<clus scale="   35.939">  2  5  1 -1</clus>
</clustering>
</event>
<event>
10    2  0.3544405E-006  0.1030932E+03  0.7546771E-02  0.1274181E+00
          2   -1    0    0  503    0 -0.00000000000E+00  0.00000000000E+00  0.28298728723E+03  0.28298728723E+03  0.00000000000E+00 0. -1.
         21   -1    0    0  501  502  0.00000000000E+00 -0.00000000000E+00 -0.83036816382E+02  0.83036816382E+02  0.00000000000E+00 0.  1.
         23    2    1    2    0    0  0.60063403471E+02  0.19511738321E+02  0.17733234869E+03  0.20914156731E+03  0.91132392255E+02 0.  0.
         23    2    1    2    0    0 -0.43683281915E+02  0.38336679087E+01 -0.48538350769E+00  0.10165290148E+03  0.91706873532E+02 0.  0.
        -11    1    3    3    0    0  0.51229493224E+02  0.54275238641E+02  0.12759410352E+03  0.14781920632E+03  0.00000000000E+00 0. -1.
         11    1    3    3    0    0  0.88339102471E+01 -0.34763500320E+02  0.49738245170E+02  0.61322360989E+02  0.00000000000E+00 0.  1.
        -11    1    4    4    0    0 -0.37594936190E+02 -0.41449557212E+02 -0.56347798379E+00  0.55962152635E+02  0.00000000000E+00 0.  1.
         11    1    4    4    0    0 -0.60883457254E+01  0.45283225120E+02  0.78094476100E-01  0.45690748842E+02  0.00000000000E+00 0. -1.
         21    1    1    2  503  502 -0.20937355640E+02 -0.46552932001E+00  0.24038430710E+02  0.31881589197E+02  0.00000000000E+00 0. -1.
          2    1    1    2  501    0  0.45572340836E+01 -0.22879876910E+02 -0.93492503656E+00  0.23348045629E+02  0.00000000000E+00 0. -1.
<scales pt_clust_5="13000.00000" pt_clust_6="13000.00000" pt_clust_7="13000.00000" pt_clust_8="13000.00000" pt_clust_9="20.94253" pt_clust_10="23.18738"></scales>
<clustering>
<clus scale="   20.943">  1  9  2 -1</clus>
<clus scale="   23.187">  2 10  1 -1</clus>
<clus scale="   91.132">  5  6 -1 -1</clus>
<clus scale="   91.707">  7  8 -1 -1</clus>
<clus scale="  102.582">  1  5  2 -1</clus>
<clus scale="   23.187">  2  5  1 -1</clus>
</clustering>
</event>
<event>
10    2  0.3544405E-006  0.1679312E+03  0.7546771E-02  0.1180703E+00
         21   -1    0    0  503  502  0.00000000000E+00  0.00000000000E+00  0.41500039493E+03  0.41500039493E+03  0.00000000000E+00 0. -1.
         -3   -1    0    0    0  501 -0.00000000000E+00 -0.00000000000E+00 -0.11453176647E+03  0.11453176647E+03  0.00000000000E+00 0.  1.
         23    2    1    2    0    0  0.78437080754E+02 -0.96187053859E+02  0.70760694810E+02  0.17241551141E+03  0.96517913773E+02 0.  0.
         23    2    1    2    0    0 -0.12152606610E+03  0.95324730397E+02  0.80872110815E+02  0.19713442260E+03  0.92012462728E+02 0.  0.
        -11    1    4    4    0    0 -0.37254387860E+02  0.18138682963E+02  0.71288218775E+02  0.82455511463E+02  0.00000000000E+00 0.  1.
         11    1    4    4    0    0 -0.84271678242E+02  0.77186047435E+02  0.95838920401E+01  0.11467891113E+03  0.00000000000E+00 0. -1.
        -11    1    3    3    0    0  0.32931367529E+01 -0.60025426670E+02  0.65428959243E+02  0.88852942012E+02  0.00000000000E+00 0. -1.
         11    1    3    3    0    0  0.75143944001E+02 -0.36161627189E+02  0.53317355670E+01  0.83562569403E+02  0.00000000000E+00 0.  1.
         21    1    1    2  503  501  0.21456522153E+02  0.10410110984E+02  0.27663269259E+02  0.36524090949E+02  0.00000000000E+00 0. -1.
         -3    1    1    2    0  502  0.21632463195E+02 -0.95477875223E+01  0.12117255358E+03  0.12345813643E+03  0.00000000000E+00 0.  1.
<scales pt_clust_5="13000.00000" pt_clust_6="13000.00000" pt_clust_7="13000.00000" pt_clust_8="13000.00000" pt_clust_9="25.60215" pt_clust_10="23.64580"></scales>
<clustering>
<clus scale="   23.646">  1 10  2 -1</clus>
<clus scale="   25.602">  1  9  2 -1</clus>
<clus scale="   92.012">  5  6 -1 -1</clus>
<clus scale="   96.518">  7  8 -1 -1</clus>
<clus scale="  165.383">  1  5  2 -1</clus>
<clus scale="   23.646">  1  5  2 -1</clus>
</clustering>
</event>
<event>
10    2  0.3544405E-006  0.1440821E+03  0.7546771E-02  0.1215494E+00
          3   -1    0    0  503    0 -0.00000000000E+00  0.00000000000E+00  0.77865531596E+03  0.77865531596E+03  0.00000000000E+00 0. -1.
         21   -1    0    0  501  502  0.00000000000E+00 -0.00000000000E+00 -0.11250639318E+03  0.11250639318E+03  0.00000000000E+00 0. -1.
         23    2    1    2    0    0  0.42737821465E+02 -0.59008514764E+02  0.38808005166E+03  0.41337358484E+03  0.12232361973E+03 0.  0.
         23    2    1    2    0    0 -0.36085824796E+02  0.58992648324E+02  0.11043332643E+03  0.16195824339E+03  0.96190611340E+02 0.  0.
        -11    1    4    4    0    0 -0.52658467621E+02  0.15185831307E+02  0.99909522158E+02  0.11395365857E+03  0.00000000000E+00 0. -1.
         11    1    4    4    0    0  0.16572642825E+02  0.43806817017E+02  0.10523804270E+02  0.48004584820E+02  0.00000000000E+00 0.  1.
        -13    1    3    3    0    0 -0.17154332459E+02 -0.51900371628E+02  0.30963548266E+03  0.31442336398E+03  0.00000000000E+00 0. -1.
         13    1    3    3    0    0  0.59892153924E+02 -0.71081431361E+01  0.78444569006E+02  0.98950220854E+02  0.00000000000E+00 0.  1.
         21    1    1    2  503  502 -0.23260912966E+02 -0.27428312080E+02  0.23683851798E+03  0.23955347206E+03  0.00000000000E+00 0. -1.
          3    1    1    2  501    0  0.16608916297E+02  0.27444178519E+02 -0.69202973297E+02  0.76276408858E+02  0.00000000000E+00 0. -1.
<scales pt_clust_5="13000.00000" pt_clust_6="13000.00000" pt_clust_7="13000.00000" pt_clust_8="13000.00000" pt_clust_9="34.88286" pt_clust_10="32.07864"></scales>
<clustering>
<clus scale="   32.079">  2 10  1 -1</clus>
<clus scale="   34.883">  1  9  2 -1</clus>
<clus scale="   96.191">  5  6 -1 -1</clus>
<clus scale="  122.324">  7  8 -1 -1</clus>
<clus scale="  122.675">  2  5  1 -1</clus>
<clus scale="   32.079">  2  5  1 -1</clus>
</clustering>
</event>
<event>
10    2  0.3544405E-006  0.9619952E+02  0.7546771E-02  0.1291187E+00
         21   -1    0    0  501  502  0.00000000000E+00  0.00000000000E+00  0.43895150771E+03  0.43895150771E+03  0.00000000000E+00 0.  1.
          3   -1    0    0  503    0 -0.00000000000E+00 -0.00000000000E+00 -0.12632381592E+03  0.12632381592E+03  0.00000000000E+00 0. -1.
         23    2    1    2    0    0 -0.30184388424E+02 -0.57369127492E+02  0.28986340039E+02  0.11571988724E+03  0.91370511108E+02 0.  0.
         23    2    1    2    0    0 -0.55212301011E+02 -0.26648207931E+02  0.74032164184E+02  0.13037720727E+03  0.88084786846E+02 0.  0.
        -11    1    4    4    0    0 -0.26845655347E+02 -0.55464016707E+02  0.24194123028E+02  0.66198957313E+02  0.00000000000E+00 0.  1.
         11    1    4    4    0    0 -0.28366645664E+02  0.28815808776E+02  0.49838041156E+02  0.64178249960E+02  0.00000000000E+00 0. -1.
        -13    1    3    3    0    0 -0.73068163811E+01 -0.78730802140E+02  0.11601470747E+02  0.79915723701E+02  0.00000000000E+00 0.  1.
         13    1    3    3    0    0 -0.22877572043E+02  0.21361674648E+02  0.17384869293E+02  0.35804163538E+02  0.00000000000E+00 0. -1.
         21    1    1    2  503  502  0.15576513859E+02  0.18059380432E+02 -0.42864204839E+02  0.49052105582E+02  0.00000000000E+00 0.  1.
          3    1    1    2  501    0  0.69820175575E+02  0.65957954991E+02  0.25247339241E+03  0.27012612354E+03  0.00000000000E+00 0. -1.
<scales pt_clust_5="13000.00000" pt_clust_6="13000.00000" pt_clust_7="13000.00000" pt_clust_8="13000.00000" pt_clust_9="23.84888" pt_clust_10="98.65445"></scales>
<clustering>
<clus scale="   23.849">  2  9  1 -1</clus>
<clus scale="   88.085">  5  6 -1 -1</clus>
<clus scale="   91.371">  7  8 -1 -1</clus>
<clus scale="   98.654">  1 10  2 -1</clus>
<clus scale="   98.654">  1  5  2 -1</clus>
<clus scale="   96.200">  1  5  2 -1</clus>
</clustering>
</event>
<event>
10    2  0.8380483E-006  0.9611510E+02  0.7546771E-02  0.1290286E+00
         -1   -1    0    0    0  501 -0.00000000000E+00  0.00000000000E+00  0.34798366335E+03  0.34798366335E+03  0.00000000000E+00 0.  1.
         21   -1    0    0  503  502  0.00000000000E+00 -0.00000000000E+00 -0.23639736932E+03  0.23639736932E+03  0.00000000000E+00 0.  1.
         23    2    1    2    0    0 -0.29834048452E+01  0.74810479769E+00  0.27855760710E+03  0.29349539966E+03  0.92389116142E+02 0.  0.
         23    2    1    2    0    0  0.84790602965E+01  0.17932549400E+01 -0.49216690171E+02  0.10244336941E+03  0.89427351059E+02 0.  0.
        -13    1    3    3    0    0 -0.40564167550E+02  0.23972546569E+02  0.16665887190E+03  0.17319155366E+03  0.00000000000E+00 0.  1.
         13    1    3    3    0    0  0.37580762705E+02 -0.23224441772E+02  0.11189873521E+03  0.12030384600E+03  0.00000000000E+00 0. -1.
        -13    1    4    4    0    0  0.11389029076E+02 -0.35997408529E+02 -0.52200330007E+02  0.64423581528E+02  0.00000000000E+00 0. -1.
         13    1    4    4    0    0 -0.29099687793E+01  0.37790663469E+02  0.29836398362E+01  0.38019787879E+02  0.00000000000E+00 0.  1.
         21    1    1    2  503  501 -0.23805052401E+02 -0.21192430281E+02  0.26739821406E+02  0.41603096878E+02  0.00000000000E+00 0.  1.
         -1    1    1    2    0  502  0.18309396950E+02  0.18651070543E+02 -0.14449444430E+03  0.14683916672E+03  0.00000000000E+00 0.  1.
<scales pt_clust_5="13000.00000" pt_clust_6="13000.00000" pt_clust_7="13000.00000" pt_clust_8="13000.00000" pt_clust_9="29.73602" pt_clust_10="26.13611"></scales>
<clustering>
<clus scale="   26.136">  2 10  1 -1</clus>
<clus scale="   29.736">  1  9  2 -1</clus>
<clus scale="   89.427">  7  8 -1 -1</clus>
<clus scale="   92.389">  5  6 -1 -1</clus>
<clus scale="   93.272">  2  7  1 -1</clus>
<clus scale="   26.136">  2  5  1 -1</clus>
</clustering>
</event>
<event>
10    2  0.3544405E-006  0.1233078E+03  0.7546771E-02  0.1237852E+00
         -1   -1    0    0    0  501 -0.00000000000E+00  0.00000000000E+00  0.38029239216E+03  0.38029239216E+03  0.00000000000E+00 0.  1.
         21   -1    0    0  503  502  0.00000000000E+00 -0.00000000000E+00 -0.74639942009E+02  0.74639942009E+02  0.00000000000E+00 0. -1.
         23    2    1    2    0    0 -0.33170670397E+02 -0.56960510146E+02  0.16709834098E+03  0.20072918859E+03  0.89585481554E+02 0.  0.
         23    2    1    2    0    0  0.12550176649E+02  0.10474108727E+03  0.74741542384E+02  0.15751339181E+03  0.89977598027E+02 0.  0.
        -11    1    3    3    0    0 -0.15176629170E+02  0.22334831438E+02  0.23924089444E+02  0.36076818375E+02  0.00000000000E+00 0. -1.
         11    1    3    3    0    0 -0.17994041228E+02 -0.79295341584E+02  0.14317425153E+03  0.16465237022E+03  0.00000000000E+00 0.  1.
        -11    1    4    4    0    0  0.31795581423E+02  0.35050245321E+02  0.70732102852E+02  0.85102932199E+02  0.00000000000E+00 0. -1.
         11    1    4    4    0    0 -0.19245404774E+02  0.69690841947E+02  0.40094395325E+01  0.72410459614E+02  0.00000000000E+00 0.  1.
         21    1    1    2  503  501  0.98966891068E+01 -0.27932310565E+02  0.67603720081E+02  0.73813422882E+02  0.00000000000E+00 0.  1.
         -1    1    1    2    0  502  0.10723804641E+02 -0.19848266556E+02 -0.37911532914E+01  0.22876330880E+02  0.00000000000E+00 0.  1.
<scales pt_clust_5="13000.00000" pt_clust_6="13000.00000" pt_clust_7="13000.00000" pt_clust_8="13000.00000" pt_clust_9="30.76312" pt_clust_10="22.56000"></scales>
<clustering>
<clus scale="   22.560">  2 10  1 -1</clus>
<clus scale="   30.763">  1  9  2 -1</clus>
<clus scale="   89.585">  5  6 -1 -1</clus>
<clus scale="   89.978">  7  8 -1 -1</clus>
<clus scale="  123.022">  1  5  2 -1</clus>
<clus scale="   22.560">  2  5  1 -1</clus>
</clustering>
</event>
<event>
10    2  0.3544405E-006  0.1154608E+03  0.7546771E-02  0.1255379E+00
         -1   -1    0    0    0  501 -0.00000000000E+00  0.00000000000E+00  0.63146206121E+02  0.63146206121E+02  0.00000000000E+00 0.  1.
         21   -1    0    0  503  502  0.00000000000E+00 -0.00000000000E+00 -0.28966650381E+03  0.28966650381E+03  0.00000000000E+00 0.  1.
         23    2    1    2    0    0  0.43848708868E+02  0.43824663056E+02 -0.80564810998E+02  0.13668046929E+03  0.91364936119E+02 0.  0.
         23    2    1    2    0    0 -0.65257541538E+02 -0.46474620212E+02 -0.86472631392E+02  0.14147618758E+03  0.78227607783E+02 0.  0.
        -13    1    4    4    0    0 -0.76213982114E+02 -0.18392761634E+02 -0.45627292279E+02  0.90712262406E+02  0.00000000000E+00 0.  1.
         13    1    4    4    0    0  0.10956440576E+02 -0.28081858577E+02 -0.40845339113E+02  0.50763925169E+02  0.00000000000E+00 0. -1.
        -13    1    3    3    0    0  0.56433500605E+02  0.60157784428E+02 -0.41107092199E+02  0.92160143484E+02  0.00000000000E+00 0. -1.
         13    1    3    3    0    0 -0.12584791738E+02 -0.16333121372E+02 -0.39457718799E+02  0.44520325804E+02  0.00000000000E+00 0.  1.
         21    1    1    2  503  501  0.13803267127E+02 -0.17368574541E+02 -0.20643807649E+02  0.30304527042E+02  0.00000000000E+00 0. -1.
         -1    1    1    2    0  502  0.76055655432E+01  0.20018531697E+02 -0.38839047654E+02  0.44351526030E+02  0.00000000000E+00 0.  1.
<scales pt_clust_5="13000.00000" pt_clust_6="13000.00000" pt_clust_7="13000.00000" pt_clust_8="13000.00000" pt_clust_9="21.14677" pt_clust_10="21.41463"></scales>
<clustering>
<clus scale="   21.415">  2 10  1 -1</clus>
<clus scale="   21.147">  2  9  1 -1</clus>
<clus scale="   78.228">  5  6 -1 -1</clus>
<clus scale="   91.365">  7  8 -1 -1</clus>
<clus scale="  105.372">  2  5  1 -1</clus>
<clus scale="   21.415">  2  5  1 -1</clus>
</clustering>
</event>
<event>
10    2  0.3544405E-006  0.9911222E+02  0.7546771E-02  0.1284410E+00
          1   -1    0    0  503    0 -0.00000000000E+00  0.00000000000E+00  0.56292889342E+02  0.56292889342E+02  0.00000000000E+00 0. -1.
         21   -1    0    0  501  502  0.00000000000E+00 -0.00000000000E+00 -0.53943070582E+03  0.53943070582E+03  0.00000000000E+00 0. -1.
         23    2    1    2    0    0 -0.98163233119E+00 -0.16087085124E+02 -0.68476350055E+02  0.11667895953E+03  0.93087116024E+02 0.  0.
         23    2    1    2    0    0 -0.16530747750E+02  0.24899412953E+02 -0.19058944386E+03  0.21233328426E+03  0.88700851787E+02 0.  0.
        -13    1    3    3    0    0  0.85490055380E+01  0.19389419844E+02 -0.76242584610E+02  0.79132590034E+02  0.00000000000E+00 0.  1.
         13    1    3    3    0    0 -0.95306378691E+01 -0.35476504968E+02  0.77662345546E+01  0.37546369493E+02  0.00000000000E+00 0. -1.
        -13    1    4    4    0    0  0.30210728303E+02 -0.94771151558E+01 -0.40421176516E+02  0.51345645650E+02  0.00000000000E+00 0.  1.
         13    1    4    4    0    0 -0.46741476053E+02  0.34376528109E+02 -0.15016826734E+03  0.16098763861E+03  0.00000000000E+00 0. -1.
         21    1    1    2  503  502  0.12046596396E+02 -0.50558028175E+02 -0.15938719858E+02  0.54362463965E+02  0.00000000000E+00 0. -1.
          1    1    1    2  501    0  0.54657836856E+01  0.41745700346E+02 -0.20813330271E+03  0.21234888741E+03  0.00000000000E+00 0. -1.
<scales pt_clust_5="13000.00000" pt_clust_6="13000.00000" pt_clust_7="13000.00000" pt_clust_8="13000.00000" pt_clust_9="47.79932" pt_clust_10="42.10200"></scales>
<clustering>
<clus scale="   42.102">  2 10  1 -1</clus>
<clus scale="   47.799">  1  9  2 -1</clus>
<clus scale="   88.701">  7  8 -1 -1</clus>
<clus scale="   93.087">  5  6 -1 -1</clus>
<clus scale="   95.005">  2  7  1 -1</clus>
<clus scale="   42.102">  2  5  1 -1</clus>
</clustering>
</event>
<event>
10    2  0.3544405E-006  0.1017376E+03  0.7546771E-02  0.1283426E+00
         21   -1    0    0  501  502  0.00000000000E+00  0.00000000000E+00  0.36091304990E+03  0.36091304990E+03  0.00000000000E+00 0.  1.
          3   -1    0    0  503    0 -0.00000000000E+00 -0.00000000000E+00 -0.11461159935E+03  0.11461159935E+03  0.00000000000E+00 0. -1.
         23    2    1    2    0    0 -0.40889043495E+02  0.23656551397E+02 -0.36049399990E+02  0.97073130471E+02  0.76759931721E+02 0.  0.
         23    2    1    2    0    0  0.85260105606E+02 -0.58503354867E+02  0.15001488083E+03  0.20354633542E+03  0.90745347284E+02 0.  0.
        -13    1    4    4    0    0  0.18718181021E+02 -0.43412591854E+02  0.10776608738E+02  0.48488748469E+02  0.00000000000E+00 0. -1.
         13    1    4    4    0    0  0.66541924585E+02 -0.15090763013E+02  0.13923827209E+03  0.15505758695E+03  0.00000000000E+00 0.  1.
        -13    1    3    3    0    0 -0.44473157445E+02 -0.15174969406E+02 -0.50595726003E+01  0.47262466128E+02  0.00000000000E+00 0. -1.
         13    1    3    3    0    0  0.35841139495E+01  0.38831520803E+02 -0.30989827390E+02  0.49810664343E+02  0.00000000000E+00 0.  1.
         21    1    1    2  503  502  0.26886282389E+02 -0.22357750612E+01  0.10455860281E+02  0.28934337473E+02  0.00000000000E+00 0.  1.
          3    1    1    2  501    0 -0.71257344499E+02  0.37082578531E+02  0.12188010943E+03  0.14597084589E+03  0.00000000000E+00 0. -1.
<scales pt_clust_5="13000.00000" pt_clust_6="13000.00000" pt_clust_7="13000.00000" pt_clust_8="13000.00000" pt_clust_9="26.97908" pt_clust_10="77.49370"></scales>
<clustering>
<clus scale="   26.979">  2  9  1 -1</clus>
<clus scale="   76.760">  7  8 -1 -1</clus>
<clus scale="   77.494">  1 10  2 -1</clus>
<clus scale="   89.487">  2  7  1 -1</clus>
<clus scale="   90.745">  5  6 -1 -1</clus>
<clus scale="   77.494">  1  5  2 -1</clus>
</clustering>
</event>
<event>
10    2  0.3630990E-006  0.1378060E+03  0.7546771E-02  0.1232842E+00
         -1   -1    0    0    0  501 -0.00000000000E+00  0.00000000000E+00  0.40954401673E+03  0.40954401673E+03  0.00000000000E+00 0.  1.
         21   -1    0    0  503  502  0.00000000000E+00 -0.00000000000E+00 -0.77630635126E+03  0.77630635126E+03  0.00000000000E+00 0.  1.
         23    2    1    2    0    0 -0.10063995997E+02  0.97163312020E+01  0.20761032767E+03  0.22837089818E+03  0.94103814339E+02 0.  0.
         23    2    1    2    0    0 -0.60006347679E+02  0.28765924014E+02  0.14521523775E+03  0.18482120041E+03  0.92968654410E+02 0.  0.
        -11    1    3    3    0    0  0.71225446386E+01  0.42018782109E+02  0.17240521022E+03  0.17759466547E+03  0.00000000000E+00 0.  1.
         11    1    3    3    0    0 -0.17186540636E+02 -0.32302450907E+02  0.35205117449E+02  0.50776232710E+02  0.00000000000E+00 0. -1.
        -13    1    4    4    0    0 -0.65712627380E+02 -0.17264891886E+02  0.85512215341E+02  0.10921796950E+03  0.00000000000E+00 0.  1.
         13    1    4    4    0    0  0.57062797004E+01  0.46030815901E+02  0.59703022405E+02  0.75603230915E+02  0.00000000000E+00 0. -1.
         21    1    1    2  503  501 -0.26605530476E+02 -0.44580098439E+01  0.15060273862E+02  0.30895629990E+02  0.00000000000E+00 0.  1.
         -1    1    1    2    0  502  0.96675874152E+02 -0.34024245372E+02 -0.73464817381E+03  0.74176263940E+03  0.00000000000E+00 0.  1.
<scales pt_clust_5="13000.00000" pt_clust_6="13000.00000" pt_clust_7="13000.00000" pt_clust_8="13000.00000" pt_clust_9="26.97644" pt_clust_10="101.72178"></scales>
<clustering>
<clus scale="   26.976">  1  9  2 -1</clus>
<clus scale="   92.969">  7  8 -1 -1</clus>
<clus scale="   94.104">  5  6 -1 -1</clus>
<clus scale="   97.651">  1  5  2 -1</clus>
<clus scale="  101.722">  2 10  1 -1</clus>
<clus scale="  101.722">  2  5  1 -1</clus>
</clustering>
</event>
<event>
10    2  0.3544405E-006  0.1205646E+03  0.7546771E-02  0.1242571E+00
         21   -1    0    0  503  502  0.00000000000E+00  0.00000000000E+00  0.51557524975E+02  0.51557524975E+02  0.00000000000E+00 0. -1.
         -1   -1    0    0    0  501 -0.00000000000E+00 -0.00000000000E+00 -0.77937713565E+03  0.77937713565E+03  0.00000000000E+00 0.  1.
         23    2    1    2    0    0 -0.57388840802E+02 -0.96082094444E+02 -0.40975253138E+03  0.43475994304E+03  0.92702875741E+02 0.  0.
         23    2    1    2    0    0  0.54504027550E+02  0.51381856891E+02 -0.12758025910E+03  0.17526089967E+03  0.93962099830E+02 0.  0.
        -11    1    3    3    0    0 -0.74384578410E+02 -0.35542314201E+02 -0.23085009103E+03  0.24512871340E+03  0.00000000000E+00 0.  1.
         11    1    3    3    0    0  0.16995737607E+02 -0.60539780243E+02 -0.17890244035E+03  0.18963122964E+03  0.00000000000E+00 0. -1.
        -13    1    4    4    0    0  0.71236948028E+02  0.40039390102E+02 -0.13135200535E+03  0.15469713906E+03  0.00000000000E+00 0.  1.
         13    1    4    4    0    0 -0.16732920477E+02  0.11342466788E+02  0.37717462523E+01  0.20563760608E+02  0.00000000000E+00 0. -1.
         21    1    1    2  503  501  0.72925578764E+01  0.72283250878E+02 -0.17380698430E+03  0.18837971639E+03  0.00000000000E+00 0. -1.
         -1    1    1    2    0  502 -0.44077446244E+01 -0.27583013324E+02 -0.16679835895E+02  0.32534101527E+02  0.00000000000E+00 0.  1.
<scales pt_clust_5="13000.00000" pt_clust_6="13000.00000" pt_clust_7="13000.00000" pt_clust_8="13000.00000" pt_clust_9="67.99368" pt_clust_10="27.93297"></scales>
<clustering>
<clus scale="   27.933">  1 10  2 -1</clus>
<clus scale="   67.994">  2  9  1 -1</clus>
<clus scale="   92.703">  5  6 -1 -1</clus>
<clus scale="   93.962">  7  8 -1 -1</clus>
<clus scale="  119.586">  2  5  1 -1</clus>
<clus scale="   27.933">  1  5  2 -1</clus>
</clustering>
</event>
<event>
10    2  0.3544405E-006  0.9875350E+02  0.7546771E-02  0.1284947E+00
          3   -1    0    0  503    0 -0.00000000000E+00  0.00000000000E+00  0.24487002913E+03  0.24487002913E+03  0.00000000000E+00 0. -1.
         21   -1    0    0  501  502  0.00000000000E+00 -0.00000000000E+00 -0.19874596444E+03  0.19874596444E+03  0.00000000000E+00 0. -1.
         23    2    1    2    0    0  0.19290377814E+02 -0.70139554108E+02  0.11291596103E+03  0.16228904308E+03  0.91082619209E+02 0.  0.
         23    2    1    2    0    0 -0.35936780806E+02 -0.64517552522E+01  0.29849181794E+02  0.99030786805E+02  0.87080685120E+02 0.  0.
        -11    1    3    3    0    0  0.11154392157E+02 -0.18693371581E+02 -0.13464657191E+02  0.25596085614E+02  0.00000000000E+00 0.  1.
         11    1    3    3    0    0  0.81359856575E+01 -0.51446182527E+02  0.12638061822E+03  0.13669295746E+03  0.00000000000E+00 0. -1.
        -13    1    4    4    0    0 -0.17601558831E+02 -0.45579955207E+02  0.26762116355E+02  0.55709586803E+02  0.00000000000E+00 0.  1.
         13    1    4    4    0    0 -0.18335221975E+02  0.39128199955E+02  0.30870654389E+01  0.43321200002E+02  0.00000000000E+00 0. -1.
         21    1    1    2  503  502 -0.21651321603E+02  0.26336111506E+02  0.26970838156E+02  0.43471790937E+02  0.00000000000E+00 0. -1.
          3    1    1    2  501    0  0.38297724595E+02  0.50255197854E+02 -0.12361191629E+03  0.13882437275E+03  0.00000000000E+00 0. -1.
<scales pt_clust_5="13000.00000" pt_clust_6="13000.00000" pt_clust_7="13000.00000" pt_clust_8="13000.00000" pt_clust_9="34.09356" pt_clust_10="63.47992"></scales>
<clustering>
<clus scale="   34.094">  1  9  2 -1</clus>
<clus scale="   63.480">  2 10  1 -1</clus>
<clus scale="   87.081">  7  8 -1 -1</clus>
<clus scale="   91.083">  5  6 -1 -1</clus>
<clus scale="   95.075">  2  7  1 -1</clus>
<clus scale="   63.480">  2  5  1 -1</clus>
</clustering>
</event>
<event>
10    2  0.3544405E-006  0.1054865E+03  0.7546771E-02  0.1269895E+00
         21   -1    0    0  501  502  0.00000000000E+00  0.00000000000E+00  0.69528940833E+02  0.69528940833E+02  0.00000000000E+00 0. -1.
          1   -1    0    0  503    0 -0.00000000000E+00 -0.00000000000E+00 -0.42092835594E+03  0.42092835594E+03  0.00000000000E+00 0. -1.
         23    2    1    2    0    0 -0.33359910479E+02  0.84094753988E+01 -0.14441966906E+03  0.17393855988E+03  0.90631004063E+02 0.  0.
         23    2    1    2    0    0  0.76562507148E+02  0.94688720680E+01 -0.17069007207E+03  0.20734047695E+03  0.88901606504E+02 0.  0.
        -11    1    3    3    0    0 -0.58338498730E+02 -0.95582644084E+01 -0.60640689509E+02  0.84687862629E+02  0.00000000000E+00 0. -1.
         11    1    3    3    0    0  0.24978588251E+02  0.17967739807E+02 -0.83778979551E+02  0.89250697249E+02  0.00000000000E+00 0.  1.
        -13    1    4    4    0    0  0.41286708946E+02 -0.53749426904E+01 -0.10910035062E+02  0.43040808653E+02  0.00000000000E+00 0.  1.
         13    1    4    4    0    0  0.35275798203E+02  0.14843814758E+02 -0.15978003701E+03  0.16429966830E+03  0.00000000000E+00 0. -1.
         21    1    1    2  503  502 -0.18738780030E+02 -0.27157085433E+02 -0.63418483756E+02  0.71488133617E+02  0.00000000000E+00 0. -1.
          1    1    1    2  501    0 -0.24463816640E+02  0.92787379658E+01  0.27128809778E+02  0.37690126330E+02  0.00000000000E+00 0. -1.
<scales pt_clust_5="13000.00000" pt_clust_6="13000.00000" pt_clust_7="13000.00000" pt_clust_8="13000.00000" pt_clust_9="33.78782" pt_clust_10="26.16435"></scales>
<clustering>
<clus scale="   26.164">  1 10  2 -1</clus>
<clus scale="   33.788">  2  9  1 -1</clus>
<clus scale="   88.902">  7  8 -1 -1</clus>
<clus scale="   90.631">  5  6 -1 -1</clus>
<clus scale="  104.004">  1  7  2 -1</clus>
<clus scale="   26.164">  1  5  2 -1</clus>
</clustering>
</event>
<event>
10    2  0.3544405E-006  0.1234643E+03  0.7546771E-02  0.1239564E+00
         21   -1    0    0  501  502  0.00000000000E+00  0.00000000000E+00  0.12936051207E+04  0.12936051207E+04  0.00000000000E+00 0.  1.
          1   -1    0    0  503    0 -0.00000000000E+00 -0.00000000000E+00 -0.40987411008E+02  0.40987411008E+02  0.00000000000E+00 0. -1.
         23    2    1    2    0    0  0.24144951996E+02 -0.59174153890E+02  0.12157637741E+03  0.16389977248E+03  0.89430200032E+02 0.  0.
         23    2    1    2    0    0 -0.47116217963E+02  0.44188006541E+02  0.35056090360E+03  0.36918581012E+03  0.96086925977E+02 0.  0.
        -13    1    3    3    0    0  0.12620956518E+02 -0.23037032304E+02  0.12316642437E+03  0.12593633905E+03  0.00000000000E+00 0.  1.
         13    1    3    3    0    0  0.11523995478E+02 -0.36137121586E+02 -0.15900469579E+01  0.37963433428E+02  0.00000000000E+00 0. -1.
        -13    1    4    4    0    0  0.28179862928E+02  0.98639170772E-01  0.73846786692E+02  0.79040890108E+02  0.00000000000E+00 0. -1.
         13    1    4    4    0    0 -0.75296080891E+02  0.44089367370E+02  0.27671411691E+03  0.29014492001E+03  0.00000000000E+00 0.  1.
         21    1    1    2  503  502  0.39693695661E+02 -0.63397852206E+02  0.16921786300E+03  0.18501233013E+03  0.00000000000E+00 0.  1.
          1    1    1    2  501    0 -0.16722429694E+02  0.78383999556E+02  0.61126256570E+03  0.61649461901E+03  0.00000000000E+00 0. -1.
<scales pt_clust_5="13000.00000" pt_clust_6="13000.00000" pt_clust_7="13000.00000" pt_clust_8="13000.00000" pt_clust_9="74.79891" pt_clust_10="74.61886"></scales>
<clustering>
<clus scale="   74.799">  2  9  1 -1</clus>
<clus scale="   74.619">  1 10  2 -1</clus>
<clus scale="   89.430">  5  6 -1 -1</clus>
<clus scale="   96.087">  7  8 -1 -1</clus>
<clus scale="  118.357">  2  5  1 -1</clus>
<clus scale="   74.619">  1  5  2 -1</clus>
</clustering>
</event>
<event>
10    2  0.3544405E-006  0.1010685E+03  0.7546771E-02  0.1278168E+00
         21   -1    0    0  501  502  0.00000000000E+00  0.00000000000E+00  0.19081492775E+03  0.19081492775E+03  0.00000000000E+00 0. -1.
          1   -1    0    0  503    0 -0.00000000000E+00 -0.00000000000E+00 -0.63409440356E+03  0.63409440356E+03  0.00000000000E+00 0. -1.
         23    2    1    2    0    0 -0.15312666984E+02 -0.33918897184E+02 -0.26598252003E+03  0.28372671056E+03  0.91483200450E+02 0.  0.
         23    2    1    2    0    0  0.53077891019E+02  0.17021706291E+01 -0.18694410171E+03  0.21470296273E+03  0.91263931229E+02 0.  0.
        -11    1    4    4    0    0  0.50874239197E+02  0.38182540318E+02 -0.83335333911E+02  0.10483736203E+03  0.00000000000E+00 0.  1.
         11    1    4    4    0    0  0.22036518224E+01 -0.36480369689E+02 -0.10360876780E+03  0.10986560071E+03  0.00000000000E+00 0. -1.
        -13    1    3    3    0    0  0.28670403467E+02 -0.17487438098E+02 -0.19967263415E+03  0.20247706872E+03  0.00000000000E+00 0.  1.
         13    1    3    3    0    0 -0.43983070451E+02 -0.16431459086E+02 -0.66309885879E+02  0.81249641841E+02  0.00000000000E+00 0. -1.
         21    1    1    2  503  502 -0.46700950222E+02 -0.50152768070E+02 -0.13974888001E+03  0.15564712770E+03  0.00000000000E+00 0. -1.
          1    1    1    2  501    0  0.89357261873E+01  0.82369494625E+02  0.14939602594E+03  0.17083253032E+03  0.00000000000E+00 0. -1.
<scales pt_clust_5="13000.00000" pt_clust_6="13000.00000" pt_clust_7="13000.00000" pt_clust_8="13000.00000" pt_clust_9="68.52940" pt_clust_10="81.64806"></scales>
<clustering>
<clus scale="   68.529">  2  9  1 -1</clus>
<clus scale="   81.648">  1 10  2 -1</clus>
<clus scale="   91.264">  5  6 -1 -1</clus>
<clus scale="   91.483">  7  8 -1 -1</clus>
<clus scale="  100.870">  1  5  2 -1</clus>
<clus scale="   81.648">  1  5  2 -1</clus>
</clustering>
</event>
<event>
10    2  0.3544405E-006  0.3233815E+03  0.7546771E-02  0.1094712E+00
          1   -1    0    0  502    0 -0.00000000000E+00  0.00000000000E+00  0.62502001574E+03  0.62502001574E+03  0.00000000000E+00 0. -1.
         21   -1    0    0  503  502  0.00000000000E+00 -0.00000000000E+00 -0.28990744857E+03  0.28990744857E+03  0.00000000000E+00 0.  1.
         23    2    1    2    0    0  0.11324253346E+03  0.11627981454E+03  0.12139766145E+03  0.22249835213E+03  0.91778308117E+02 0.  0.
         23    2    1    2    0    0  0.12022828715E+03 -0.31449751580E+03  0.13284078769E+03  0.37370248435E+03  0.92969583526E+02 0.  0.
        -11    1    4    4    0    0  0.86306874126E+02 -0.11251456955E+03  0.31811682048E+02  0.14532855190E+03  0.00000000000E+00 0. -1.
         11    1    4    4    0    0  0.33921413028E+02 -0.20198294625E+03  0.10102910564E+03  0.22837393245E+03  0.00000000000E+00 0.  1.
        -13    1    3    3    0    0  0.10924838131E+03  0.93639760876E+02  0.13370679506E+03  0.19642077456E+03  0.00000000000E+00 0.  1.
         13    1    3    3    0    0  0.39941521481E+01  0.22640053668E+02 -0.12309133610E+02  0.26077577565E+02  0.00000000000E+00 0. -1.
         21    1    1    2  503  501 -0.14502663138E+03  0.10225023523E+03  0.53982997599E+02  0.18547775727E+03  0.00000000000E+00 0. -1.
          1    1    1    2  501    0 -0.88444189235E+02  0.95967466026E+02  0.26891120436E+02  0.13324887055E+03  0.00000000000E+00 0. -1.
<scales pt_clust_5="13000.00000" pt_clust_6="13000.00000" pt_clust_7="13000.00000" pt_clust_8="13000.00000" pt_clust_9="30.28604" pt_clust_10="311.73607"></scales>
<clustering>
<clus scale="   30.286">  9 10 -1 -1</clus>
<clus scale="   91.778">  7  8 -1 -1</clus>
<clus scale="   92.970">  5  6 -1 -1</clus>
<clus scale="  186.462">  1  7  2 -1</clus>
<clus scale="  311.736">  2  9  1 -1</clus>
<clus scale="  311.736">  2  5  1 -1</clus>
</clustering>
</event>
<event>
10    2  0.3544405E-006  0.9800598E+02  0.7546771E-02  0.1286414E+00
         -3   -1    0    0    0  501 -0.00000000000E+00  0.00000000000E+00  0.13193249321E+03  0.13193249321E+03  0.00000000000E+00 0.  1.
         21   -1    0    0  503  502  0.00000000000E+00 -0.00000000000E+00 -0.55929105742E+03  0.55929105742E+03  0.00000000000E+00 0.  1.
         23    2    1    2    0    0  0.18194789128E+02  0.52986891787E+02 -0.35385569340E+02  0.11415052890E+03  0.92949145657E+02 0.  0.
         23    2    1    2    0    0 -0.86182397988E+01  0.33068440177E+02 -0.50484977749E+02  0.11406005649E+03  0.96401077359E+02 0.  0.
        -11    1    3    3    0    0  0.36220492676E+02  0.79232401661E+00  0.15176193786E+02  0.39279367674E+02  0.00000000000E+00 0. -1.
         11    1    3    3    0    0 -0.18025703547E+02  0.52194567770E+02 -0.50561763127E+02  0.74871161228E+02  0.00000000000E+00 0.  1.
        -11    1    4    4    0    0  0.37351793423E+02  0.35034927457E+02 -0.87771038948E+01  0.51958061613E+02  0.00000000000E+00 0.  1.
         11    1    4    4    0    0 -0.45970033222E+02 -0.19664872801E+01 -0.41707873854E+02  0.62101994880E+02  0.00000000000E+00 0. -1.
         21    1    1    2  503  501  0.14381908007E+02 -0.35899194083E+02  0.52453839386E+02  0.65168985569E+02  0.00000000000E+00 0.  1.
         -3    1    1    2    0  502 -0.23958457336E+02 -0.50156137880E+02 -0.39394185650E+03  0.39784397966E+03  0.00000000000E+00 0.  1.
<scales pt_clust_5="13000.00000" pt_clust_6="13000.00000" pt_clust_7="13000.00000" pt_clust_8="13000.00000" pt_clust_9="38.67288" pt_clust_10="56.28863"></scales>
<clustering>
<clus scale="   38.673">  1  9  2 -1</clus>
<clus scale="   56.289">  2 10  1 -1</clus>
<clus scale="   92.949">  5  6 -1 -1</clus>
<clus scale="   94.613">  1  5  2 -1</clus>
<clus scale="   96.401">  7  8 -1 -1</clus>
<clus scale="   56.289">  2  5  1 -1</clus>
</clustering>
</event>
<event>
10    2  0.3544405E-006  0.9852022E+02  0.7546771E-02  0.1285089E+00
         21   -1    0    0  503  502  0.00000000000E+00  0.00000000000E+00  0.73630451683E+02  0.73630451683E+02  0.00000000000E+00 0. -1.
         -2   -1    0    0    0  501 -0.00000000000E+00 -0.00000000000E+00 -0.40354720099E+03  0.40354720099E+03  0.00000000000E+00 0.  1.
         23    2    1    2    0    0 -0.47221100355E+02 -0.22894688963E+02 -0.23176816235E+03  0.25522461340E+03  0.93108125873E+02 0.  0.
         23    2    1    2    0    0  0.42152585605E+00  0.38709691796E+02 -0.37029418658E+02  0.10465098301E+03  0.89900125006E+02 0.  0.
        -11    1    3    3    0    0 -0.58622403853E+02  0.20023273328E+02 -0.14726867045E+03  0.15976726513E+03  0.00000000000E+00 0. -1.
         11    1    3    3    0    0  0.11401303498E+02 -0.42917962290E+02 -0.84499491894E+02  0.95457348271E+02  0.00000000000E+00 0.  1.
        -11    1    4    4    0    0  0.37312246701E+02  0.85819835657E+01 -0.41917603966E+02  0.56770940789E+02  0.00000000000E+00 0.  1.
         11    1    4    4    0    0 -0.36890720845E+02  0.30127708231E+02  0.48881853082E+01  0.47880042223E+02  0.00000000000E+00 0. -1.
         21    1    1    2  503  501  0.21454034676E+02  0.12370681384E+02 -0.73393212168E+02  0.77458846843E+02  0.00000000000E+00 0.  1.
         -2    1    1    2    0  502  0.25345539823E+02 -0.28185684218E+02  0.12274043871E+02  0.39843209418E+02  0.00000000000E+00 0.  1.
<scales pt_clust_5="13000.00000" pt_clust_6="13000.00000" pt_clust_7="13000.00000" pt_clust_8="13000.00000" pt_clust_9="24.76508" pt_clust_10="38.13533"></scales>
<clustering>
<clus scale="   24.765">  2  9  1 -1</clus>
<clus scale="   38.135">  1 10  2 -1</clus>
<clus scale="   89.900">  7  8 -1 -1</clus>
<clus scale="   93.108">  5  6 -1 -1</clus>
<clus scale="   95.494">  1  7  2 -1</clus>
<clus scale="   38.135">  1  5  2 -1</clus>
</clustering>
</event>
<event>
10    2  0.3544405E-006  0.2725217E+03  0.7546771E-02  0.1099887E+00
          2   -1    0    0  503    0 -0.00000000000E+00  0.00000000000E+00  0.12396388144E+04  0.12396388144E+04  0.00000000000E+00 0. -1.
         21   -1    0    0  501  502  0.00000000000E+00 -0.00000000000E+00 -0.13043685101E+03  0.13043685101E+03  0.00000000000E+00 0. -1.
         23    2    1    2    0    0 -0.22559850400E+03 -0.22298337855E+03  0.29666838277E+03  0.44360867408E+03  0.90334125711E+02 0.  0.
         23    2    1    2    0    0  0.12257346093E+03  0.16798166432E+03  0.22693428911E+03  0.32103721569E+03  0.91233926880E+02 0.  0.
        -11    1    4    4    0    0  0.61425707191E+02  0.44278506950E+02  0.32000930608E+02  0.82205615632E+02  0.00000000000E+00 0.  1.
         11    1    4    4    0    0  0.61147753739E+02  0.12370315737E+03  0.19493335851E+03  0.23883160006E+03  0.00000000000E+00 0. -1.
        -13    1    3    3    0    0 -0.28120586462E+02 -0.77710091334E+02  0.96988867271E+02  0.12742239227E+03  0.00000000000E+00 0.  1.
         13    1    3    3    0    0 -0.19747791754E+03 -0.14527328721E+03  0.19967951550E+03  0.31618628181E+03  0.00000000000E+00 0. -1.
         21    1    1    2  503  502  0.65488328945E+02  0.44184183597E+02  0.53838428891E+03  0.54414943338E+03  0.00000000000E+00 0. -1.
          2    1    1    2  501    0  0.37536714124E+02  0.10817530635E+02  0.47215002583E+02  0.61280342241E+02  0.00000000000E+00 0. -1.
<scales pt_clust_5="13000.00000" pt_clust_6="13000.00000" pt_clust_7="13000.00000" pt_clust_8="13000.00000" pt_clust_9="79.86844" pt_clust_10="39.06436"></scales>
<clustering>
<clus scale="   39.064">  2 10  1 -1</clus>
<clus scale="   79.868">  1  9  2 -1</clus>
<clus scale="   90.334">  7  8 -1 -1</clus>
<clus scale="   91.234">  5  6 -1 -1</clus>
<clus scale="  272.222">  1  7  2 -1</clus>
<clus scale="   39.064">  2  5  1 -1</clus>
</clustering>
</event>
<event>
10    2  0.3544405E-006  0.1138675E+03  0.7546771E-02  0.1261488E+00
          1   -1    0    0  503    0 -0.00000000000E+00  0.00000000000E+00  0.90720063644E+03  0.90720063644E+03  0.00000000000E+00 0. -1.
         21   -1    0    0  501  502  0.00000000000E+00 -0.00000000000E+00 -0.55694598863E+02  0.55694598863E+02  0.00000000000E+00 0.  1.
         23    2    1    2    0    0 -0.33627567354E+02 -0.10429841686E+02  0.36455652009E+03  0.37697188565E+03  0.89256659919E+02 0.  0.
         23    2    1    2    0    0  0.63464560045E+01 -0.91394654738E+01  0.84498022913E+02  0.13678520506E+03  0.10698817277E+03 0.  0.
        -11    1    3    3    0    0  0.13379949091E+02  0.29190286587E+02  0.16743026656E+03  0.17048164132E+03  0.00000000000E+00 0. -1.
         11    1    3    3    0    0 -0.47007516445E+02 -0.39620128273E+02  0.19712625354E+03  0.20649024432E+03  0.00000000000E+00 0.  1.
        -13    1    4    4    0    0 -0.45345612609E+01 -0.57324900957E+02  0.37855290832E+02  0.68845693834E+02  0.00000000000E+00 0.  1.
         13    1    4    4    0    0  0.10881017265E+02  0.48185435483E+02  0.46642732081E+02  0.67939511224E+02  0.00000000000E+00 0. -1.
         21    1    1    2  503  502  0.14726697787E+01 -0.51895386247E+02  0.35667186631E+03  0.36043046498E+03  0.00000000000E+00 0.  1.
          1    1    1    2  501    0  0.25808441571E+02  0.71464693406E+02  0.45779628265E+02  0.88707679623E+02  0.00000000000E+00 0. -1.
<scales pt_clust_5="13000.00000" pt_clust_6="13000.00000" pt_clust_7="13000.00000" pt_clust_8="13000.00000" pt_clust_9="51.91628" pt_clust_10="70.09988"></scales>
<clustering>
<clus scale="   51.916">  1  9  2 -1</clus>
<clus scale="   70.100">  2 10  1 -1</clus>
<clus scale="   89.257">  5  6 -1 -1</clus>
<clus scale="   97.397">  1  5  2 -1</clus>
<clus scale="  106.988">  7  8 -1 -1</clus>
<clus scale="   70.100">  2  5  1 -1</clus>
</clustering>
</event>
<event>
10    2  0.3544405E-006  0.1464739E+03  0.7546771E-02  0.1210651E+00
          1   -1    0    0  503    0 -0.00000000000E+00  0.00000000000E+00  0.87330930315E+03  0.87330930315E+03  0.00000000000E+00 0. -1.
         21   -1    0    0  501  502  0.00000000000E+00 -0.00000000000E+00 -0.60690882553E+02  0.60690882553E+02  0.00000000000E+00 0. -1.
         23    2    1    2    0    0  0.26215157374E+02 -0.76017872319E+02  0.49906278525E+03  0.51333056962E+03  0.89323337946E+02 0.  0.
         23    2    1    2    0    0 -0.85267858534E+02  0.64867889387E+02  0.16185530134E+03  0.22441250536E+03  0.11262940655E+03 0.  0.
        -11    1    3    3    0    0  0.50888781104E+02 -0.13189251033E+02  0.22973851455E+03  0.23567649321E+03  0.00000000000E+00 0.  1.
         11    1    3    3    0    0 -0.24673623730E+02 -0.62828621286E+02  0.26932427070E+03  0.27765407641E+03  0.00000000000E+00 0. -1.
        -13    1    4    4    0    0 -0.56723680887E+02  0.94913155065E+02  0.95117529567E+02  0.14585413059E+03  0.00000000000E+00 0.  1.
         13    1    4    4    0    0 -0.28544177647E+02 -0.30045265678E+02  0.66737771770E+02  0.78558374780E+02  0.00000000000E+00 0. -1.
         21    1    1    2  503  502  0.31104697192E+02 -0.48557190882E+01  0.15994344579E+03  0.16301222667E+03  0.00000000000E+00 0.  1.
          1    1    1    2  501    0  0.27948003968E+02  0.16005702020E+02 -0.82431117765E+01  0.33244884038E+02  0.00000000000E+00 0. -1.
<scales pt_clust_5="13000.00000" pt_clust_6="13000.00000" pt_clust_7="13000.00000" pt_clust_8="13000.00000" pt_clust_9="31.48143" pt_clust_10="32.64020"></scales>
<clustering>
<clus scale="   31.481">  1  9  2 -1</clus>
<clus scale="   32.640">  2 10  1 -1</clus>
<clus scale="   89.323">  5  6 -1 -1</clus>
<clus scale="  112.629">  7  8 -1 -1</clus>
<clus scale="  129.414">  1  5  2 -1</clus>
<clus scale="   32.640">  2  5  1 -1</clus>
</clustering>
</event>
<event>
10    2  0.3544405E-006  0.1032594E+03  0.7546771E-02  0.1274768E+00
         21   -1    0    0  501  502  0.00000000000E+00  0.00000000000E+00  0.24914053977E+03  0.24914053977E+03  0.00000000000E+00 0. -1.
          1   -1    0    0  503    0 -0.00000000000E+00 -0.00000000000E+00 -0.45327937206E+03  0.45327937206E+03  0.00000000000E+00 0. -1.
         23    2    1    2    0    0  0.34099363974E+02 -0.96420923157E+01 -0.19800194521E+03  0.22075257500E+03  0.90946096632E+02 0.  0.
         23    2    1    2    0    0 -0.22728529574E+02  0.26757192766E+02 -0.34924984613E+02  0.10124489659E+03  0.88307650371E+02 0.  0.
        -11    1    4    4    0    0 -0.52956531500E+02  0.83418766799E+01 -0.31876078248E+01  0.53704208203E+02  0.00000000000E+00 0.  1.
         11    1    4    4    0    0  0.30228001926E+02  0.18415316086E+02 -0.31737376789E+02  0.47540688388E+02  0.00000000000E+00 0. -1.
        -11    1    3    3    0    0  0.36400050779E+02 -0.45985912795E+02 -0.96601491150E+02  0.11301113204E+03  0.00000000000E+00 0. -1.
         11    1    3    3    0    0 -0.23006868049E+01  0.36343820479E+02 -0.10140045406E+03  0.10774144296E+03  0.00000000000E+00 0.  1.
         21    1    1    2  503  502  0.15423996621E+02 -0.43218780122E+02 -0.17105758417E+03  0.17710578683E+03  0.00000000000E+00 0.  1.
          1    1    1    2  501    0 -0.26794831021E+02  0.26103679672E+02  0.19984568171E+03  0.20331665342E+03  0.00000000000E+00 0. -1.
<scales pt_clust_5="13000.00000" pt_clust_6="13000.00000" pt_clust_7="13000.00000" pt_clust_8="13000.00000" pt_clust_9="43.76519" pt_clust_10="37.40809"></scales>
<clustering>
<clus scale="   37.408">  1 10  2 -1</clus>
<clus scale="   43.765">  2  9  1 -1</clus>
<clus scale="   88.308">  5  6 -1 -1</clus>
<clus scale="   90.946">  7  8 -1 -1</clus>
<clus scale="  100.943">  1  5  2 -1</clus>
<clus scale="   37.408">  1  5  2 -1</clus>
</clustering>
</event>
<event>
10    2  0.3544405E-006  0.1553894E+03  0.7546771E-02  0.1194243E+00
          3   -1    0    0  503    0 -0.00000000000E+00  0.00000000000E+00  0.27678840754E+03  0.27678840754E+03  0.00000000000E+00 0. -1.
         21   -1    0    0  501  502  0.00000000000E+00 -0.00000000000E+00 -0.18330303894E+03  0.18330303894E+03  0.00000000000E+00 0. -1.
         23    2    1    2    0    0  0.46406901040E+02 -0.78313662002E+02  0.61881593829E+02  0.14393699847E+03  0.92746416392E+02 0.  0.
         23    2    1    2    0    0 -0.46478698260E+02  0.16205315051E+03  0.74000221766E+02  0.20676608722E+03  0.94099357182E+02 0.  0.
        -11    1    3    3    0    0  0.27099040158E+02  0.51261848131E+01 -0.12706491358E+02  0.30365945907E+02  0.00000000000E+00 0.  1.
         11    1    3    3    0    0  0.19307860883E+02 -0.83439846815E+02  0.74588085187E+02  0.11357105256E+03  0.00000000000E+00 0. -1.
        -13    1    4    4    0    0 -0.74189240031E+02  0.13512965547E+03  0.54660296796E+02  0.16355982138E+03  0.00000000000E+00 0. -1.
         13    1    4    4    0    0  0.27710541771E+02  0.26923495046E+02  0.19339924970E+02  0.43206265849E+02  0.00000000000E+00 0.  1.
         21    1    1    2  503  502  0.11722743048E+02 -0.18390239559E+02  0.10787317239E+02  0.24330841104E+02  0.00000000000E+00 0.  1.
          3    1    1    2  501    0 -0.11650945828E+02 -0.65349248951E+02 -0.53183764236E+02  0.85057519688E+02  0.00000000000E+00 0. -1.
<scales pt_clust_5="13000.00000" pt_clust_6="13000.00000" pt_clust_7="13000.00000" pt_clust_8="13000.00000" pt_clust_9="21.80880" pt_clust_10="67.37240"></scales>
<clustering>
<clus scale="   21.809">  1  9  2 -1</clus>
<clus scale="   67.372">  2 10  1 -1</clus>
<clus scale="   92.746">  5  6 -1 -1</clus>
<clus scale="   94.099">  7  8 -1 -1</clus>
<clus scale="  154.574">  1  5  2 -1</clus>
<clus scale="   67.372">  2  5  1 -1</clus>
</clustering>
</event>
<event>
10    2  0.3544405E-006  0.1129629E+03  0.7546771E-02  0.1262079E+00
         21   -1    0    0  501  502  0.00000000000E+00  0.00000000000E+00  0.14062438130E+03  0.14062438130E+03  0.00000000000E+00 0. -1.
          1   -1    0    0  503    0 -0.00000000000E+00 -0.00000000000E+00 -0.55540530585E+03  0.55540530585E+03  0.00000000000E+00 0. -1.
         23    2    1    2    0    0 -0.45120590939E+01 -0.10624094222E+02 -0.19302525078E+03  0.21376406856E+03  0.91121344982E+02 0.  0.
         23    2    1    2    0    0  0.11077626271E+02  0.72579346384E+02 -0.28442547731E+03  0.31245608505E+03  0.10649167864E+03 0.  0.
        -11    1    3    3    0    0  0.37600969427E+02  0.56340652804E+01 -0.44502304486E+02  0.58532304739E+02  0.00000000000E+00 0. -1.
         11    1    3    3    0    0 -0.42113028521E+02 -0.16258159502E+02 -0.14852294630E+03  0.15523176382E+03  0.00000000000E+00 0.  1.
        -13    1    4    4    0    0 -0.34015920422E+02  0.66967127994E+02 -0.11749887444E+03  0.13945488363E+03  0.00000000000E+00 0.  1.
         13    1    4    4    0    0  0.45093546693E+02  0.56122183891E+01 -0.16692660287E+03  0.17300120143E+03  0.00000000000E+00 0. -1.
         21    1    1    2  503  502 -0.27921670824E+02 -0.50377636308E+02 -0.36180011450E+02  0.68018520787E+02  0.00000000000E+00 0.  1.
          1    1    1    2  501    0  0.21356103647E+02 -0.11577615853E+02  0.98849814995E+02  0.10179101275E+03  0.00000000000E+00 0. -1.
<scales pt_clust_5="13000.00000" pt_clust_6="13000.00000" pt_clust_7="13000.00000" pt_clust_8="13000.00000" pt_clust_9="58.30339" pt_clust_10="24.29248"></scales>
<clustering>
<clus scale="   24.292">  1 10  2 -1</clus>
<clus scale="   58.303">  1  9  2 -1</clus>
<clus scale="   91.121">  5  6 -1 -1</clus>
<clus scale="   98.606">  2  5  1 -1</clus>
<clus scale="  106.492">  7  8 -1 -1</clus>
<clus scale="   24.292">  1  5  2 -1</clus>
</clustering>
</event>
<event>
10    2  0.3544405E-006  0.1290894E+03  0.7546771E-02  0.1250218E+00
          1   -1    0    0  503    0 -0.00000000000E+00  0.00000000000E+00  0.17358991709E+03  0.17358991709E+03  0.00000000000E+00 0. -1.
         21   -1    0    0  501  502  0.00000000000E+00 -0.00000000000E+00 -0.53915295460E+03  0.53915295460E+03  0.00000000000E+00 0. -1.
         23    2    1    2    0    0 -0.15696492310E+02 -0.41045991836E+02 -0.15786108417E+03  0.17925918782E+03  0.72681367646E+02 0.  0.
         23    2    1    2    0    0  0.42591127300E+02  0.10093361407E+03  0.65740837783E+01  0.14260055309E+03  0.91049989509E+02 0.  0.
        -11    1    4    4    0    0  0.12306374607E+01  0.40137106213E+02  0.44437326498E+02  0.59893052602E+02  0.00000000000E+00 0. -1.
         11    1    4    4    0    0  0.41360489840E+02  0.60796507853E+02 -0.37863242720E+02  0.82707500483E+02  0.00000000000E+00 0.  1.
        -11    1    3    3    0    0  0.20434053630E+02  0.84313609188E+01 -0.58397878375E+02  0.62441577442E+02  0.00000000000E+00 0. -1.
         11    1    3    3    0    0 -0.36130545941E+02 -0.49477352755E+02 -0.99463205799E+02  0.11681761037E+03  0.00000000000E+00 0.  1.
         21    1    1    2  503  502 -0.43388649794E+01  0.27212945794E+02  0.79235596852E+02  0.83890702564E+02  0.00000000000E+00 0. -1.
          1    1    1    2  501    0 -0.22555770011E+02 -0.87100568024E+02 -0.29351163397E+03  0.30699242823E+03  0.00000000000E+00 0. -1.
<scales pt_clust_5="13000.00000" pt_clust_6="13000.00000" pt_clust_7="13000.00000" pt_clust_8="13000.00000" pt_clust_9="27.55667" pt_clust_10="91.50939"></scales>
<clustering>
<clus scale="   27.557">  1  9  2 -1</clus>
<clus scale="   72.681">  7  8 -1 -1</clus>
<clus scale="   83.547">  1  7  2 -1</clus>
<clus scale="   91.050">  5  6 -1 -1</clus>
<clus scale="   91.509">  2 10  1 -1</clus>
<clus scale="   91.509">  2  5  1 -1</clus>
</clustering>
</event>
<event>
10    2  0.3544405E-006  0.1150790E+03  0.7546771E-02  0.1252367E+00
          1   -1    0    0  503    0 -0.00000000000E+00  0.00000000000E+00  0.10911928474E+04  0.10911928474E+04  0.00000000000E+00 0. -1.
         21   -1    0    0  501  502  0.00000000000E+00 -0.00000000000E+00 -0.72517809026E+02  0.72517809026E+02  0.00000000000E+00 0. -1.
         23    2    1    2    0    0  0.97649781369E+02 -0.22000538805E+02  0.35489159673E+03  0.37930822058E+03  0.88922310276E+02 0.  0.
         23    2    1    2    0    0 -0.46188980930E+02 -0.42564765977E+02  0.31980301541E+03  0.33853305794E+03  0.91572274124E+02 0.  0.
        -11    1    4    4    0    0 -0.22159256463E+02 -0.67352481615E+02  0.25985557124E+03  0.26935535512E+03  0.00000000000E+00 0.  1.
         11    1    4    4    0    0 -0.24029724467E+02  0.24787715638E+02  0.59947444167E+02  0.69177702814E+02  0.00000000000E+00 0. -1.
        -13    1    3    3    0    0  0.34820937188E+02 -0.52985887773E+02  0.15343673661E+03  0.16602058340E+03  0.00000000000E+00 0.  1.
         13    1    3    3    0    0  0.62828844181E+02  0.30985348967E+02  0.20145486012E+03  0.21328763719E+03  0.00000000000E+00 0. -1.
         21    1    1    2  503  502 -0.81112710294E+02  0.72590348762E+02  0.38187617906E+03  0.39708695098E+03  0.00000000000E+00 0. -1.
          1    1    1    2  501    0  0.29651909855E+02 -0.80250439787E+01 -0.37895752858E+02  0.48782426893E+02  0.00000000000E+00 0. -1.
<scales pt_clust_5="13000.00000" pt_clust_6="13000.00000" pt_clust_7="13000.00000" pt_clust_8="13000.00000" pt_clust_9="101.76083" pt_clust_10="30.71868"></scales>
<clustering>
<clus scale="   30.719">  2 10  1 -1</clus>
<clus scale="   88.922">  7  8 -1 -1</clus>
<clus scale="   91.572">  5  6 -1 -1</clus>
<clus scale="  101.761">  1  9  2 -1</clus>
<clus scale="  112.982">  1  7  2 -1</clus>
<clus scale="   30.719">  2  5  1 -1</clus>
</clustering>
</event>
<event>
10    2  0.3544405E-006  0.2017247E+03  0.7546771E-02  0.1148659E+00
         21   -1    0    0  501  502  0.00000000000E+00  0.00000000000E+00  0.60210233816E+03  0.60210233816E+03  0.00000000000E+00 0.  1.
          2   -1    0    0  503    0 -0.00000000000E+00 -0.00000000000E+00 -0.23299711201E+03  0.23299711201E+03  0.00000000000E+00 0. -1.
         23    2    1    2    0    0  0.11884487916E+03  0.86476590216E+02  0.71095688927E+02  0.18759082136E+03  0.92376475995E+02 0.  0.
         23    2    1    2    0    0 -0.13076930882E+03 -0.16931787066E+03  0.23843886039E+03  0.33234402680E+03  0.88489030654E+02 0.  0.
        -11    1    3    3    0    0  0.21311955300E+02  0.38437897776E+02 -0.17535782689E+02  0.47319922852E+02  0.00000000000E+00 0. -1.
         11    1    3    3    0    0  0.97532923862E+02  0.48038692440E+02  0.88631471616E+02  0.14027089851E+03  0.00000000000E+00 0.  1.
        -11    1    4    4    0    0 -0.11736162449E+03 -0.14289260781E+03  0.23964081259E+03  0.30268757379E+03  0.00000000000E+00 0.  1.
         11    1    4    4    0    0 -0.13407684335E+02 -0.26425262853E+02 -0.12019521903E+01  0.29656453010E+02  0.00000000000E+00 0. -1.
         21    1    1    2  503  502  0.98099310764E+01  0.56079918389E+02 -0.12041118835E+03  0.13319176504E+03  0.00000000000E+00 0. -1.
          2    1    1    2  501    0  0.21144985857E+01  0.26761362057E+02  0.17998186518E+03  0.18197283697E+03  0.00000000000E+00 0. -1.
<scales pt_clust_5="13000.00000" pt_clust_6="13000.00000" pt_clust_7="13000.00000" pt_clust_8="13000.00000" pt_clust_9="57.33702" pt_clust_10="26.84477"></scales>
<clustering>
<clus scale="   26.845">  1 10  2 -1</clus>
<clus scale="   57.337">  2  9  1 -1</clus>
<clus scale="   88.489">  7  8 -1 -1</clus>
<clus scale="   92.376">  5  6 -1 -1</clus>
<clus scale="  199.974">  1  7  2 -1</clus>
<clus scale="   26.845">  1  5  2 -1</clus>
</clustering>
</event>
<event>
10    2  0.3544405E-006  0.1329986E+03  0.7546771E-02  0.1240935E+00
         -3   -1    0    0    0  501 -0.00000000000E+00  0.00000000000E+00  0.54093089416E+03  0.54093089416E+03  0.00000000000E+00 0.  1.
         21   -1    0    0  503  502  0.00000000000E+00 -0.00000000000E+00 -0.11598240233E+03  0.11598240233E+03  0.00000000000E+00 0.  1.
         23    2    1    2    0    0 -0.21800107571E+01  0.32358227911E+02  0.16178634606E+03  0.18830950785E+03  0.90740518050E+02 0.  0.
         23    2    1    2    0    0 -0.11962939414E+03  0.38895132606E+02  0.17499825378E+03  0.23242988618E+03  0.87035853991E+02 0.  0.
        -11    1    4    4    0    0 -0.19674146926E+01  0.34970489708E+02  0.35078228548E+02  0.49571039823E+02  0.00000000000E+00 0. -1.
         11    1    4    4    0    0 -0.11766197945E+03  0.39246428976E+01  0.13992002523E+03  0.18285884636E+03  0.00000000000E+00 0.  1.
        -11    1    3    3    0    0  0.29579914276E+02  0.40883242950E+02  0.14011928486E+03  0.14892892558E+03  0.00000000000E+00 0. -1.
         11    1    3    3    0    0 -0.31759925033E+02 -0.85250150385E+01  0.21667061196E+02  0.39380582276E+02  0.00000000000E+00 0.  1.
         21    1    1    2  503  501  0.28390132961E+02 -0.47568388362E+02  0.12203532056E+03  0.13402003837E+03  0.00000000000E+00 0. -1.
         -3    1    1    2    0  502  0.93419271940E+02 -0.23684972156E+02 -0.33871428569E+02  0.10215386409E+03  0.00000000000E+00 0.  1.
<scales pt_clust_5="13000.00000" pt_clust_6="13000.00000" pt_clust_7="13000.00000" pt_clust_8="13000.00000" pt_clust_9="55.39631" pt_clust_10="100.56536"></scales>
<clustering>
<clus scale="   55.396">  1  9  2 -1</clus>
<clus scale="   87.036">  5  6 -1 -1</clus>
<clus scale="   90.741">  7  8 -1 -1</clus>
<clus scale="   92.085">  1  7  2 -1</clus>
<clus scale="  100.565">  2 10  1 -1</clus>
<clus scale="  100.565">  2  5  1 -1</clus>
</clustering>
</event>
<event>
10    2  0.3544405E-006  0.2331137E+03  0.7546771E-02  0.1125644E+00
          2   -1    0    0  503    0 -0.00000000000E+00  0.00000000000E+00  0.12168349040E+04  0.12168349040E+04  0.00000000000E+00 0. -1.
         21   -1    0    0  501  502  0.00000000000E+00 -0.00000000000E+00 -0.19302166022E+03  0.19302166022E+03  0.00000000000E+00 0. -1.
         23    2    1    2    0    0  0.24047252479E+03  0.14049562189E+03  0.45994184161E+03  0.54830117573E+03  0.10733884058E+03 0.  0.
         23    2    1    2    0    0 -0.14929415612E+03 -0.10002887828E+03  0.12423896144E+03  0.23700610582E+03  0.91880646026E+02 0.  0.
        -11    1    3    3    0    0  0.20608783120E+03  0.15164391852E+03  0.43399729912E+03  0.50380723282E+03  0.00000000000E+00 0.  1.
         11    1    3    3    0    0  0.34384693587E+02 -0.11148296634E+02  0.25944542482E+02  0.44493942908E+02  0.00000000000E+00 0. -1.
        -13    1    4    4    0    0 -0.85602970607E+02 -0.93863022877E+02  0.44140533742E+02  0.13448614189E+03  0.00000000000E+00 0. -1.
         13    1    4    4    0    0 -0.63691185516E+02 -0.61658554033E+01  0.80098427702E+02  0.10251996394E+03  0.00000000000E+00 0.  1.
         21    1    1    2  503  502 -0.10231802698E+03 -0.18975416707E+02  0.52530981868E+03  0.53551792751E+03  0.00000000000E+00 0. -1.
          2    1    1    2  501    0  0.11139658317E+02 -0.21491326903E+02 -0.85677377924E+02  0.89031355192E+02  0.00000000000E+00 0. -1.
<scales pt_clust_5="13000.00000" pt_clust_6="13000.00000" pt_clust_7="13000.00000" pt_clust_8="13000.00000" pt_clust_9="103.72897" pt_clust_10="24.20680"></scales>
<clustering>
<clus scale="   24.207">  2 10  1 -1</clus>
<clus scale="   91.881">  7  8 -1 -1</clus>
<clus scale="  103.729">  1  9  2 -1</clus>
<clus scale="  107.339">  5  6 -1 -1</clus>
<clus scale="  226.412">  2  7  1 -1</clus>
<clus scale="   24.207">  2  5  1 -1</clus>
</clustering>
</event>
<event>
10    2  0.3544405E-006  0.1092598E+03  0.7546771E-02  0.1262330E+00
         21   -1    0    0  501  502  0.00000000000E+00  0.00000000000E+00  0.18097952704E+03  0.18097952704E+03  0.00000000000E+00 0. -1.
          1   -1    0    0  503    0 -0.00000000000E+00 -0.00000000000E+00 -0.73673461253E+03  0.73673461253E+03  0.00000000000E+00 0. -1.
         23    2    1    2    0    0 -0.49313903149E+02 -0.99885914510E+02 -0.38227188863E+03  0.40789440210E+03  0.88526772583E+02 0.  0.
         23    2    1    2    0    0  0.69443939183E+02  0.15353291259E+02 -0.30325488511E+02  0.11829102520E+03  0.89526237206E+02 0.  0.
        -13    1    4    4    0    0  0.22743715697E+02 -0.32299647556E+02 -0.33062408209E+02  0.51513752266E+02  0.00000000000E+00 0. -1.
         13    1    4    4    0    0  0.46700223486E+02  0.47652938816E+02  0.27369196982E+01  0.66777272936E+02  0.00000000000E+00 0.  1.
        -13    1    3    3    0    0 -0.71340587162E+02 -0.48262348316E+02 -0.23553986131E+03  0.25079425812E+03  0.00000000000E+00 0.  1.
         13    1    3    3    0    0  0.22026684013E+02 -0.51623566194E+02 -0.14673202733E+03  0.15710014398E+03  0.00000000000E+00 0. -1.
         21    1    1    2  503  502  0.84847132231E+01  0.67243112931E+02 -0.26067831193E+03  0.26934514828E+03  0.00000000000E+00 0. -1.
          1    1    1    2  501    0 -0.28614749257E+02  0.17289510319E+02  0.11752060358E+03  0.12218356399E+03  0.00000000000E+00 0. -1.
<scales pt_clust_5="13000.00000" pt_clust_6="13000.00000" pt_clust_7="13000.00000" pt_clust_8="13000.00000" pt_clust_9="68.77251" pt_clust_10="33.43248"></scales>
<clustering>
<clus scale="   33.432">  1 10  2 -1</clus>
<clus scale="   68.773">  2  9  1 -1</clus>
<clus scale="   88.527">  7  8 -1 -1</clus>
<clus scale="   89.526">  5  6 -1 -1</clus>
<clus scale="  108.442">  2  7  1 -1</clus>
<clus scale="   33.432">  1  5  2 -1</clus>
</clustering>
</event>
<event>
10    2  0.3544405E-006  0.1270161E+03  0.7546771E-02  0.1232737E+00
         -2   -1    0    0    0  501 -0.00000000000E+00  0.00000000000E+00  0.34578633091E+03  0.34578633091E+03  0.00000000000E+00 0.  1.
         21   -1    0    0  503  502  0.00000000000E+00 -0.00000000000E+00 -0.17337934380E+03  0.17337934380E+03  0.00000000000E+00 0. -1.
         23    2    1    2    0    0 -0.78558925169E+02 -0.56854536444E+02  0.18371521804E+03  0.22681071474E+03  0.91037772090E+02 0.  0.
         23    2    1    2    0    0  0.60943241430E+02  0.39266840551E+02  0.19949438189E+02  0.12022789370E+03  0.93812594552E+02 0.  0.
        -11    1    3    3    0    0 -0.89899889147E+02 -0.22160949211E+02  0.15423106394E+03  0.17988974074E+03  0.00000000000E+00 0.  1.
         11    1    3    3    0    0  0.11340963978E+02 -0.34693587233E+02  0.29484154095E+02  0.46920974007E+02  0.00000000000E+00 0. -1.
        -13    1    4    4    0    0  0.69797824148E+01  0.43083687241E+02  0.43140851803E+02  0.61368188527E+02  0.00000000000E+00 0. -1.
         13    1    4    4    0    0  0.53963459016E+02 -0.38168466896E+01 -0.23191413614E+02  0.58859705173E+02  0.00000000000E+00 0.  1.
         21    1    1    2  503  501  0.18283529959E+02 -0.84037946697E+01  0.67275959446E+02  0.70220837021E+02  0.00000000000E+00 0.  1.
         -2    1    1    2    0  502 -0.66784621982E+00  0.25991490562E+02 -0.98533628560E+02  0.10190622924E+03  0.00000000000E+00 0.  1.
<scales pt_clust_5="13000.00000" pt_clust_6="13000.00000" pt_clust_7="13000.00000" pt_clust_8="13000.00000" pt_clust_9="20.12241" pt_clust_10="25.94631"></scales>
<clustering>
<clus scale="   20.122">  1  9  2 -1</clus>
<clus scale="   25.946">  2 10  1 -1</clus>
<clus scale="   91.038">  5  6 -1 -1</clus>
<clus scale="   93.813">  7  8 -1 -1</clus>
<clus scale="  124.981">  1  5  2 -1</clus>
<clus scale="   25.946">  2  5  1 -1</clus>
</clustering>
</event>
<event>
10    2  0.3544405E-006  0.3884656E+03  0.7546771E-02  0.1077743E+00
          1   -1    0    0  503    0 -0.00000000000E+00  0.00000000000E+00  0.80050763172E+03  0.80050763172E+03  0.00000000000E+00 0. -1.
         21   -1    0    0  501  502  0.00000000000E+00 -0.00000000000E+00 -0.63836536311E+03  0.63836536311E+03  0.00000000000E+00 0. -1.
         23    2    1    2    0    0 -0.13814223017E+03  0.99647092931E+01  0.29034722328E+03  0.33644905741E+03  0.98559053243E+02 0.  0.
         23    2    1    2    0    0  0.29440410586E+03  0.19340291986E+03 -0.44928783213E+03  0.57760227246E+03  0.87671900209E+02 0.  0.
        -11    1    3    3    0    0 -0.10032987383E+03  0.27600114927E+02  0.27132547843E+03  0.29059484712E+03  0.00000000000E+00 0. -1.
         11    1    3    3    0    0 -0.37812356338E+02 -0.17635405634E+02  0.19021744845E+02  0.45854210283E+02  0.00000000000E+00 0.  1.
        -11    1    4    4    0    0  0.22275036934E+03  0.13265518078E+03 -0.38352240833E+03  0.46293040699E+03  0.00000000000E+00 0. -1.
         11    1    4    4    0    0  0.71653736520E+02  0.60747739083E+02 -0.65765423807E+02  0.11467186547E+03  0.00000000000E+00 0.  1.
         21    1    1    2  503  502 -0.19137219912E+03 -0.24820819591E+03  0.34224005523E+03  0.46406775638E+03  0.00000000000E+00 0. -1.
          1    1    1    2  501    0  0.35110323432E+02  0.44840566748E+02 -0.21157177762E+02  0.60753908587E+02  0.00000000000E+00 0. -1.
<scales pt_clust_5="13000.00000" pt_clust_6="13000.00000" pt_clust_7="13000.00000" pt_clust_8="13000.00000" pt_clust_9="378.44305" pt_clust_10="56.95095"></scales>
<clustering>
<clus scale="   56.951">  2 10  1 -1</clus>
<clus scale="   87.672">  7  8 -1 -1</clus>
<clus scale="   98.559">  5  6 -1 -1</clus>
<clus scale="  169.001">  1  5  2 -1</clus>
<clus scale="  378.443">  1  9  2 -1</clus>
<clus scale="   56.951">  2  5  1 -1</clus>
</clustering>
</event>
<event>
10    2  0.3544405E-006  0.1345388E+03  0.7546771E-02  0.1221271E+00
         -3   -1    0    0    0  501 -0.00000000000E+00  0.00000000000E+00  0.24941417985E+03  0.24941417985E+03  0.00000000000E+00 0.  1.
         21   -1    0    0  503  502  0.00000000000E+00 -0.00000000000E+00 -0.61328019752E+03  0.61328019752E+03  0.00000000000E+00 0.  1.
         23    2    1    2    0    0  0.63446853020E+02  0.69927491343E+02  0.95531302975E+02  0.16276956609E+03  0.91936633576E+02 0.  0.
         23    2    1    2    0    0 -0.99509927866E+02 -0.23773127283E+02  0.34078401085E+02  0.14064555730E+03  0.90290907864E+02 0.  0.
        -11    1    4    4    0    0 -0.26019270569E+02  0.25157107863E+02 -0.15518592519E+02  0.39379045579E+02  0.00000000000E+00 0.  1.
         11    1    4    4    0    0 -0.73490657297E+02 -0.48930235146E+02  0.49596993604E+02  0.10126651172E+03  0.00000000000E+00 0. -1.
        -13    1    3    3    0    0  0.84175028920E+02  0.64873401648E+02  0.62031020085E+02  0.12305218888E+03  0.00000000000E+00 0.  1.
         13    1    3    3    0    0 -0.20728175900E+02  0.50540896945E+01  0.33500282890E+02  0.39717377211E+02  0.00000000000E+00 0. -1.
         21    1    1    2  503  501  0.38308323524E+02  0.38326437948E+02  0.43199358363E+01  0.54360880628E+02  0.00000000000E+00 0.  1.
         -3    1    1    2    0  502 -0.22452486787E+01 -0.84480802008E+02 -0.49779565757E+03  0.50491837335E+03  0.00000000000E+00 0.  1.
<scales pt_clust_5="13000.00000" pt_clust_6="13000.00000" pt_clust_7="13000.00000" pt_clust_8="13000.00000" pt_clust_9="54.18896" pt_clust_10="83.87633"></scales>
<clustering>
<clus scale="   54.189">  1  9  2 -1</clus>
<clus scale="   83.876">  2 10  1 -1</clus>
<clus scale="   90.291">  5  6 -1 -1</clus>
<clus scale="   91.937">  7  8 -1 -1</clus>
<clus scale="  133.420">  2  5  1 -1</clus>
<clus scale="   83.876">  2  5  1 -1</clus>
</clustering>
</event>
<event>
10    2  0.3544405E-006  0.1634748E+03  0.7546771E-02  0.1185734E+00
          1   -1    0    0  503    0 -0.00000000000E+00  0.00000000000E+00  0.10248150332E+04  0.10248150332E+04  0.00000000000E+00 0. -1.
         21   -1    0    0  501  502  0.00000000000E+00 -0.00000000000E+00 -0.69574006003E+02  0.69574006003E+02  0.00000000000E+00 0. -1.
         23    2    1    2    0    0 -0.40192055028E+02 -0.70722886421E+02  0.29659727588E+03  0.32110415436E+03  0.92308211635E+02 0.  0.
         23    2    1    2    0    0  0.57923079882E+02  0.20657897693E+03  0.27965595348E+03  0.36290770877E+03  0.86397892765E+02 0.  0.
        -11    1    4    4    0    0  0.30640401996E+02  0.17058654304E+03  0.16344350036E+03  0.23822758176E+03  0.00000000000E+00 0. -1.
         11    1    4    4    0    0  0.27282677886E+02  0.35992433884E+02  0.11621245313E+03  0.12468012701E+03  0.00000000000E+00 0.  1.
        -13    1    3    3    0    0 -0.19094888469E+02  0.20822563882E+02  0.85484058218E+02  0.90031761849E+02  0.00000000000E+00 0. -1.
         13    1    3    3    0    0 -0.21097166558E+02 -0.91545450303E+02  0.21111321766E+03  0.23107239251E+03  0.00000000000E+00 0.  1.
         21    1    1    2  503  502  0.55014920768E+01 -0.68249318412E+02  0.28015176053E+03  0.28839771983E+03  0.00000000000E+00 0. -1.
          1    1    1    2  501    0 -0.23232516931E+02 -0.67606772094E+02  0.98836037330E+02  0.12197945627E+03  0.00000000000E+00 0. -1.
<scales pt_clust_5="13000.00000" pt_clust_6="13000.00000" pt_clust_7="13000.00000" pt_clust_8="13000.00000" pt_clust_9="68.47069" pt_clust_10="80.94670"></scales>
<clustering>
<clus scale="   68.471">  1  9  2 -1</clus>
<clus scale="   80.947">  2 10  1 -1</clus>
<clus scale="   86.398">  5  6 -1 -1</clus>
<clus scale="   92.308">  7  8 -1 -1</clus>
<clus scale="  160.212">  2  5  1 -1</clus>
<clus scale="   80.947">  2  5  1 -1</clus>
</clustering>
</event>
<event>
10    2  0.3544405E-006  0.1371688E+03  0.7546771E-02  0.1217810E+00
          1   -1    0    0  503    0 -0.00000000000E+00  0.00000000000E+00  0.23826921072E+03  0.23826921072E+03  0.00000000000E+00 0. -1.
         21   -1    0    0  501  502  0.00000000000E+00 -0.00000000000E+00 -0.33058332474E+03  0.33058332474E+03  0.00000000000E+00 0. -1.
         23    2    1    2    0    0  0.62223050396E+01  0.92255046958E+02  0.42169682846E+02  0.13957074049E+03  0.95666079044E+02 0.  0.
         23    2    1    2    0    0 -0.16562109553E+02 -0.86513887712E+02 -0.95885852839E+02  0.16006110137E+03  0.93094055440E+02 0.  0.
        -11    1    3    3    0    0 -0.43860945234E+02  0.50660190329E+02  0.29642909282E+02  0.73273047375E+02  0.00000000000E+00 0.  1.
         11    1    3    3    0    0  0.50083250274E+02  0.41594856629E+02  0.12526773564E+02  0.66297693112E+02  0.00000000000E+00 0. -1.
        -13    1    4    4    0    0 -0.87228629490E+00 -0.46796420366E+02  0.82346629244E+01  0.47523420710E+02  0.00000000000E+00 0. -1.
         13    1    4    4    0    0 -0.15689823259E+02 -0.39717467345E+02 -0.10412051576E+03  0.11253768066E+03  0.00000000000E+00 0.  1.
         21    1    1    2  503  502  0.15297116680E+02  0.15722586077E+02  0.11346722634E+03  0.11556821771E+03  0.00000000000E+00 0. -1.
          1    1    1    2  501    0 -0.49573121657E+01 -0.21463745323E+02 -0.15206517036E+03  0.15365247588E+03  0.00000000000E+00 0. -1.
<scales pt_clust_5="13000.00000" pt_clust_6="13000.00000" pt_clust_7="13000.00000" pt_clust_8="13000.00000" pt_clust_9="21.93631" pt_clust_10="21.90858"></scales>
<clustering>
<clus scale="   21.936">  1  9  2 -1</clus>
<clus scale="   21.909">  2 10  1 -1</clus>
<clus scale="   93.094">  7  8 -1 -1</clus>
<clus scale="   95.666">  5  6 -1 -1</clus>
<clus scale="  135.388">  2  7  1 -1</clus>
<clus scale="   21.909">  2  5  1 -1</clus>
</clustering>
</event>
<event>
10    2  0.3544405E-006  0.2124920E+03  0.7546771E-02  0.1159639E+00
         21   -1    0    0  501  502  0.00000000000E+00  0.00000000000E+00  0.27015278092E+03  0.27015278092E+03  0.00000000000E+00 0.  1.
          1   -1    0    0  503    0 -0.00000000000E+00 -0.00000000000E+00 -0.63540585326E+03  0.63540585326E+03  0.00000000000E+00 0. -1.
         23    2    1    2    0    0 -0.69049484539E+02 -0.14860615042E+03  0.19636234441E+02  0.18853774553E+03  0.91155255094E+02 0.  0.
         23    2    1    2    0    0 -0.95228680326E+02 -0.71258559436E+01 -0.72358342603E+02  0.14984972938E+03  0.89999623735E+02 0.  0.
        -11    1    3    3    0    0 -0.32727745952E+02 -0.14555271581E+03  0.26290103988E+02  0.15148553728E+03  0.00000000000E+00 0.  1.
         11    1    3    3    0    0 -0.36321738587E+02 -0.30534346026E+01 -0.66538695474E+01  0.37052208258E+02  0.00000000000E+00 0. -1.
        -13    1    4    4    0    0 -0.65160679594E+02 -0.41183649942E+02 -0.18283241412E+02  0.79223002368E+02  0.00000000000E+00 0. -1.
         13    1    4    4    0    0 -0.30068000732E+02  0.34057793998E+02 -0.54075101192E+02  0.70626727015E+02  0.00000000000E+00 0.  1.
         21    1    1    2  503  502  0.17062087421E+03  0.11045182487E+03 -0.41105210774E+03  0.45855743763E+03  0.00000000000E+00 0. -1.
          1    1    1    2  501    0 -0.63427093494E+01  0.45280181493E+02  0.98521143555E+02  0.10861372163E+03  0.00000000000E+00 0. -1.
<scales pt_clust_5="13000.00000" pt_clust_6="13000.00000" pt_clust_7="13000.00000" pt_clust_8="13000.00000" pt_clust_9="191.94683" pt_clust_10="45.72226"></scales>
<clustering>
<clus scale="   45.722">  1 10  2 -1</clus>
<clus scale="   90.000">  7  8 -1 -1</clus>
<clus scale="   91.155">  5  6 -1 -1</clus>
<clus scale="  132.148">  1  7  2 -1</clus>
<clus scale="  191.947">  2  9  1 -1</clus>
<clus scale="   45.722">  1  5  2 -1</clus>
</clustering>
</event>
<event>
10    2  0.3544405E-006  0.1180862E+03  0.7546771E-02  0.1251944E+00
          2   -1    0    0  503    0 -0.00000000000E+00  0.00000000000E+00  0.51321502487E+03  0.51321502487E+03  0.00000000000E+00 0. -1.
         21   -1    0    0  501  502  0.00000000000E+00 -0.00000000000E+00 -0.96574812848E+02  0.96574812848E+02  0.00000000000E+00 0. -1.
         23    2    1    2    0    0  0.22211805388E+02  0.74526898953E+01  0.18478781076E+03  0.20760869587E+03  0.91683851971E+02 0.  0.
         23    2    1    2    0    0 -0.74588523534E+02 -0.55871483372E+02  0.71338113928E+02  0.15812775267E+03  0.10597258688E+03 0.  0.
        -13    1    4    4    0    0 -0.74596933673E+02 -0.28572106290E+02 -0.19655252103E+01  0.79905763625E+02  0.00000000000E+00 0.  1.
         13    1    4    4    0    0  0.84101381308E-02 -0.27299377082E+02  0.73303639138E+02  0.78221989048E+02  0.00000000000E+00 0. -1.
        -13    1    3    3    0    0  0.27965419724E+02 -0.37709965824E+02  0.71727612160E+02  0.85726055368E+02  0.00000000000E+00 0.  1.
         13    1    3    3    0    0 -0.57536143366E+01  0.45162655719E+02  0.11306019860E+03  0.12188264051E+03  0.00000000000E+00 0. -1.
         21    1    1    2  503  502  0.13323355282E+02  0.33624357824E+02  0.18969156298E+03  0.19310877324E+03  0.00000000000E+00 0. -1.
          2    1    1    2  501    0  0.39053362865E+02  0.14794435653E+02 -0.29177275653E+02  0.50944615926E+02  0.00000000000E+00 0. -1.
<scales pt_clust_5="13000.00000" pt_clust_6="13000.00000" pt_clust_7="13000.00000" pt_clust_8="13000.00000" pt_clust_9="36.16779" pt_clust_10="42.59552"></scales>
<clustering>
<clus scale="   36.168">  1  9  2 -1</clus>
<clus scale="   42.596">  2 10  1 -1</clus>
<clus scale="   91.684">  7  8 -1 -1</clus>
<clus scale="  105.452">  1  7  2 -1</clus>
<clus scale="  105.973">  5  6 -1 -1</clus>
<clus scale="   42.596">  2  5  1 -1</clus>
</clustering>
</event>
<event>
10    2  0.3544405E-006  0.1058347E+03  0.7546771E-02  0.1270590E+00
         21   -1    0    0  503  502  0.00000000000E+00  0.00000000000E+00  0.66303436324E+02  0.66303436324E+02  0.00000000000E+00 0. -1.
         -3   -1    0    0    0  501 -0.00000000000E+00 -0.00000000000E+00 -0.55313664552E+03  0.55313664552E+03  0.00000000000E+00 0.  1.
         23    2    1    2    0    0 -0.13203997986E+02  0.37231961026E+01 -0.26342629129E+03  0.28034456370E+03  0.94928687445E+02 0.  0.
         23    2    1    2    0    0  0.95162072075E+02 -0.39749961812E+02 -0.92762346533E+02  0.16545506100E+03  0.90192266023E+02 0.  0.
        -11    1    3    3    0    0  0.31911190294E+02 -0.18988478882E+01 -0.34851861215E+02  0.47292514412E+02  0.00000000000E+00 0. -1.
         11    1    3    3    0    0 -0.45115188279E+02  0.56220439908E+01 -0.22857443008E+03  0.23305204929E+03  0.00000000000E+00 0.  1.
        -11    1    4    4    0    0  0.90177906530E+02 -0.19417261092E+02 -0.26516758644E+02  0.95980327898E+02  0.00000000000E+00 0. -1.
         11    1    4    4    0    0  0.49841655453E+01 -0.20332700719E+02 -0.66245587889E+02  0.69474733101E+02  0.00000000000E+00 0.  1.
         21    1    1    2  503  501 -0.27965818947E+02  0.81950012375E+01 -0.10274194742E+03  0.10679491015E+03  0.00000000000E+00 0.  1.
         -3    1    1    2    0  502 -0.53992255143E+02  0.27831764472E+02 -0.27902623945E+02  0.66845546987E+02  0.00000000000E+00 0.  1.
<scales pt_clust_5="13000.00000" pt_clust_6="13000.00000" pt_clust_7="13000.00000" pt_clust_8="13000.00000" pt_clust_9="29.14181" pt_clust_10="63.76932"></scales>
<clustering>
<clus scale="   29.142">  2  9  1 -1</clus>
<clus scale="   63.769">  1 10  2 -1</clus>
<clus scale="   90.192">  7  8 -1 -1</clus>
<clus scale="   94.929">  5  6 -1 -1</clus>
<clus scale="  101.608">  1  7  2 -1</clus>
<clus scale="   63.769">  1  5  2 -1</clus>
</clustering>
</event>
<event>
10    2  0.3544405E-006  0.1432540E+03  0.7546771E-02  0.1211621E+00
         -2   -1    0    0    0  501 -0.00000000000E+00  0.00000000000E+00  0.20306897765E+03  0.20306897765E+03  0.00000000000E+00 0.  1.
         21   -1    0    0  503  502  0.00000000000E+00 -0.00000000000E+00 -0.28319373360E+03  0.28319373360E+03  0.00000000000E+00 0.  1.
         23    2    1    2    0    0  0.40168883321E+02  0.12314030519E+03 -0.60331050132E+01  0.15538105460E+03  0.85614250125E+02 0.  0.
         23    2    1    2    0    0 -0.11932822886E+03 -0.21759970190E+02 -0.51278114722E+02  0.16380290756E+03  0.97412653032E+02 0.  0.
        -11    1    4    4    0    0 -0.10426571503E+02 -0.36575732700E+02  0.80967120768E+01  0.38885143208E+02  0.00000000000E+00 0. -1.
         11    1    4    4    0    0 -0.10890165736E+03  0.14815762509E+02 -0.59374826799E+02  0.12491776436E+03  0.00000000000E+00 0.  1.
        -13    1    3    3    0    0  0.54717785601E+02  0.37852723821E+02 -0.15585456759E+02  0.68335724363E+02  0.00000000000E+00 0. -1.
         13    1    3    3    0    0 -0.14548902280E+02  0.85287581364E+02  0.95523517461E+01  0.87045330239E+02  0.00000000000E+00 0.  1.
         21    1    1    2  503  501  0.84756933139E+01 -0.48562361936E+02  0.35995128620E+02  0.61039246869E+02  0.00000000000E+00 0.  1.
         -2    1    1    2    0  502  0.70683652227E+02 -0.52817973059E+02 -0.58808664841E+02  0.10603950222E+03  0.00000000000E+00 0.  1.
<scales pt_clust_5="13000.00000" pt_clust_6="13000.00000" pt_clust_7="13000.00000" pt_clust_8="13000.00000" pt_clust_9="49.29645" pt_clust_10="93.85940"></scales>
<clustering>
<clus scale="   49.296">  1  9  2 -1</clus>
<clus scale="   85.614">  7  8 -1 -1</clus>
<clus scale="   93.859">  2 10  1 -1</clus>
<clus scale="   97.413">  5  6 -1 -1</clus>
<clus scale="  135.507">  1  7  2 -1</clus>
<clus scale="   93.859">  2  5  1 -1</clus>
</clustering>
</event>
<event>
10    2  0.3544405E-006  0.1703454E+03  0.7546771E-02  0.1200773E+00
         21   -1    0    0  503  502  0.00000000000E+00  0.00000000000E+00  0.49030770616E+03  0.49030770616E+03  0.00000000000E+00 0.  1.
          2   -1    0    0  502    0 -0.00000000000E+00 -0.00000000000E+00 -0.43861069773E+03  0.43861069773E+03  0.00000000000E+00 0. -1.
         23    2    1    2    0    0  0.28073827544E+02  0.36670811693E+02 -0.46564761699E+02  0.11342754348E+03  0.92545353014E+02 0.  0.
         23    2    1    2    0    0 -0.13893665382E+03 -0.10894208322E+03 -0.29589473471E+03  0.35665254514E+03  0.92062873373E+02 0.  0.
        -13    1    3    3    0    0  0.57647967336E+02  0.25226464757E+02 -0.51526528442E+02  0.81330472735E+02  0.00000000000E+00 0. -1.
         13    1    3    3    0    0 -0.29574139791E+02  0.11444346936E+02  0.49617667427E+01  0.32097070745E+02  0.00000000000E+00 0.  1.
        -13    1    4    4    0    0 -0.48722277405E+02 -0.94784655091E+02 -0.17889740615E+03  0.20823609937E+03  0.00000000000E+00 0. -1.
         13    1    4    4    0    0 -0.90214376411E+02 -0.14157428133E+02 -0.11699732857E+03  0.14841644577E+03  0.00000000000E+00 0.  1.
         21    1    1    2  503  501 -0.45825646482E+02 -0.18582544788E+02  0.12488532297E+03  0.13431918977E+03  0.00000000000E+00 0.  1.
          2    1    1    2  501    0  0.15668847275E+03  0.90853816318E+02  0.26927118187E+03  0.32451912551E+03  0.00000000000E+00 0. -1.
<scales pt_clust_5="13000.00000" pt_clust_6="13000.00000" pt_clust_7="13000.00000" pt_clust_8="13000.00000" pt_clust_9="49.44998" pt_clust_10="143.32475"></scales>
<clustering>
<clus scale="   49.450">  1  9  2 -1</clus>
<clus scale="   92.063">  7  8 -1 -1</clus>
<clus scale="   92.545">  5  6 -1 -1</clus>
<clus scale="  101.753">  2  5  1 -1</clus>
<clus scale="  143.325">  1 10  2 -1</clus>
<clus scale="   49.450">  1  5  2 -1</clus>
</clustering>
</event>
<event>
10    2  0.3544405E-006  0.1406166E+03  0.7546771E-02  0.1230387E+00
         21   -1    0    0  501  502  0.00000000000E+00  0.00000000000E+00  0.16868525731E+03  0.16868525731E+03  0.00000000000E+00 0.  1.
          1   -1    0    0  503    0 -0.00000000000E+00 -0.00000000000E+00 -0.87786715506E+03  0.87786715506E+03  0.00000000000E+00 0. -1.
         23    2    1    2    0    0  0.75097746277E+02 -0.10769624779E+03 -0.93435886633E+02  0.18430733810E+03  0.89447060775E+02 0.  0.
         23    2    1    2    0    0  0.12404890854E+02  0.47105685580E+02  0.50238490767E+02  0.11593645169E+03  0.92436615826E+02 0.  0.
        -11    1    3    3    0    0  0.94824043734E+02 -0.84751353476E+02 -0.65186496162E+02  0.14291140776E+03  0.00000000000E+00 0.  1.
         11    1    3    3    0    0 -0.19726297457E+02 -0.22944894311E+02 -0.28249390472E+02  0.41395930335E+02  0.00000000000E+00 0. -1.
        -13    1    4    4    0    0  0.10811031026E+01  0.70485113822E+02  0.14856112874E+02  0.72041822188E+02  0.00000000000E+00 0. -1.
         13    1    4    4    0    0  0.11323787751E+02 -0.23379428242E+02  0.35382377892E+02  0.43894629504E+02  0.00000000000E+00 0.  1.
         21    1    1    2  503  502 -0.48338754384E+02  0.94932786945E+02 -0.68319483135E+03  0.69145068284E+03  0.00000000000E+00 0. -1.
          1    1    1    2  501    0 -0.39163882748E+02 -0.34342224737E+02  0.17210329471E+02  0.54857939738E+02  0.00000000000E+00 0. -1.
<scales pt_clust_5="13000.00000" pt_clust_6="13000.00000" pt_clust_7="13000.00000" pt_clust_8="13000.00000" pt_clust_9="108.50002" pt_clust_10="52.08837"></scales>
<clustering>
<clus scale="   52.088">  1 10  2 -1</clus>
<clus scale="   89.447">  5  6 -1 -1</clus>
<clus scale="   92.437">  7  8 -1 -1</clus>
<clus scale="   96.678">  1  7  2 -1</clus>
<clus scale="  108.500">  2  9  1 -1</clus>
<clus scale="   52.088">  1  5  2 -1</clus>
</clustering>
</event>
<event>
10    2  0.3544405E-006  0.1031240E+03  0.7546771E-02  0.1273892E+00
          2   -1    0    0  503    0 -0.00000000000E+00  0.00000000000E+00  0.47133183742E+02  0.47133183742E+02  0.00000000000E+00 0. -1.
         21   -1    0    0  501  502  0.00000000000E+00 -0.00000000000E+00 -0.10228374757E+04  0.10228374757E+04  0.00000000000E+00 0. -1.
         23    2    1    2    0    0 -0.18974140942E+02 -0.30472932394E+02 -0.63388858406E+02  0.11680533126E+03  0.91305642805E+02 0.  0.
         23    2    1    2    0    0  0.20791032334E+02  0.80556742654E+02 -0.23291404007E+03  0.26361833148E+03  0.91236060947E+02 0.  0.
        -11    1    4    4    0    0  0.22887352069E+02 -0.13152997468E+02 -0.29133491201E+02  0.39314024682E+02  0.00000000000E+00 0.  1.
         11    1    4    4    0    0 -0.20963197351E+01  0.93709740122E+02 -0.20378054887E+03  0.22430430680E+03  0.00000000000E+00 0. -1.
        -11    1    3    3    0    0  0.26982102080E+02 -0.30604360582E+02 -0.29887578262E+01  0.40909575806E+02  0.00000000000E+00 0.  1.
         11    1    3    3    0    0 -0.45956243022E+02  0.13142818814E+00 -0.60400100580E+02  0.75895755455E+02  0.00000000000E+00 0. -1.
         21    1    1    2  503  502 -0.20301654981E+02 -0.74948391558E+02 -0.58644221774E+03  0.59156055763E+03  0.00000000000E+00 0. -1.
          2    1    1    2  501    0  0.18484763590E+02  0.24864581298E+02 -0.92959175772E+02  0.97986439104E+02  0.00000000000E+00 0. -1.
<scales pt_clust_5="13000.00000" pt_clust_6="13000.00000" pt_clust_7="13000.00000" pt_clust_8="13000.00000" pt_clust_9="59.77234" pt_clust_10="30.98280"></scales>
<clustering>
<clus scale="   30.983">  2 10  1 -1</clus>
<clus scale="   59.772">  2  9  1 -1</clus>
<clus scale="   91.236">  5  6 -1 -1</clus>
<clus scale="   91.306">  7  8 -1 -1</clus>
<clus scale="  103.062">  2  5  1 -1</clus>
<clus scale="   30.983">  2  5  1 -1</clus>
</clustering>
</event>
<event>
10    2  0.3544405E-006  0.2348769E+03  0.7546771E-02  0.1124150E+00
         21   -1    0    0  503  502  0.00000000000E+00  0.00000000000E+00  0.14931966788E+03  0.14931966788E+03  0.00000000000E+00 0.  1.
         -3   -1    0    0    0  501 -0.00000000000E+00 -0.00000000000E+00 -0.64295006476E+03  0.64295006476E+03  0.00000000000E+00 0.  1.
         23    2    1    2    0    0 -0.44740986766E+01  0.22507801967E+03 -0.27061404700E+03  0.36363924509E+03  0.91221738837E+02 0.  0.
         23    2    1    2    0    0  0.83007245198E+02 -0.19257202256E+03 -0.14963973723E+03  0.26885700473E+03  0.76927572483E+02 0.  0.
        -11    1    3    3    0    0 -0.38714191104E+02  0.79195265912E+02 -0.13679131831E+03  0.16273457992E+03  0.00000000000E+00 0.  1.
         11    1    3    3    0    0  0.34240092427E+02  0.14588275376E+03 -0.13382272869E+03  0.20090466517E+03  0.00000000000E+00 0. -1.
        -13    1    4    4    0    0  0.28294345953E+02 -0.12171183142E+02 -0.49055918572E+01  0.31189301747E+02  0.00000000000E+00 0.  1.
         13    1    4    4    0    0  0.54712899245E+02 -0.18040083941E+03 -0.14473414538E+03  0.23766770299E+03  0.00000000000E+00 0. -1.
         21    1    1    2  503  501 -0.49437881064E+02  0.18447330895E+02 -0.84914752687E+02  0.99974613403E+02  0.00000000000E+00 0. -1.
         -3    1    1    2    0  502 -0.29095265458E+02 -0.50953328009E+02  0.11538140039E+02  0.59798869411E+02  0.00000000000E+00 0.  1.
<scales pt_clust_5="13000.00000" pt_clust_6="13000.00000" pt_clust_7="13000.00000" pt_clust_8="13000.00000" pt_clust_9="52.76749" pt_clust_10="59.09165"></scales>
<clustering>
<clus scale="   52.767">  2  9  1 -1</clus>
<clus scale="   59.092">  1 10  2 -1</clus>
<clus scale="   76.928">  7  8 -1 -1</clus>
<clus scale="   91.222">  5  6 -1 -1</clus>
<clus scale="  229.703">  1  7  2 -1</clus>
<clus scale="   59.092">  1  5  2 -1</clus>
</clustering>
</event>
<event>
10    2  0.3544405E-006  0.1362229E+03  0.7546771E-02  0.1219102E+00
         21   -1    0    0  503  502  0.00000000000E+00  0.00000000000E+00  0.55917321376E+02  0.55917321376E+02  0.00000000000E+00 0.  1.
         -1   -1    0    0    0  501 -0.00000000000E+00 -0.00000000000E+00 -0.48943274730E+03  0.48943274730E+03  0.00000000000E+00 0.  1.
         23    2    1    2    0    0 -0.93889689074E+02  0.19067390706E+02 -0.22144801646E+03  0.25854411836E+03  0.92881634576E+02 0.  0.
         23    2    1    2    0    0  0.94473345795E+02 -0.26139047540E+02 -0.12534505232E+03  0.18299051680E+03  0.90364175554E+02 0.  0.
        -13    1    3    3    0    0 -0.87213255130E+02  0.50516598116E+02 -0.15786472337E+03  0.18729481958E+03  0.00000000000E+00 0.  1.
         13    1    3    3    0    0 -0.66764339444E+01 -0.31449207411E+02 -0.63583293081E+02  0.71249298775E+02  0.00000000000E+00 0. -1.
        -13    1    4    4    0    0  0.15874476731E+02 -0.46247876154E+02 -0.28284130992E+02  0.56487672338E+02  0.00000000000E+00 0. -1.
         13    1    4    4    0    0  0.78598869064E+02  0.20108828614E+02 -0.97060921330E+02  0.12650284446E+03  0.00000000000E+00 0.  1.
         21    1    1    2  503  501 -0.13289399797E+02  0.23087777351E+02 -0.76404568176E+02  0.80915459883E+02  0.00000000000E+00 0. -1.
         -1    1    1    2    0  502  0.12705743076E+02 -0.16016120516E+02 -0.10317788970E+02  0.22899973640E+02  0.00000000000E+00 0.  1.
<scales pt_clust_5="13000.00000" pt_clust_6="13000.00000" pt_clust_7="13000.00000" pt_clust_8="13000.00000" pt_clust_9="25.72075" pt_clust_10="20.44387"></scales>
<clustering>
<clus scale="   20.444">  1 10  2 -1</clus>
<clus scale="   25.721">  2  9  1 -1</clus>
<clus scale="   90.364">  7  8 -1 -1</clus>
<clus scale="   92.882">  5  6 -1 -1</clus>
<clus scale="  134.519">  1  7  2 -1</clus>
<clus scale="   20.444">  1  5  2 -1</clus>
</clustering>
</event>
<event>
10    2  0.3544405E-006  0.1624938E+03  0.7546771E-02  0.1186185E+00
         21   -1    0    0  501  502  0.00000000000E+00  0.00000000000E+00  0.30595507113E+03  0.30595507113E+03  0.00000000000E+00 0. -1.
          4   -1    0    0  503    0 -0.00000000000E+00 -0.00000000000E+00 -0.29251159333E+03  0.29251159333E+03  0.00000000000E+00 0. -1.
         23    2    1    2    0    0 -0.11107634416E+03  0.13615075313E+02 -0.40050197515E+02  0.14857466994E+03  0.89146450960E+02 0.  0.
         23    2    1    2    0    0  0.15919902496E+03 -0.77269291963E+01 -0.99572655583E+02  0.20877596599E+03  0.90932146405E+02 0.  0.
        -11    1    3    3    0    0  0.18629052568E+00  0.24532283597E+02  0.94750410328E+01  0.26299126321E+02  0.00000000000E+00 0.  1.
         11    1    3    3    0    0 -0.11126263469E+03 -0.10917208284E+02 -0.49525238547E+02  0.12227554362E+03  0.00000000000E+00 0. -1.
        -11    1    4    4    0    0  0.88972553103E+01  0.26508460139E+02 -0.25112035924E+02  0.37582894504E+02  0.00000000000E+00 0.  1.
         11    1    4    4    0    0  0.15030176965E+03 -0.34235389336E+02 -0.74460619659E+02  0.17119307148E+03  0.00000000000E+00 0. -1.
         21    1    1    2  503  502  0.21453965080E+02  0.42667200432E+01 -0.34473783359E+02  0.40827922513E+02  0.00000000000E+00 0.  1.
          4    1    1    2  501    0 -0.69576645884E+02 -0.10154866160E+02  0.18754011426E+03  0.20028810602E+03  0.00000000000E+00 0. -1.
<scales pt_clust_5="13000.00000" pt_clust_6="13000.00000" pt_clust_7="13000.00000" pt_clust_8="13000.00000" pt_clust_9="21.87413" pt_clust_10="69.76747"></scales>
<clustering>
<clus scale="   21.874">  2  9  1 -1</clus>
<clus scale="   69.767">  1 10  2 -1</clus>
<clus scale="   89.146">  5  6 -1 -1</clus>
<clus scale="   90.932">  7  8 -1 -1</clus>
<clus scale="  161.501">  2  5  1 -1</clus>
<clus scale="   69.767">  1  5  2 -1</clus>
</clustering>
</event>
<event>
10    2  0.3544405E-006  0.9921431E+02  0.7546771E-02  0.1285580E+00
          2   -1    0    0  503    0 -0.00000000000E+00  0.00000000000E+00  0.18688868512E+03  0.18688868512E+03  0.00000000000E+00 0. -1.
         21   -1    0    0  501  502  0.00000000000E+00 -0.00000000000E+00 -0.31742461626E+03  0.31742461626E+03  0.00000000000E+00 0. -1.
         23    2    1    2    0    0 -0.32784537650E+02  0.36853581063E+02  0.64219738729E+02  0.12292125165E+03  0.92479440518E+02 0.  0.
         23    2    1    2    0    0 -0.18221262919E+02  0.53309131326E+02 -0.32042664042E+02  0.11264683276E+03  0.92134134321E+02 0.  0.
        -11    1    3    3    0    0  0.21951473077E+02  0.25630883997E+02  0.57463200871E+02  0.66639544109E+02  0.00000000000E+00 0.  1.
         11    1    3    3    0    0 -0.54736010727E+02  0.11222697067E+02  0.67565378578E+01  0.56281707540E+02  0.00000000000E+00 0. -1.
        -11    1    4    4    0    0 -0.54793437902E+02  0.20851165093E+02 -0.22677130737E+02  0.62859718273E+02  0.00000000000E+00 0. -1.
         11    1    4    4    0    0  0.36572174983E+02  0.32457966233E+02 -0.93655333047E+01  0.49787114488E+02  0.00000000000E+00 0.  1.
         21    1    1    2  503  502 -0.29749927294E+02 -0.25829864235E+02  0.30400278763E+02  0.49763611297E+02  0.00000000000E+00 0. -1.
          2    1    1    2  501    0  0.80755727863E+02 -0.64332848154E+02 -0.19311328460E+03  0.21898160567E+03  0.00000000000E+00 0. -1.
<scales pt_clust_5="13000.00000" pt_clust_6="13000.00000" pt_clust_7="13000.00000" pt_clust_8="13000.00000" pt_clust_9="39.39848" pt_clust_10="102.67290"></scales>
<clustering>
<clus scale="   39.398">  1  9  2 -1</clus>
<clus scale="   92.134">  7  8 -1 -1</clus>
<clus scale="   92.479">  5  6 -1 -1</clus>
<clus scale="  102.673">  2 10  1 -1</clus>
<clus scale="  102.673">  2  7  1 -1</clus>
<clus scale="   99.214">  2  5  1 -1</clus>
</clustering>
</event>
<event>
10    2  0.3544405E-006  0.1105429E+03  0.7546771E-02  0.1259568E+00
          1   -1    0    0  503    0 -0.00000000000E+00  0.00000000000E+00  0.61171299173E+03  0.61171299173E+03  0.00000000000E+00 0. -1.
         21   -1    0    0  501  502  0.00000000000E+00 -0.00000000000E+00 -0.40955411966E+02  0.40955411966E+02  0.00000000000E+00 0. -1.
         23    2    1    2    0    0 -0.47682896567E+02 -0.83078068837E+01  0.21827424706E+03  0.24136927692E+03  0.90954948355E+02 0.  0.
         23    2    1    2    0    0  0.72597469883E+02  0.13161251081E+00  0.16416765517E+03  0.20123234813E+03  0.90956192610E+02 0.  0.
        -11    1    4    4    0    0 -0.76338531794E+01  0.20441265822E+02  0.81056324757E+02  0.83941937349E+02  0.00000000000E+00 0. -1.
         11    1    4    4    0    0  0.80231323062E+02 -0.20309653311E+02  0.83111330414E+02  0.11729041078E+03  0.00000000000E+00 0.  1.
        -13    1    3    3    0    0  0.37044145091E+01 -0.41385779898E+02  0.98483878305E+02  0.10689050356E+03  0.00000000000E+00 0. -1.
         13    1    3    3    0    0 -0.51387311077E+02  0.33077973014E+02  0.11979036875E+03  0.13447877336E+03  0.00000000000E+00 0.  1.
         21    1    1    2  503  502 -0.42280985758E+02 -0.37184706361E+01  0.18367058168E+03  0.18851098471E+03  0.00000000000E+00 0. -1.
          1    1    1    2  501    0  0.17366412443E+02  0.11894665009E+02  0.46450958486E+01  0.21555793937E+02  0.00000000000E+00 0. -1.
<scales pt_clust_5="13000.00000" pt_clust_6="13000.00000" pt_clust_7="13000.00000" pt_clust_8="13000.00000" pt_clust_9="41.08552" pt_clust_10="21.04935"></scales>
<clustering>
<clus scale="   21.049">  2 10  1 -1</clus>
<clus scale="   41.086">  1  9  2 -1</clus>
<clus scale="   90.955">  7  8 -1 -1</clus>
<clus scale="   90.956">  5  6 -1 -1</clus>
<clus scale="  110.542">  1  7  2 -1</clus>
<clus scale="   21.049">  2  5  1 -1</clus>
</clustering>
</event>
<event>
10    2  0.3544405E-006  0.9369538E+02  0.7546771E-02  0.1295491E+00
         21   -1    0    0  501  502  0.00000000000E+00  0.00000000000E+00  0.18116658175E+03  0.18116658175E+03  0.00000000000E+00 0.  1.
          3   -1    0    0  503    0 -0.00000000000E+00 -0.00000000000E+00 -0.10638082675E+03  0.10638082675E+03  0.00000000000E+00 0. -1.
         23    2    1    2    0    0  0.63157766725E+01  0.15587714666E+02  0.21544239295E+01  0.90758882666E+02  0.89160907110E+02 0.  0.
         23    2    1    2    0    0 -0.27472560427E+02 -0.10641364662E+01  0.22994570688E+02  0.98304296367E+02  0.91537481068E+02 0.  0.
        -11    1    4    4    0    0 -0.35960767133E+02 -0.23179745449E+02  0.47700500886E+02  0.64076635029E+02  0.00000000000E+00 0.  1.
         11    1    4    4    0    0  0.84882067060E+01  0.22115608983E+02 -0.24705930198E+02  0.34227661339E+02  0.00000000000E+00 0. -1.
        -13    1    3    3    0    0 -0.29336052670E+02  0.31114973284E+02  0.20891101477E+02  0.47593945724E+02  0.00000000000E+00 0.  1.
         13    1    3    3    0    0  0.35651829342E+02 -0.15527258618E+02 -0.18736677547E+02  0.43164936941E+02  0.00000000000E+00 0. -1.
         21    1    1    2  503  502  0.13342037108E+02  0.20320254122E+02 -0.12107642284E+02  0.27157276805E+02  0.00000000000E+00 0. -1.
          3    1    1    2  501    0  0.78147466461E+01 -0.34843832322E+02  0.61744402666E+02  0.71326952666E+02  0.00000000000E+00 0. -1.
<scales pt_clust_5="13000.00000" pt_clust_6="13000.00000" pt_clust_7="13000.00000" pt_clust_8="13000.00000" pt_clust_9="24.30890" pt_clust_10="34.78895"></scales>
<clustering>
<clus scale="   24.309">  2  9  1 -1</clus>
<clus scale="   34.789">  1 10  2 -1</clus>
<clus scale="   89.161">  7  8 -1 -1</clus>
<clus scale="   91.375">  2  7  1 -1</clus>
<clus scale="   91.537">  5  6 -1 -1</clus>
<clus scale="   34.789">  1  5  2 -1</clus>
</clustering>
</event>
<event>
10    2  0.3544405E-006  0.4324620E+03  0.7546771E-02  0.1033138E+00
         -1   -1    0    0    0  501 -0.00000000000E+00  0.00000000000E+00  0.33348780401E+03  0.33348780401E+03  0.00000000000E+00 0.  1.
         21   -1    0    0  503  502  0.00000000000E+00 -0.00000000000E+00 -0.10448136859E+04  0.10448136859E+04  0.00000000000E+00 0. -1.
         23    2    1    2    0    0 -0.48643657425E+03  0.26351309763E+03 -0.29554698652E+03  0.63329787916E+03  0.87512794048E+02 0.  0.
         23    2    1    2    0    0  0.31233833737E+03 -0.13107111396E+03 -0.22710195019E+03  0.41779672351E+03  0.90796103940E+02 0.  0.
        -11    1    3    3    0    0 -0.59909295348E+02  0.48231449769E+01 -0.44907907265E+02  0.75027371881E+02  0.00000000000E+00 0.  1.
         11    1    3    3    0    0 -0.42652727890E+03  0.25868995266E+03 -0.25063907925E+03  0.55827050728E+03  0.00000000000E+00 0. -1.
        -13    1    4    4    0    0  0.20277091478E+03 -0.12361331131E+03 -0.12752604600E+03  0.26955368114E+03  0.00000000000E+00 0.  1.
         13    1    4    4    0    0  0.10956742260E+03 -0.74578026553E+01 -0.99575904190E+02  0.14824304237E+03  0.00000000000E+00 0. -1.
         21    1    1    2  503  501  0.15248947618E+03 -0.10074747482E+03 -0.59118286220E+02  0.19208869252E+03  0.00000000000E+00 0.  1.
         -1    1    1    2    0  502  0.21608760690E+02 -0.31694508854E+02 -0.12955865898E+03  0.13511819473E+03  0.00000000000E+00 0.  1.
<scales pt_clust_5="13000.00000" pt_clust_6="13000.00000" pt_clust_7="13000.00000" pt_clust_8="13000.00000" pt_clust_9="187.66249" pt_clust_10="38.35988"></scales>
<clustering>
<clus scale="   38.360">  2 10  1 -1</clus>
<clus scale="   87.513">  5  6 -1 -1</clus>
<clus scale="   90.796">  7  8 -1 -1</clus>
<clus scale="  187.662">  1  9  2 -1</clus>
<clus scale="  431.785">  1  5  2 -1</clus>
<clus scale="   38.360">  2  5  1 -1</clus>
</clustering>
</event>
<event>
10    2  0.3544405E-006  0.9902285E+02  0.7546771E-02  0.1283758E+00
         21   -1    0    0  501  502  0.00000000000E+00  0.00000000000E+00  0.13789279641E+03  0.13789279641E+03  0.00000000000E+00 0. -1.
          1   -1    0    0  503    0 -0.00000000000E+00 -0.00000000000E+00 -0.45084518658E+03  0.45084518658E+03  0.00000000000E+00 0. -1.
         23    2    1    2    0    0  0.31397240889E+02 -0.57220381373E+02 -0.30052248131E+03  0.32037555183E+03  0.89815219522E+02 0.  0.
         23    2    1    2    0    0  0.42294783054E+02  0.74489993576E-01 -0.33382531838E+02  0.10711714582E+03  0.92578805752E+02 0.  0.
        -13    1    4    4    0    0  0.97039936034E+01  0.29586431031E+02  0.20720689771E+02  0.37401488976E+02  0.00000000000E+00 0.  1.
         13    1    4    4    0    0  0.32590789451E+02 -0.29511941037E+02 -0.54103221609E+02  0.69715656845E+02  0.00000000000E+00 0. -1.
        -13    1    3    3    0    0  0.51463885374E+02 -0.65468748085E+02 -0.18563856304E+03  0.20346096569E+03  0.00000000000E+00 0.  1.
         13    1    3    3    0    0 -0.20066644485E+02  0.82483667116E+01 -0.11488391827E+03  0.11691458614E+03  0.00000000000E+00 0. -1.
         21    1    1    2  503  502 -0.85460894479E+00  0.22537907529E+02 -0.49351386533E+02  0.54260915814E+02  0.00000000000E+00 0.  1.
          1    1    1    2  501    0 -0.72837414998E+02  0.34607983851E+02  0.70304009513E+02  0.10698436953E+03  0.00000000000E+00 0. -1.
<scales pt_clust_5="13000.00000" pt_clust_6="13000.00000" pt_clust_7="13000.00000" pt_clust_8="13000.00000" pt_clust_9="22.55410" pt_clust_10="81.12642"></scales>
<clustering>
<clus scale="   22.554">  2  9  1 -1</clus>
<clus scale="   81.126">  1 10  2 -1</clus>
<clus scale="   89.815">  7  8 -1 -1</clus>
<clus scale="   92.579">  5  6 -1 -1</clus>
<clus scale="   96.444">  2  7  1 -1</clus>
<clus scale="   81.126">  1  5  2 -1</clus>
</clustering>
</event>
<event>
10    2  0.3544405E-006  0.3878476E+03  0.7546771E-02  0.1048121E+00
         21   -1    0    0  503  502  0.00000000000E+00  0.00000000000E+00  0.62122804545E+03  0.62122804545E+03  0.00000000000E+00 0.  1.
         -4   -1    0    0    0  501 -0.00000000000E+00 -0.00000000000E+00 -0.58102451188E+03  0.58102451188E+03  0.00000000000E+00 0.  1.
         23    2    1    2    0    0 -0.27383220533E+03 -0.26084000279E+03 -0.13679679288E+03  0.41158945389E+03  0.87583858556E+02 0.  0.
         23    2    1    2    0    0  0.36038340634E+03  0.17253646502E+03 -0.46560695994E+02  0.41220756216E+03  0.90011913460E+02 0.  0.
        -13    1    3    3    0    0 -0.25400610857E+03 -0.20779715836E+03 -0.96435260412E+02  0.34205046654E+03  0.00000000000E+00 0.  1.
         13    1    3    3    0    0 -0.19826096767E+02 -0.53042844435E+02 -0.40361532468E+02  0.69538987352E+02  0.00000000000E+00 0. -1.
        -13    1    4    4    0    0  0.26872554845E+03  0.14407058728E+03 -0.71214241532E+02  0.31311535048E+03  0.00000000000E+00 0.  1.
         13    1    4    4    0    0  0.91657857883E+02  0.28465877741E+02  0.24653545538E+02  0.99092211676E+02  0.00000000000E+00 0. -1.
         21    1    1    2  503  501  0.29226838533E+02  0.15514454566E+02 -0.57243607224E+02  0.66119111905E+02  0.00000000000E+00 0.  1.
         -4    1    1    2    0  502 -0.11577803954E+03  0.72789083209E+02  0.28080462967E+03  0.31233642938E+03  0.00000000000E+00 0.  1.
<scales pt_clust_5="13000.00000" pt_clust_6="13000.00000" pt_clust_7="13000.00000" pt_clust_8="13000.00000" pt_clust_9="33.08937" pt_clust_10="136.26052"></scales>
<clustering>
<clus scale="   33.089">  2  9  1 -1</clus>
<clus scale="   87.584">  5  6 -1 -1</clus>
<clus scale="   90.012">  7  8 -1 -1</clus>
<clus scale="  136.261">  1 10  2 -1</clus>
<clus scale="  387.291">  2  5  1 -1</clus>
<clus scale="  136.261">  1  5  2 -1</clus>
</clustering>
</event>
<event>
10    2  0.3544405E-006  0.1222539E+03  0.7546771E-02  0.1239539E+00
          1   -1    0    0  503    0 -0.00000000000E+00  0.00000000000E+00  0.35598377991E+03  0.35598377991E+03  0.00000000000E+00 0. -1.
         21   -1    0    0  501  502  0.00000000000E+00 -0.00000000000E+00 -0.15164113654E+03  0.15164113654E+03  0.00000000000E+00 0.  1.
         23    2    1    2    0    0 -0.36511150535E+02  0.51444872603E+02  0.16896710830E+03  0.20201081419E+03  0.90988165874E+02 0.  0.
         23    2    1    2    0    0  0.56493122661E+02 -0.31906124984E+02 -0.44827623258E+02  0.12069482164E+03  0.91368760762E+02 0.  0.
        -13    1    3    3    0    0  0.26465611258E+02 -0.22543084645E+01  0.28373663043E+02  0.38866119441E+02  0.00000000000E+00 0.  1.
         13    1    3    3    0    0 -0.62976761793E+02  0.53699181068E+02  0.14059344526E+03  0.16314469474E+03  0.00000000000E+00 0. -1.
        -13    1    4    4    0    0 -0.20461146647E+02 -0.11681811932E+02 -0.32554973463E+02  0.40186434891E+02  0.00000000000E+00 0. -1.
         13    1    4    4    0    0  0.76954269308E+02 -0.20224313052E+02 -0.12272649796E+02  0.80508386744E+02  0.00000000000E+00 0.  1.
         21    1    1    2  503  502 -0.49589532770E+02 -0.73156118883E+01  0.12221155739E+03  0.13209203116E+03  0.00000000000E+00 0. -1.
          1    1    1    2  501    0  0.29607560644E+02 -0.12223135732E+02 -0.42008399058E+02  0.52827249463E+02  0.00000000000E+00 0. -1.
<scales pt_clust_5="13000.00000" pt_clust_6="13000.00000" pt_clust_7="13000.00000" pt_clust_8="13000.00000" pt_clust_9="48.82861" pt_clust_10="32.03143"></scales>
<clustering>
<clus scale="   32.031">  2 10  1 -1</clus>
<clus scale="   48.829">  1  9  2 -1</clus>
<clus scale="   90.988">  5  6 -1 -1</clus>
<clus scale="   91.369">  7  8 -1 -1</clus>
<clus scale="  121.970">  1  5  2 -1</clus>
<clus scale="   32.031">  2  5  1 -1</clus>
</clustering>
</event>
<event>
10    2  0.3544405E-006  0.1024586E+03  0.7546771E-02  0.1276249E+00
          3   -1    0    0  503    0 -0.00000000000E+00  0.00000000000E+00  0.12438919980E+04  0.12438919980E+04  0.00000000000E+00 0. -1.
         21   -1    0    0  501  502  0.00000000000E+00 -0.00000000000E+00 -0.84066194154E+02  0.84066194154E+02  0.00000000000E+00 0. -1.
         23    2    1    2    0    0  0.59876305686E+01  0.88357136042E+02  0.64425935613E+03  0.65695714178E+03  0.93165084489E+02 0.  0.
         23    2    1    2    0    0  0.23071688270E+02 -0.31760335450E+02  0.12908966918E+03  0.16271086855E+03  0.90937683868E+02 0.  0.
        -11    1    4    4    0    0 -0.69263547237E+01 -0.53762528535E+02  0.10563806624E+03  0.11873409327E+03  0.00000000000E+00 0. -1.
         11    1    4    4    0    0  0.29998042994E+02  0.22002193085E+02  0.23451602942E+02  0.43976775286E+02  0.00000000000E+00 0.  1.
        -11    1    3    3    0    0  0.25835704604E+02  0.10063347283E+03  0.55835152773E+03  0.56793574285E+03  0.00000000000E+00 0.  1.
         11    1    3    3    0    0 -0.19848074035E+02 -0.12276336786E+02  0.85907828397E+02  0.89021398931E+02  0.00000000000E+00 0. -1.
         21    1    1    2  503  502 -0.44400061949E+02 -0.72559858894E+02  0.44116448836E+03  0.44929100193E+03  0.00000000000E+00 0. -1.
          3    1    1    2  501    0  0.15340743111E+02  0.15963058303E+02 -0.54687709793E+02  0.58999179926E+02  0.00000000000E+00 0. -1.
<scales pt_clust_5="13000.00000" pt_clust_6="13000.00000" pt_clust_7="13000.00000" pt_clust_8="13000.00000" pt_clust_9="81.84204" pt_clust_10="22.13950"></scales>
<clustering>
<clus scale="   22.140">  2 10  1 -1</clus>
<clus scale="   81.842">  1  9  2 -1</clus>
<clus scale="   90.938">  5  6 -1 -1</clus>
<clus scale="   93.165">  7  8 -1 -1</clus>
<clus scale="  100.437">  2  5  1 -1</clus>
<clus scale="   22.140">  2  5  1 -1</clus>
</clustering>
</event>
<event>
10    2  0.3544405E-006  0.1120053E+03  0.7546771E-02  0.1260124E+00
          2   -1    0    0  503    0 -0.00000000000E+00  0.00000000000E+00  0.41926665539E+03  0.41926665539E+03  0.00000000000E+00 0. -1.
         21   -1    0    0  501  502  0.00000000000E+00 -0.00000000000E+00 -0.35385645602E+03  0.35385645602E+03  0.00000000000E+00 0.  1.
         23    2    1    2    0    0  0.57620027164E+02  0.55892002820E+02  0.23610234508E+03  0.26524105723E+03  0.90357720071E+02 0.  0.
         23    2    1    2    0    0 -0.26674278605E+02 -0.28945812106E+02 -0.32294906906E+03  0.33986211155E+03  0.98289249066E+02 0.  0.
        -11    1    4    4    0    0  0.24647859551E+01  0.28505736410E+02 -0.37139350363E+02  0.46882656958E+02  0.00000000000E+00 0. -1.
         11    1    4    4    0    0 -0.29139064560E+02 -0.57451548516E+02 -0.28580971870E+03  0.29297945459E+03  0.00000000000E+00 0.  1.
        -11    1    3    3    0    0 -0.10735197014E+02  0.21587655687E+02  0.92155407244E+01  0.25810802464E+02  0.00000000000E+00 0.  1.
         11    1    3    3    0    0  0.68355224178E+02  0.34304347133E+02  0.22688680436E+03  0.23943025476E+03  0.00000000000E+00 0. -1.
         21    1    1    2  503  502 -0.10718619590E+02 -0.33841080358E+02  0.13760363840E+03  0.14210865148E+03  0.00000000000E+00 0.  1.
          2    1    1    2  501    0 -0.20227128969E+02  0.68948896445E+01  0.14653284955E+02  0.25911291159E+02  0.00000000000E+00 0. -1.
<scales pt_clust_5="13000.00000" pt_clust_6="13000.00000" pt_clust_7="13000.00000" pt_clust_8="13000.00000" pt_clust_9="35.49525" pt_clust_10="21.37000"></scales>
<clustering>
<clus scale="   21.370">  2 10  1 -1</clus>
<clus scale="   35.495">  1  9  2 -1</clus>
<clus scale="   90.358">  7  8 -1 -1</clus>
<clus scale="   98.289">  5  6 -1 -1</clus>
<clus scale="  105.114">  1  7  2 -1</clus>
<clus scale="   21.370">  2  5  1 -1</clus>
</clustering>
</event>
<event>
10    2  0.3544405E-006  0.9417980E+02  0.7546771E-02  0.1297327E+00
          2   -1    0    0  503    0 -0.00000000000E+00  0.00000000000E+00  0.12340431357E+04  0.12340431357E+04  0.00000000000E+00 0. -1.
         21   -1    0    0  501  502  0.00000000000E+00 -0.00000000000E+00 -0.38405332374E+02  0.38405332374E+02  0.00000000000E+00 0. -1.
         23    2    1    2    0    0  0.58523425320E+02  0.68645579050E+01  0.47109089074E+03  0.48224159210E+03  0.84606219293E+02 0.  0.
         23    2    1    2    0    0 -0.15492295455E+02 -0.22432983309E+02  0.15546718989E+03  0.18269934935E+03  0.92009538429E+02 0.  0.
        -11    1    3    3    0    0  0.71210241024E+02 -0.18675559012E+02  0.30798033016E+03  0.31665684691E+03  0.00000000000E+00 0.  1.
         11    1    3    3    0    0 -0.12686815705E+02  0.25540116917E+02  0.16311056058E+03  0.16558474518E+03  0.00000000000E+00 0. -1.
        -11    1    4    4    0    0  0.59613983835E+01 -0.39606898014E+02  0.14924052538E+03  0.15452177535E+03  0.00000000000E+00 0. -1.
         11    1    4    4    0    0 -0.21453693839E+02  0.17173914705E+02  0.62266645076E+01  0.28177574000E+02  0.00000000000E+00 0.  1.
         21    1    1    2  503  502 -0.61799530191E+02 -0.32252784362E+02  0.54727904186E+03  0.55170080088E+03  0.00000000000E+00 0. -1.
          2    1    1    2  501    0  0.18768400327E+02  0.47821209766E+02  0.21800680843E+02  0.55806725756E+02  0.00000000000E+00 0. -1.
<scales pt_clust_5="13000.00000" pt_clust_6="13000.00000" pt_clust_7="13000.00000" pt_clust_8="13000.00000" pt_clust_9="65.79739" pt_clust_10="51.37238"></scales>
<clustering>
<clus scale="   51.372">  2 10  1 -1</clus>
<clus scale="   65.797">  1  9  2 -1</clus>
<clus scale="   84.606">  5  6 -1 -1</clus>
<clus scale="   86.961">  1  5  2 -1</clus>
<clus scale="   92.010">  7  8 -1 -1</clus>
<clus scale="   51.372">  2  5  1 -1</clus>
</clustering>
</event>
<event>
10    2  0.3544405E-006  0.1929844E+03  0.7546771E-02  0.1155837E+00
         21   -1    0    0  501  502  0.00000000000E+00  0.00000000000E+00  0.43515315978E+03  0.43515315978E+03  0.00000000000E+00 0.  1.
          1   -1    0    0  503    0 -0.00000000000E+00 -0.00000000000E+00 -0.15228591292E+03  0.15228591292E+03  0.00000000000E+00 0. -1.
         23    2    1    2    0    0  0.53734902547E+02  0.19341118406E+03  0.13046002371E+03  0.25595114809E+03  0.90530914895E+02 0.  0.
         23    2    1    2    0    0 -0.65264252490E+02 -0.13177863191E+03  0.14286586462E+03  0.22396803473E+03  0.90144300001E+02 0.  0.
        -11    1    4    4    0    0 -0.87150948438E+02 -0.11771059231E+03  0.12070203377E+03  0.18978949474E+03  0.00000000000E+00 0. -1.
         11    1    4    4    0    0  0.21886695948E+02 -0.14068039599E+02  0.22163830856E+02  0.34178539990E+02  0.00000000000E+00 0.  1.
        -13    1    3    3    0    0 -0.11480386115E+00  0.14445535193E+03  0.10599895898E+03  0.17917349466E+03  0.00000000000E+00 0.  1.
         13    1    3    3    0    0  0.53849706408E+02  0.48955832126E+02  0.24461064730E+02  0.76777653436E+02  0.00000000000E+00 0. -1.
         21    1    1    2  503  502  0.27831051321E+02 -0.49112067771E+02 -0.29280813580E+02  0.63591891483E+02  0.00000000000E+00 0. -1.
          1    1    1    2  501    0 -0.16301701378E+02 -0.12520484376E+02  0.38822172101E+02  0.43927998400E+02  0.00000000000E+00 0. -1.
<scales pt_clust_5="13000.00000" pt_clust_6="13000.00000" pt_clust_7="13000.00000" pt_clust_8="13000.00000" pt_clust_9="56.58102" pt_clust_10="20.55500"></scales>
<clustering>
<clus scale="   20.555">  1 10  2 -1</clus>
<clus scale="   56.581">  2  9  1 -1</clus>
<clus scale="   90.144">  5  6 -1 -1</clus>
<clus scale="   90.531">  7  8 -1 -1</clus>
<clus scale="  192.803">  1  5  2 -1</clus>
<clus scale="   20.555">  1  5  2 -1</clus>
</clustering>
</event>
<event>
10    2  0.3544405E-006  0.1721770E+03  0.7546771E-02  0.1175628E+00
          2   -1    0    0  503    0 -0.00000000000E+00  0.00000000000E+00  0.41286887736E+03  0.41286887736E+03  0.00000000000E+00 0. -1.
         21   -1    0    0  501  502  0.00000000000E+00 -0.00000000000E+00 -0.28774578703E+03  0.28774578703E+03  0.00000000000E+00 0.  1.
         23    2    1    2    0    0 -0.16664285464E+03 -0.45838713432E+02  0.12335426410E+03  0.23083386415E+03  0.90537117880E+02 0.  0.
         23    2    1    2    0    0  0.13049942017E+03  0.45579098321E+02 -0.17303756392E+03  0.23917400085E+03  0.90303107849E+02 0.  0.
        -13    1    3    3    0    0 -0.54094477311E+02 -0.51332588086E+02  0.81908311388E+02  0.11077101855E+03  0.00000000000E+00 0.  1.
         13    1    3    3    0    0 -0.11254837733E+03  0.54938746535E+01  0.41445952712E+02  0.12006284560E+03  0.00000000000E+00 0. -1.
        -13    1    4    4    0    0  0.28446806981E+02 -0.27450411626E+02 -0.38131664040E+02  0.54925128387E+02  0.00000000000E+00 0. -1.
         13    1    4    4    0    0  0.10205261319E+03  0.73029509947E+02 -0.13490589988E+03  0.18424887247E+03  0.00000000000E+00 0.  1.
         21    1    1    2  503  502  0.26185237511E+02  0.24782426995E+02  0.19437526872E+03  0.19769061799E+03  0.00000000000E+00 0.  1.
          2    1    1    2  501    0  0.99581969553E+01 -0.24522811884E+02 -0.19568878568E+02  0.32916181396E+02  0.00000000000E+00 0. -1.
<scales pt_clust_5="13000.00000" pt_clust_6="13000.00000" pt_clust_7="13000.00000" pt_clust_8="13000.00000" pt_clust_9="35.99256" pt_clust_10="26.46760"></scales>
<clustering>
<clus scale="   26.468">  2 10  1 -1</clus>
<clus scale="   35.993">  1  9  2 -1</clus>
<clus scale="   90.303">  7  8 -1 -1</clus>
<clus scale="   90.537">  5  6 -1 -1</clus>
<clus scale="  172.054">  2  7  1 -1</clus>
<clus scale="   26.468">  2  5  1 -1</clus>
</clustering>
</event>
<event>
10    2  0.3544405E-006  0.3536959E+03  0.7546771E-02  0.1061179E+00
         21   -1    0    0  501  502  0.00000000000E+00  0.00000000000E+00  0.25076697253E+03  0.25076697253E+03  0.00000000000E+00 0.  1.
          1   -1    0    0  503    0 -0.00000000000E+00 -0.00000000000E+00 -0.82635708343E+03  0.82635708343E+03  0.00000000000E+00 0. -1.
         23    2    1    2    0    0  0.31667979112E+03  0.36278541558E+02 -0.36709712284E+03  0.49442662156E+03  0.89973128354E+02 0.  0.
         23    2    1    2    0    0 -0.35180493351E+03 -0.89900847906E+02 -0.22227586695E+03  0.43571014148E+03  0.92670883563E+02 0.  0.
        -11    1    3    3    0    0  0.28817334561E+03  0.22228546745E+02 -0.36034269907E+03  0.46193597629E+03  0.00000000000E+00 0. -1.
         11    1    3    3    0    0  0.28506445508E+02  0.14049994813E+02 -0.67544237662E+01  0.32490645271E+02  0.00000000000E+00 0.  1.
        -11    1    4    4    0    0 -0.24389328834E+03 -0.21811498719E+02 -0.12288964817E+03  0.27397361771E+03  0.00000000000E+00 0.  1.
         11    1    4    4    0    0 -0.10791164517E+03 -0.68089349187E+02 -0.99386218788E+02  0.16173652377E+03  0.00000000000E+00 0. -1.
         21    1    1    2  503  502  0.32722845258E+02  0.17916465386E+01 -0.53062957346E+02  0.62367235320E+02  0.00000000000E+00 0. -1.
          1    1    1    2  501    0  0.24022971326E+01  0.51830659810E+02  0.66845836232E+02  0.84620057606E+02  0.00000000000E+00 0. -1.
<scales pt_clust_5="13000.00000" pt_clust_6="13000.00000" pt_clust_7="13000.00000" pt_clust_8="13000.00000" pt_clust_9="32.77186" pt_clust_10="51.92588"></scales>
<clustering>
<clus scale="   32.772">  2  9  1 -1</clus>
<clus scale="   51.926">  1 10  2 -1</clus>
<clus scale="   89.973">  5  6 -1 -1</clus>
<clus scale="   92.671">  7  8 -1 -1</clus>
<clus scale="  352.999">  2  5  1 -1</clus>
<clus scale="   51.926">  1  5  2 -1</clus>
</clustering>
</event>
<event>
10    2  0.3544405E-006  0.1057578E+03  0.7546771E-02  0.1269282E+00
          1   -1    0    0  503    0 -0.00000000000E+00  0.00000000000E+00  0.77218759845E+03  0.77218759845E+03  0.00000000000E+00 0. -1.
         21   -1    0    0  501  502  0.00000000000E+00 -0.00000000000E+00 -0.63694652973E+02  0.63694652973E+02  0.00000000000E+00 0.  1.
         23    2    1    2    0    0 -0.49389507989E+01  0.14744726008E+02  0.33245463986E+03  0.34512534844E+03  0.91343409126E+02 0.  0.
         23    2    1    2    0    0 -0.59930620861E+02 -0.33850558734E+02  0.21792698970E+02  0.11523255584E+03  0.89811360943E+02 0.  0.
        -13    1    3    3    0    0 -0.37151555270E+01 -0.35590570107E+02  0.20474743318E+03  0.20785091401E+03  0.00000000000E+00 0. -1.
         13    1    3    3    0    0 -0.12237952719E+01  0.50335296115E+02  0.12770720669E+03  0.13727443444E+03  0.00000000000E+00 0.  1.
        -13    1    4    4    0    0  0.13895474579E+02 -0.26890328963E+02  0.27452567928E+02  0.40863400389E+02  0.00000000000E+00 0. -1.
         13    1    4    4    0    0 -0.73826095440E+02 -0.69602297708E+01 -0.56598689587E+01  0.74369155454E+02  0.00000000000E+00 0.  1.
         21    1    1    2  503  502  0.76086546324E+02 -0.10560844565E+02  0.31896021803E+03  0.32807973826E+03  0.00000000000E+00 0. -1.
          1    1    1    2  501    0 -0.11216974664E+02  0.29666677291E+02  0.35285388614E+02  0.47444608880E+02  0.00000000000E+00 0. -1.
<scales pt_clust_5="13000.00000" pt_clust_6="13000.00000" pt_clust_7="13000.00000" pt_clust_8="13000.00000" pt_clust_9="75.64598" pt_clust_10="31.71644"></scales>
<clustering>
<clus scale="   31.716">  2 10  1 -1</clus>
<clus scale="   75.646">  1  9  2 -1</clus>
<clus scale="   89.811">  7  8 -1 -1</clus>
<clus scale="   91.343">  5  6 -1 -1</clus>
<clus scale="  104.437">  2  7  1 -1</clus>
<clus scale="   31.716">  2  5  1 -1</clus>
</clustering>
</event>
<event>
10    2  0.3544405E-006  0.1120573E+03  0.7546771E-02  0.1261218E+00
         21   -1    0    0  501  502  0.00000000000E+00  0.00000000000E+00  0.50283638222E+03  0.50283638222E+03  0.00000000000E+00 0. -1.
          2   -1    0    0  503    0 -0.00000000000E+00 -0.00000000000E+00 -0.82713987000E+02  0.82713987000E+02  0.00000000000E+00 0. -1.
         23    2    1    2    0    0 -0.47518744113E+02 -0.34025166230E+02  0.28817449586E+02  0.12210598969E+03  0.10326511676E+03 0.  0.
         23    2    1    2    0    0 -0.35086182257E+02  0.51371576353E+02  0.88776819131E+02  0.14287472012E+03  0.93068700386E+02 0.  0.
        -11    1    3    3    0    0 -0.55725048077E+02 -0.55672218291E+02 -0.74055342421E+01  0.79117120840E+02  0.00000000000E+00 0. -1.
         11    1    3    3    0    0  0.82063039632E+01  0.21647052062E+02  0.36222983828E+02  0.42988868851E+02  0.00000000000E+00 0.  1.
        -11    1    4    4    0    0 -0.28152396229E+02  0.77100352806E+02  0.80514268450E+02  0.11497638558E+03  0.00000000000E+00 0. -1.
         11    1    4    4    0    0 -0.69337860282E+01 -0.25728776453E+02  0.82625506809E+01  0.27898334542E+02  0.00000000000E+00 0.  1.
         21    1    1    2  503  502  0.12787491533E+02 -0.28321300927E+02  0.13885348789E+03  0.14228811308E+03  0.00000000000E+00 0. -1.
          2    1    1    2  501    0  0.69817434838E+02  0.10974890804E+02  0.16367463861E+03  0.17828154633E+03  0.00000000000E+00 0. -1.
<scales pt_clust_5="13000.00000" pt_clust_6="13000.00000" pt_clust_7="13000.00000" pt_clust_8="13000.00000" pt_clust_9="31.07436" pt_clust_10="75.89044"></scales>
<clustering>
<clus scale="   31.074">  1  9  2 -1</clus>
<clus scale="   75.890">  1 10  2 -1</clus>
<clus scale="   93.069">  7  8 -1 -1</clus>
<clus scale="  102.737">  1  7  2 -1</clus>
<clus scale="  103.265">  5  6 -1 -1</clus>
<clus scale="   31.074">  1  5  2 -1</clus>
</clustering>
</event>
<event>
10    2  0.3544405E-006  0.1241420E+03  0.7546771E-02  0.1237038E+00
         21   -1    0    0  503  502  0.00000000000E+00  0.00000000000E+00  0.42498018313E+03  0.42498018313E+03  0.00000000000E+00 0. -1.
         -3   -1    0    0    0  501 -0.00000000000E+00 -0.00000000000E+00 -0.62469127627E+02  0.62469127627E+02  0.00000000000E+00 0.  1.
         23    2    1    2    0    0  0.50296983291E+02  0.59065851064E+02  0.78386061999E+02  0.14338538389E+03  0.91632048476E+02 0.  0.
         23    2    1    2    0    0 -0.91490292622E+01 -0.89697131510E+02  0.17690922692E+03  0.21956526456E+03  0.93716330996E+02 0.  0.
        -13    1    4    4    0    0  0.30729068369E+02 -0.31037407921E+02  0.21386734212E+02  0.48631149828E+02  0.00000000000E+00 0.  1.
         13    1    4    4    0    0 -0.39878097632E+02 -0.58659723589E+02  0.15552249270E+03  0.17093411473E+03  0.00000000000E+00 0. -1.
        -13    1    3    3    0    0  0.33340851835E+02 -0.81020938003E+01 -0.53307904584E+01  0.34722811694E+02  0.00000000000E+00 0.  1.
         13    1    3    3    0    0  0.16956131456E+02  0.67167944864E+02  0.83716852457E+02  0.10866257220E+03  0.00000000000E+00 0. -1.
         21    1    1    2  503  501 -0.19293185803E+02  0.22020213506E+02  0.23475584573E+02  0.37526256040E+02  0.00000000000E+00 0.  1.
         -3    1    1    2    0  502 -0.21854768226E+02  0.86110669402E+01  0.83740182018E+02  0.86972406271E+02  0.00000000000E+00 0.  1.
<scales pt_clust_5="13000.00000" pt_clust_6="13000.00000" pt_clust_7="13000.00000" pt_clust_8="13000.00000" pt_clust_9="31.16665" pt_clust_10="23.49003"></scales>
<clustering>
<clus scale="   23.490">  1 10  2 -1</clus>
<clus scale="   31.167">  2  9  1 -1</clus>
<clus scale="   91.632">  7  8 -1 -1</clus>
<clus scale="   93.716">  5  6 -1 -1</clus>
<clus scale="  122.576">  2  7  1 -1</clus>
<clus scale="   23.490">  1  5  2 -1</clus>
</clustering>
</event>
<event>
10    2  0.3544405E-006  0.1492562E+03  0.7546771E-02  0.1202382E+00
          2   -1    0    0  503    0 -0.00000000000E+00  0.00000000000E+00  0.42856766075E+02  0.42856766075E+02  0.00000000000E+00 0. -1.
         21   -1    0    0  501  502  0.00000000000E+00 -0.00000000000E+00 -0.95202195871E+03  0.95202195871E+03  0.00000000000E+00 0.  1.
         23    2    1    2    0    0  0.50972034937E+02 -0.14913228159E+03 -0.39624611085E+03  0.43543829035E+03  0.88073483998E+02 0.  0.
         23    2    1    2    0    0 -0.38973018171E+02  0.71625060785E+02 -0.22263041679E+03  0.25476863355E+03  0.93240059440E+02 0.  0.
        -11    1    3    3    0    0  0.48313127364E+02 -0.30919234158E+02 -0.18075569576E+03  0.18963854794E+03  0.00000000000E+00 0.  1.
         11    1    3    3    0    0  0.26589075733E+01 -0.11821304743E+03 -0.21549041509E+03  0.24579974240E+03  0.00000000000E+00 0. -1.
        -11    1    4    4    0    0 -0.32518326502E+01  0.55665142277E+02 -0.20390930451E+03  0.21139580636E+03  0.00000000000E+00 0.  1.
         11    1    4    4    0    0 -0.35721185521E+02  0.15959918508E+02 -0.18721112279E+02  0.43372827194E+02  0.00000000000E+00 0. -1.
         21    1    1    2  503  502 -0.37113576572E+01  0.55020160124E+02 -0.11264514755E+03  0.12541898366E+03  0.00000000000E+00 0. -1.
          2    1    1    2  501    0 -0.82876591091E+01  0.22487060678E+02 -0.17764351745E+03  0.17925281722E+03  0.00000000000E+00 0. -1.
<scales pt_clust_5="13000.00000" pt_clust_6="13000.00000" pt_clust_7="13000.00000" pt_clust_8="13000.00000" pt_clust_9="58.69253" pt_clust_10="23.96567"></scales>
<clustering>
<clus scale="   23.966">  2 10  1 -1</clus>
<clus scale="   58.693">  1  9  2 -1</clus>
<clus scale="   88.073">  5  6 -1 -1</clus>
<clus scale="   93.240">  7  8 -1 -1</clus>
<clus scale="  146.084">  1  5  2 -1</clus>
<clus scale="   23.966">  2  5  1 -1</clus>
</clustering>
</event>
<event>
10    2  0.3544405E-006  0.1870703E+03  0.7546771E-02  0.1180478E+00
          2   -1    0    0  503    0 -0.00000000000E+00  0.00000000000E+00  0.93975946287E+03  0.93975946287E+03  0.00000000000E+00 0. -1.
         21   -1    0    0  501  502  0.00000000000E+00 -0.00000000000E+00 -0.20178335422E+03  0.20178335422E+03  0.00000000000E+00 0.  1.
         23    2    1    2    0    0  0.19447863578E+02 -0.81235501326E+02  0.24744211545E+03  0.27567835971E+03  0.88280980055E+02 0.  0.
         23    2    1    2    0    0  0.91835065510E+02  0.11183001384E+03 -0.24976312000E+02  0.17222152811E+03  0.89982261204E+02 0.  0.
        -11    1    4    4    0    0  0.98282994689E+02  0.55527827650E+02 -0.84961627491E+01  0.11320367251E+03  0.00000000000E+00 0.  1.
         11    1    4    4    0    0 -0.64479291789E+01  0.56302186187E+02 -0.16480149251E+02  0.59017855599E+02  0.00000000000E+00 0. -1.
        -13    1    3    3    0    0 -0.31590567354E+01 -0.42973694293E+02  0.21835117325E+03  0.22256224500E+03  0.00000000000E+00 0. -1.
         13    1    3    3    0    0  0.22606920314E+02 -0.38261807033E+02  0.29090942202E+02  0.53116114709E+02  0.00000000000E+00 0.  1.
         21    1    1    2  503  502 -0.13345207516E+03 -0.53111042230E+02  0.59290061851E+03  0.61005031153E+03  0.00000000000E+00 0. -1.
          2    1    1    2  501    0  0.22169146075E+02  0.22516529719E+02 -0.77390313309E+02  0.83592617750E+02  0.00000000000E+00 0. -1.
<scales pt_clust_5="13000.00000" pt_clust_6="13000.00000" pt_clust_7="13000.00000" pt_clust_8="13000.00000" pt_clust_9="164.00764" pt_clust_10="31.59850"></scales>
<clustering>
<clus scale="   31.598">  2 10  1 -1</clus>
<clus scale="   88.281">  7  8 -1 -1</clus>
<clus scale="   89.982">  5  6 -1 -1</clus>
<clus scale="  120.246">  1  7  2 -1</clus>
<clus scale="  164.008">  1  9  2 -1</clus>
<clus scale="   31.598">  2  5  1 -1</clus>
</clustering>
</event>
<event>
10    2  0.3544405E-006  0.1908396E+03  0.7546771E-02  0.1184371E+00
         -1   -1    0    0    0  501 -0.00000000000E+00  0.00000000000E+00  0.70415219433E+03  0.70415219433E+03  0.00000000000E+00 0.  1.
         21   -1    0    0  503  502  0.00000000000E+00 -0.00000000000E+00 -0.37344137958E+03  0.37344137958E+03  0.00000000000E+00 0.  1.
         23    2    1    2    0    0  0.28412426537E+02  0.51034331161E+02  0.30146581275E+03  0.32190268628E+03  0.96581231297E+02 0.  0.
         23    2    1    2    0    0 -0.17912630491E+03 -0.31773659920E+01  0.12980877748E+03  0.23905734167E+03  0.90563597168E+02 0.  0.
        -11    1    3    3    0    0  0.33344163948E+02 -0.96359748901E+01  0.37867958635E+02  0.51367962513E+02  0.00000000000E+00 0. -1.
         11    1    3    3    0    0 -0.49317374115E+01  0.60670306051E+02  0.26359785412E+03  0.27053472377E+03  0.00000000000E+00 0.  1.
        -13    1    4    4    0    0 -0.44931307423E+02 -0.31882012523E+02  0.70717286206E+02  0.89644964596E+02  0.00000000000E+00 0.  1.
         13    1    4    4    0    0 -0.13419499749E+03  0.28704646531E+02  0.59091491276E+02  0.14941237708E+03  0.00000000000E+00 0. -1.
         21    1    1    2  503  501 -0.15124736045E+02 -0.30381524304E+02  0.18384024500E+03  0.18694659757E+03  0.00000000000E+00 0.  1.
         -1    1    1    2    0  502  0.16583861442E+03 -0.17475440865E+02 -0.28440402048E+03  0.32968694838E+03  0.00000000000E+00 0.  1.
<scales pt_clust_5="13000.00000" pt_clust_6="13000.00000" pt_clust_7="13000.00000" pt_clust_8="13000.00000" pt_clust_9="33.93810" pt_clust_10="167.98216"></scales>
<clustering>
<clus scale="   33.938">  1  9  2 -1</clus>
<clus scale="   90.564">  7  8 -1 -1</clus>
<clus scale="   96.581">  5  6 -1 -1</clus>
<clus scale="  103.807">  1  5  2 -1</clus>
<clus scale="  167.982">  2 10  1 -1</clus>
<clus scale="  167.982">  2  5  1 -1</clus>
</clustering>
</event>
<event>
10    2  0.3544405E-006  0.9967419E+02  0.7546771E-02  0.1282295E+00
         21   -1    0    0  501  502  0.00000000000E+00  0.00000000000E+00  0.10539787878E+03  0.10539787878E+03  0.00000000000E+00 0.  1.
          1   -1    0    0  503    0 -0.00000000000E+00 -0.00000000000E+00 -0.55998187942E+03  0.55998187942E+03  0.00000000000E+00 0. -1.
         23    2    1    2    0    0  0.33354226732E+02 -0.13144444815E+02 -0.29120500380E+03  0.30701634383E+03  0.90406859657E+02 0.  0.
         23    2    1    2    0    0 -0.73520400518E+02 -0.32509076813E+02  0.39132021791E+02  0.12903373076E+03  0.93039234610E+02 0.  0.
        -11    1    4    4    0    0 -0.74046283448E+02 -0.52523794312E+02  0.52584041775E+02  0.10491273760E+03  0.00000000000E+00 0.  1.
         11    1    4    4    0    0  0.52588292956E+00  0.20014717498E+02 -0.13452019984E+02  0.24120993160E+02  0.00000000000E+00 0. -1.
        -13    1    3    3    0    0  0.18097895420E+02  0.36017292321E+02 -0.18025863586E+03  0.18471046253E+03  0.00000000000E+00 0.  1.
         13    1    3    3    0    0  0.15256331312E+02 -0.49161737136E+02 -0.11094636793E+03  0.12230588130E+03  0.00000000000E+00 0. -1.
         21    1    1    2  503  502 -0.12974902473E+02 -0.18540127891E+02 -0.28488098270E+02  0.36382085969E+02  0.00000000000E+00 0. -1.
          1    1    1    2  501    0  0.53141076259E+02  0.64193649519E+02 -0.17402292036E+03  0.19294759764E+03  0.00000000000E+00 0. -1.
<scales pt_clust_5="13000.00000" pt_clust_6="13000.00000" pt_clust_7="13000.00000" pt_clust_8="13000.00000" pt_clust_9="22.62928" pt_clust_10="75.49324"></scales>
<clustering>
<clus scale="   22.629">  2  9  1 -1</clus>
<clus scale="   75.493">  1 10  2 -1</clus>
<clus scale="   90.407">  7  8 -1 -1</clus>
<clus scale="   93.039">  5  6 -1 -1</clus>
<clus scale="   97.222">  2  7  1 -1</clus>
<clus scale="   75.493">  1  5  2 -1</clus>
</clustering>
</event>
<event>
10    2  0.3544405E-006  0.1133484E+03  0.7546771E-02  0.1258402E+00
          1   -1    0    0  503    0 -0.00000000000E+00  0.00000000000E+00  0.19976979331E+03  0.19976979331E+03  0.00000000000E+00 0. -1.
         21   -1    0    0  501  502  0.00000000000E+00 -0.00000000000E+00 -0.11950907751E+03  0.11950907751E+03  0.00000000000E+00 0. -1.
         23    2    1    2    0    0  0.64441798006E+02 -0.20411253941E+01  0.28633818792E+02  0.10329637601E+03  0.75454186073E+02 0.  0.
         23    2    1    2    0    0 -0.10368163216E+03 -0.27617528886E+02 -0.83962379604E+01  0.12424258112E+03  0.62073451687E+02 0.  0.
        -11    1    4    4    0    0 -0.81777699320E+02 -0.39611967171E+02  0.12446186020E+02  0.91714816664E+02  0.00000000000E+00 0. -1.
         11    1    4    4    0    0 -0.21903932835E+02  0.11994438285E+02 -0.20842423980E+02  0.32527764460E+02  0.00000000000E+00 0.  1.
        -13    1    3    3    0    0  0.36433026249E+02  0.31567435025E+02 -0.44995887651E+01  0.48416057820E+02  0.00000000000E+00 0.  1.
         13    1    3    3    0    0  0.28008771757E+02 -0.33608560420E+02  0.33133407557E+02  0.54880318195E+02  0.00000000000E+00 0. -1.
         21    1    1    2  503  502  0.31929748417E+02 -0.23622379506E+01  0.13397126344E+02  0.34706944498E+02  0.00000000000E+00 0. -1.
          1    1    1    2  501    0  0.73100857315E+01  0.32020892231E+02  0.46626008632E+02  0.57032969181E+02  0.00000000000E+00 0. -1.
<scales pt_clust_5="13000.00000" pt_clust_6="13000.00000" pt_clust_7="13000.00000" pt_clust_8="13000.00000" pt_clust_9="32.01701" pt_clust_10="35.51098"></scales>
<clustering>
<clus scale="   32.017">  1  9  2 -1</clus>
<clus scale="   35.511">  2 10  1 -1</clus>
<clus scale="   62.073">  5  6 -1 -1</clus>
<clus scale="   75.454">  7  8 -1 -1</clus>
<clus scale="  104.917">  2  5  1 -1</clus>
<clus scale="   35.511">  2  5  1 -1</clus>
</clustering>
</event>
<event>
10    2  0.3544405E-006  0.9321305E+02  0.7546771E-02  0.1295682E+00
          3   -1    0    0  503    0 -0.00000000000E+00  0.00000000000E+00  0.53562765598E+02  0.53562765598E+02  0.00000000000E+00 0. -1.
         21   -1    0    0  501  502  0.00000000000E+00 -0.00000000000E+00 -0.79446801610E+03  0.79446801610E+03  0.00000000000E+00 0. -1.
         23    2    1    2    0    0 -0.18102765961E+02 -0.48513183924E+02 -0.13937141719E+03  0.17493218579E+03  0.92171788239E+02 0.  0.
         23    2    1    2    0    0 -0.57929125734E+01 -0.31434653927E+02 -0.19970241877E+03  0.22194755378E+03  0.91421908009E+02 0.  0.
        -13    1    4    4    0    0  0.28296132156E+02  0.20182393267E+02 -0.64566243897E+02  0.73326665981E+02  0.00000000000E+00 0.  1.
         13    1    4    4    0    0 -0.34089044729E+02 -0.51617047194E+02 -0.13513617487E+03  0.14862088780E+03  0.00000000000E+00 0. -1.
        -13    1    3    3    0    0 -0.20436878844E+02  0.15209872174E+02 -0.92091926448E+02  0.95550662715E+02  0.00000000000E+00 0.  1.
         13    1    3    3    0    0  0.23341128828E+01 -0.63723056098E+02 -0.47279490742E+02  0.79381523078E+02  0.00000000000E+00 0. -1.
         21    1    1    2  503  502 -0.14879266189E+02  0.30987250793E+02  0.90534204460E+01  0.35546683330E+02  0.00000000000E+00 0. -1.
          3    1    1    2  501    0  0.38774944724E+02  0.48960587058E+02 -0.41088483499E+03  0.41560435879E+03  0.00000000000E+00 0. -1.
<scales pt_clust_5="13000.00000" pt_clust_6="13000.00000" pt_clust_7="13000.00000" pt_clust_8="13000.00000" pt_clust_9="34.37444" pt_clust_10="63.63415"></scales>
<clustering>
<clus scale="   34.374">  1  9  2 -1</clus>
<clus scale="   63.634">  2 10  1 -1</clus>
<clus scale="   91.422">  5  6 -1 -1</clus>
<clus scale="   92.172">  7  8 -1 -1</clus>
<clus scale="   92.472">  2  5  1 -1</clus>
<clus scale="   63.634">  2  5  1 -1</clus>
</clustering>
</event>
<event>
10    2  0.3544405E-006  0.9962871E+02  0.7546771E-02  0.1283452E+00
         -1   -1    0    0    0  501 -0.00000000000E+00  0.00000000000E+00  0.11959909606E+03  0.11959909606E+03  0.00000000000E+00 0.  1.
         21   -1    0    0  503  502  0.00000000000E+00 -0.00000000000E+00 -0.22207957309E+03  0.22207957309E+03  0.00000000000E+00 0.  1.
         23    2    1    2    0    0 -0.86756864541E+01 -0.43725409010E+01  0.32946784109E+02  0.96928034520E+02  0.90637556473E+02 0.  0.
         23    2    1    2    0    0  0.19527753302E+02  0.22266647228E+02 -0.68612235383E+02  0.12105488580E+03  0.95233973999E+02 0.  0.
        -11    1    3    3    0    0 -0.27917806956E+02  0.33409013856E+02  0.50503210369E+00  0.43541029036E+02  0.00000000000E+00 0. -1.
         11    1    3    3    0    0  0.19242120502E+02 -0.37781554757E+02  0.32441752006E+02  0.53387005484E+02  0.00000000000E+00 0.  1.
        -13    1    4    4    0    0 -0.10831464322E+02 -0.32348905094E+02 -0.10424477106E+02  0.35671305038E+02  0.00000000000E+00 0.  1.
         13    1    4    4    0    0  0.30359217624E+02  0.54615552323E+02 -0.58187758278E+02  0.85383580761E+02  0.00000000000E+00 0. -1.
         21    1    1    2  503  501 -0.67912269728E+01 -0.40468242929E+02  0.11072070335E+02  0.42501649274E+02  0.00000000000E+00 0. -1.
         -1    1    1    2    0  502 -0.40608398751E+01  0.22574136602E+02 -0.77887096095E+02  0.81194099551E+02  0.00000000000E+00 0.  1.
<scales pt_clust_5="13000.00000" pt_clust_6="13000.00000" pt_clust_7="13000.00000" pt_clust_8="13000.00000" pt_clust_9="38.66319" pt_clust_10="22.93648"></scales>
<clustering>
<clus scale="   22.936">  2 10  1 -1</clus>
<clus scale="   38.663">  1  9  2 -1</clus>
<clus scale="   90.638">  5  6 -1 -1</clus>
<clus scale="   95.234">  7  8 -1 -1</clus>
<clus scale="   95.245">  1  5  2 -1</clus>
<clus scale="   22.936">  2  5  1 -1</clus>
</clustering>
</event>
<event>
10    2  0.3544405E-006  0.1126203E+03  0.7546771E-02  0.1257268E+00
         21   -1    0    0  503  502  0.00000000000E+00  0.00000000000E+00  0.74512760185E+02  0.74512760185E+02  0.00000000000E+00 0.  1.
          2   -1    0    0  502    0 -0.00000000000E+00 -0.00000000000E+00 -0.45893973283E+03  0.45893973283E+03  0.00000000000E+00 0. -1.
         23    2    1    2    0    0  0.16778743912E+02 -0.45941051681E+02 -0.19867028086E+03  0.22268046383E+03  0.87889714987E+02 0.  0.
         23    2    1    2    0    0 -0.97320919118E+02  0.66947633333E+02 -0.15149869895E+03  0.21295061692E+03  0.91884506612E+02 0.  0.
        -11    1    4    4    0    0 -0.78317086013E+02  0.28073275979E+02 -0.37962997522E+02  0.91448695817E+02  0.00000000000E+00 0.  1.
         11    1    4    4    0    0 -0.19003833104E+02  0.38874357354E+02 -0.11353570143E+03  0.12150192110E+03  0.00000000000E+00 0. -1.
        -11    1    3    3    0    0  0.50559292447E+02 -0.11498666667E+02 -0.11383114427E+03  0.12508393499E+03  0.00000000000E+00 0.  1.
         11    1    3    3    0    0 -0.33780548534E+02 -0.34442385014E+02 -0.84839136587E+02  0.97596528839E+02  0.00000000000E+00 0. -1.
         21    1    1    2  503  501  0.30617497836E+02 -0.26300327892E+02 -0.22683553335E+02  0.46299913746E+02  0.00000000000E+00 0. -1.
          2    1    1    2  501    0  0.49924677369E+02  0.52937462403E+01 -0.11574439503E+02  0.51521498517E+02  0.00000000000E+00 0. -1.
<scales pt_clust_5="13000.00000" pt_clust_6="13000.00000" pt_clust_7="13000.00000" pt_clust_8="13000.00000" pt_clust_9="34.34376" pt_clust_10="91.62652"></scales>
<clustering>
<clus scale="   34.344">  9 10 -1 -1</clus>
<clus scale="   87.890">  7  8 -1 -1</clus>
<clus scale="   91.627">  1  9  2 -1</clus>
<clus scale="   91.885">  5  6 -1 -1</clus>
<clus scale="  109.385">  2  7  1 -1</clus>
<clus scale="   91.627">  1  5  2 -1</clus>
</clustering>
</event>
<event>
10    2  0.3544405E-006  0.1629543E+03  0.7546771E-02  0.1185495E+00
          2   -1    0    0  503    0 -0.00000000000E+00  0.00000000000E+00  0.90574072201E+03  0.90574072201E+03  0.00000000000E+00 0. -1.
         21   -1    0    0  501  502  0.00000000000E+00 -0.00000000000E+00 -0.13122075704E+03  0.13122075704E+03  0.00000000000E+00 0. -1.
         23    2    1    2    0    0 -0.41670469672E+02  0.93760379259E+02  0.18036732665E+03  0.22655253368E+03  0.90918871719E+02 0.  0.
         23    2    1    2    0    0  0.71755904868E+02 -0.14666780055E+03  0.11580062932E+03  0.22010669349E+03  0.91524953789E+02 0.  0.
        -13    1    3    3    0    0 -0.39793479901E+02 -0.51277836125E+00  0.76750302519E+02  0.86454571429E+02  0.00000000000E+00 0.  1.
         13    1    3    3    0    0 -0.18769897703E+01  0.94273157620E+02  0.10361702413E+03  0.14009796226E+03  0.00000000000E+00 0. -1.
        -13    1    4    4    0    0  0.23448267963E+02 -0.28042099993E+02  0.78671636321E+02  0.86749103764E+02  0.00000000000E+00 0.  1.
         13    1    4    4    0    0  0.48307636905E+02 -0.11862570055E+03  0.37128992996E+02  0.13335758972E+03  0.00000000000E+00 0. -1.
         21    1    1    2  503  502 -0.59834354804E+02  0.29235819132E+02  0.52551868594E+03  0.52972141018E+03  0.00000000000E+00 0. -1.
          2    1    1    2  501    0  0.29748919608E+02  0.23671602156E+02 -0.47166676941E+02  0.60580841692E+02  0.00000000000E+00 0. -1.
<scales pt_clust_5="13000.00000" pt_clust_6="13000.00000" pt_clust_7="13000.00000" pt_clust_8="13000.00000" pt_clust_9="66.15765" pt_clust_10="38.01767"></scales>
<clustering>
<clus scale="   38.018">  2 10  1 -1</clus>
<clus scale="   66.158">  1  9  2 -1</clus>
<clus scale="   90.919">  5  6 -1 -1</clus>
<clus scale="   91.525">  7  8 -1 -1</clus>
<clus scale="  162.615">  1  5  2 -1</clus>
<clus scale="   38.018">  2  5  1 -1</clus>
</clustering>
</event>
<event>
10    2  0.3544405E-006  0.1063529E+03  0.7546771E-02  0.1276416E+00
          2   -1    0    0  503    0 -0.00000000000E+00  0.00000000000E+00  0.20782203699E+03  0.20782203699E+03  0.00000000000E+00 0. -1.
         21   -1    0    0  501  502  0.00000000000E+00 -0.00000000000E+00 -0.13580299745E+03  0.13580299745E+03  0.00000000000E+00 0.  1.
         23    2    1    2    0    0  0.30945871124E+02  0.35268100594E+02  0.11991456947E+03  0.14700198620E+03  0.70912580808E+02 0.  0.
         23    2    1    2    0    0 -0.47257566054E+02 -0.47083221626E+02 -0.73451496660E+02  0.13480116869E+03  0.91247604961E+02 0.  0.
        -11    1    4    4    0    0 -0.12408078794E+02 -0.65819794256E+02 -0.23290037390E+02  0.70912844936E+02  0.00000000000E+00 0. -1.
         11    1    4    4    0    0 -0.34849487260E+02  0.18736572630E+02 -0.50161459270E+02  0.63888323756E+02  0.00000000000E+00 0.  1.
        -11    1    3    3    0    0 -0.19938081191E+02  0.11951983786E+02  0.13807942796E+02  0.27037682634E+02  0.00000000000E+00 0.  1.
         11    1    3    3    0    0  0.50883952315E+02  0.23316116808E+02  0.10610662667E+03  0.11996430357E+03  0.00000000000E+00 0. -1.
         21    1    1    2  503  502 -0.14196923447E+02  0.19416320221E+02  0.16266644194E+02  0.29037042543E+02  0.00000000000E+00 0. -1.
          2    1    1    2  501    0  0.30508618376E+02 -0.76011991890E+01  0.92893225272E+01  0.32784837004E+02  0.00000000000E+00 0. -1.
<scales pt_clust_5="13000.00000" pt_clust_6="13000.00000" pt_clust_7="13000.00000" pt_clust_8="13000.00000" pt_clust_9="24.05299" pt_clust_10="29.39511"></scales>
<clustering>
<clus scale="   24.053">  1  9  2 -1</clus>
<clus scale="   29.395">  2 10  1 -1</clus>
<clus scale="   70.913">  7  8 -1 -1</clus>
<clus scale="   89.518">  1  7  2 -1</clus>
<clus scale="   91.248">  5  6 -1 -1</clus>
<clus scale="   29.395">  2  5  1 -1</clus>
</clustering>
</event>
<event>
10    2  0.3544405E-006  0.1557484E+03  0.7546771E-02  0.1193926E+00
         21   -1    0    0  501  502  0.00000000000E+00  0.00000000000E+00  0.15211283998E+03  0.15211283998E+03  0.00000000000E+00 0. -1.
          2   -1    0    0  503    0 -0.00000000000E+00 -0.00000000000E+00 -0.99707418177E+03  0.99707418177E+03  0.00000000000E+00 0. -1.
         23    2    1    2    0    0  0.52666337917E+02  0.68380621420E+02 -0.65599752008E+03  0.66763858527E+03  0.89212564433E+02 0.  0.
         23    2    1    2    0    0 -0.68822217445E+02 -0.80571120353E+02  0.58906356713E+02  0.15172536162E+03  0.91227317445E+02 0.  0.
        -11    1    4    4    0    0  0.18274295864E+02 -0.24023216266E+02 -0.37930850659E+01  0.30421247565E+02  0.00000000000E+00 0.  1.
         11    1    4    4    0    0 -0.87096513308E+02 -0.56547904087E+02  0.62699441778E+02  0.12130411405E+03  0.00000000000E+00 0. -1.
        -13    1    3    3    0    0  0.77232059870E+02  0.48179749367E+02 -0.52517138245E+03  0.53300193271E+03  0.00000000000E+00 0. -1.
         13    1    3    3    0    0 -0.24565721953E+02  0.20200872053E+02 -0.13082613763E+03  0.13463665256E+03  0.00000000000E+00 0.  1.
         21    1    1    2  503  502  0.12242307699E+02  0.47440165632E+02 -0.27861248490E+03  0.28288753977E+03  0.00000000000E+00 0. -1.
          2    1    1    2  501    0  0.39135718290E+01 -0.35249666699E+02  0.30742306477E+02  0.46935535092E+02  0.00000000000E+00 0. -1.
<scales pt_clust_5="13000.00000" pt_clust_6="13000.00000" pt_clust_7="13000.00000" pt_clust_8="13000.00000" pt_clust_9="48.36928" pt_clust_10="35.46625"></scales>
<clustering>
<clus scale="   35.466">  1 10  2 -1</clus>
<clus scale="   48.369">  2  9  1 -1</clus>
<clus scale="   89.213">  7  8 -1 -1</clus>
<clus scale="   91.227">  5  6 -1 -1</clus>
<clus scale="  154.577">  2  7  1 -1</clus>
<clus scale="   35.466">  1  5  2 -1</clus>
</clustering>
</event>
<event>
10    2  0.3544405E-006  0.1609680E+03  0.7546771E-02  0.1201583E+00
         -3   -1    0    0    0  501 -0.00000000000E+00  0.00000000000E+00  0.24660036818E+03  0.24660036818E+03  0.00000000000E+00 0.  1.
         21   -1    0    0  503  502  0.00000000000E+00 -0.00000000000E+00 -0.30461633806E+03  0.30461633806E+03  0.00000000000E+00 0. -1.
         23    2    1    2    0    0 -0.78760670720E+02 -0.11631913212E+01  0.38804393885E+02  0.12673370475E+03  0.91384105114E+02 0.  0.
         23    2    1    2    0    0  0.15358257868E+03 -0.30631141274E+02  0.22888404977E+02  0.18366853563E+03  0.93190002728E+02 0.  0.
        -11    1    3    3    0    0 -0.81260052174E+02  0.19204544492E+02  0.55515487157E+02  0.10026953636E+03  0.00000000000E+00 0.  1.
         11    1    3    3    0    0  0.24993814535E+01 -0.20367735813E+02 -0.16711093272E+02  0.26464168382E+02  0.00000000000E+00 0. -1.
        -13    1    4    4    0    0  0.73804739007E+02 -0.55305701778E+02 -0.12313562769E+02  0.93045601600E+02  0.00000000000E+00 0.  1.
         13    1    4    4    0    0  0.79777839674E+02  0.24674560504E+02  0.35201967746E+02  0.90622934030E+02  0.00000000000E+00 0. -1.
         21    1    1    2  503  501  0.18443645622E+02 -0.58126582522E+02  0.47460599726E+01  0.61166925252E+02  0.00000000000E+00 0.  1.
         -3    1    1    2    0  502 -0.93265553582E+02  0.89920915117E+02 -0.12445482872E+03  0.17964754062E+03  0.00000000000E+00 0.  1.
<scales pt_clust_5="13000.00000" pt_clust_6="13000.00000" pt_clust_7="13000.00000" pt_clust_8="13000.00000" pt_clust_9="60.98252" pt_clust_10="131.24909"></scales>
<clustering>
<clus scale="   60.983">  1  9  2 -1</clus>
<clus scale="   91.384">  5  6 -1 -1</clus>
<clus scale="   93.190">  7  8 -1 -1</clus>
<clus scale="  118.493">  1  5  2 -1</clus>
<clus scale="  131.249">  2 10  1 -1</clus>
<clus scale="  131.249">  2  5  1 -1</clus>
</clustering>
</event>
<event>
10    2  0.3544405E-006  0.1637666E+03  0.7546771E-02  0.1184547E+00
          2   -1    0    0  503    0 -0.00000000000E+00  0.00000000000E+00  0.28817674405E+03  0.28817674405E+03  0.00000000000E+00 0. -1.
         21   -1    0    0  501  502  0.00000000000E+00 -0.00000000000E+00 -0.29236081827E+03  0.29236081827E+03  0.00000000000E+00 0.  1.
         23    2    1    2    0    0 -0.15833199882E+01  0.18460644277E+03  0.12335882349E+03  0.23987807008E+03  0.90785701293E+02 0.  0.
         23    2    1    2    0    0  0.26990525844E+02 -0.12303690527E+03 -0.81535901287E+02  0.17524499402E+03  0.90532514529E+02 0.  0.
        -11    1    3    3    0    0 -0.99164196919E+01  0.16094660367E+03  0.60549829953E+02  0.17224525108E+03  0.00000000000E+00 0. -1.
         11    1    3    3    0    0  0.83330997037E+01  0.23659839097E+02  0.62808993536E+02  0.67632818999E+02  0.00000000000E+00 0.  1.
        -11    1    4    4    0    0  0.33610045093E+02 -0.34367471223E+02  0.83735758295E+01  0.48794210533E+02  0.00000000000E+00 0. -1.
         11    1    4    4    0    0 -0.66195192484E+01 -0.88669434048E+02 -0.89909477117E+02  0.12645078349E+03  0.00000000000E+00 0.  1.
         21    1    1    2  503  502  0.35220534141E+01 -0.61278970305E+02  0.40939909935E+02  0.73780710808E+02  0.00000000000E+00 0.  1.
          2    1    1    2  501    0 -0.28929259270E+02 -0.29056719090E+00 -0.86946906357E+02  0.91633787417E+02  0.00000000000E+00 0. -1.
<scales pt_clust_5="13000.00000" pt_clust_6="13000.00000" pt_clust_7="13000.00000" pt_clust_8="13000.00000" pt_clust_9="61.31388" pt_clust_10="28.93072"></scales>
<clustering>
<clus scale="   28.931">  2 10  1 -1</clus>
<clus scale="   61.314">  1  9  2 -1</clus>
<clus scale="   90.533">  7  8 -1 -1</clus>
<clus scale="   90.786">  5  6 -1 -1</clus>
<clus scale="  163.626">  2  7  1 -1</clus>
<clus scale="   28.931">  2  5  1 -1</clus>
</clustering>
</event>
<event>
10    2  0.3544405E-006  0.2244843E+03  0.7546771E-02  0.1163068E+00
         21   -1    0    0  501  502  0.00000000000E+00  0.00000000000E+00  0.71881161282E+03  0.71881161282E+03  0.00000000000E+00 0.  1.
          1   -1    0    0  503    0 -0.00000000000E+00 -0.00000000000E+00 -0.28506356473E+03  0.28506356473E+03  0.00000000000E+00 0. -1.
         23    2    1    2    0    0 -0.51868910382E+02 -0.65500275227E+01 -0.53401795197E+02  0.11646613539E+03  0.89327052108E+02 0.  0.
         23    2    1    2    0    0  0.21981517347E+03  0.20134867758E+03  0.45471487846E+03  0.55144951866E+03  0.92037766618E+02 0.  0.
        -11    1    3    3    0    0 -0.12185026204E+02  0.36009555442E+02 -0.79866935389E+00  0.38023687610E+02  0.00000000000E+00 0.  1.
         11    1    3    3    0    0 -0.39683884178E+02 -0.42559582965E+02 -0.52603125843E+02  0.78442447783E+02  0.00000000000E+00 0. -1.
        -13    1    4    4    0    0  0.74209203524E+02  0.93125491813E+02  0.25621468237E+03  0.28253376184E+03  0.00000000000E+00 0.  1.
         13    1    4    4    0    0  0.14560596994E+03  0.10822318576E+03  0.19850019609E+03  0.26891575682E+03  0.00000000000E+00 0. -1.
         21    1    1    2  503  502 -0.13849038669E+03 -0.79125640557E+02 -0.74186600992E+02  0.17590936861E+03  0.00000000000E+00 0. -1.
          1    1    1    2  501    0 -0.29455876394E+02 -0.11567300950E+03  0.10662156582E+03  0.16005015488E+03  0.00000000000E+00 0. -1.
<scales pt_clust_5="13000.00000" pt_clust_6="13000.00000" pt_clust_7="13000.00000" pt_clust_8="13000.00000" pt_clust_9="204.74926" pt_clust_10="122.09323"></scales>
<clustering>
<clus scale="   89.327">  5  6 -1 -1</clus>
<clus scale="   92.038">  7  8 -1 -1</clus>
<clus scale="  103.502">  2  5  1 -1</clus>
<clus scale="  122.093">  1 10  2 -1</clus>
<clus scale="  204.749">  2  9  1 -1</clus>
<clus scale="  122.093">  1  5  2 -1</clus>
</clustering>
</event>
<event>
10    2  0.3544405E-006  0.1760063E+03  0.7546771E-02  0.1185803E+00
          3   -1    0    0  503    0 -0.00000000000E+00  0.00000000000E+00  0.84374634338E+03  0.84374634338E+03  0.00000000000E+00 0. -1.
         21   -1    0    0  501  502  0.00000000000E+00 -0.00000000000E+00 -0.18872127643E+03  0.18872127643E+03  0.00000000000E+00 0. -1.
         23    2    1    2    0    0 -0.59288265538E+02  0.46846165271E+02  0.47815852458E+03  0.49299671081E+03  0.93276581252E+02 0.  0.
         23    2    1    2    0    0 -0.85110067695E+00 -0.17582784801E+03  0.17748505104E+03  0.26669570882E+03  0.93324708696E+02 0.  0.
        -11    1    3    3    0    0 -0.27717751973E+02 -0.20770445281E+02  0.70321409921E+02  0.78388684546E+02  0.00000000000E+00 0.  1.
         11    1    3    3    0    0 -0.31570513566E+02  0.67616610552E+02  0.40783711466E+03  0.41460802626E+03  0.00000000000E+00 0. -1.
        -13    1    4    4    0    0  0.49185494691E+01 -0.13137253543E+03  0.17870346799E+03  0.22185099654E+03  0.00000000000E+00 0. -1.
         13    1    4    4    0    0 -0.57696501460E+01 -0.44455312582E+02 -0.12184169550E+01  0.44844712280E+02  0.00000000000E+00 0.  1.
         21    1    1    2  503  502 -0.20506996902E+02  0.42027572444E+01  0.94217851798E+02  0.96515302869E+02  0.00000000000E+00 0. -1.
          3    1    1    2  501    0  0.80646363117E+02  0.12477892550E+03 -0.94836360460E+02  0.17625989730E+03  0.00000000000E+00 0. -1.
<scales pt_clust_5="13000.00000" pt_clust_6="13000.00000" pt_clust_7="13000.00000" pt_clust_8="13000.00000" pt_clust_9="20.93323" pt_clust_10="149.22703"></scales>
<clustering>
<clus scale="   20.933">  1  9  2 -1</clus>
<clus scale="   93.277">  5  6 -1 -1</clus>
<clus scale="   93.325">  7  8 -1 -1</clus>
<clus scale="  128.171">  1  5  2 -1</clus>
<clus scale="  149.227">  2 10  1 -1</clus>
<clus scale="  149.227">  2  5  1 -1</clus>
</clustering>
</event>
<event>
10    2  0.3544405E-006  0.1462607E+03  0.7546771E-02  0.1205209E+00
          3   -1    0    0  503    0 -0.00000000000E+00  0.00000000000E+00  0.30905664484E+03  0.30905664484E+03  0.00000000000E+00 0. -1.
         21   -1    0    0  501  502  0.00000000000E+00 -0.00000000000E+00 -0.32979139467E+03  0.32979139467E+03  0.00000000000E+00 0. -1.
         23    2    1    2    0    0 -0.71663898302E+02  0.10267705378E+03  0.10330971271E+03  0.18566415241E+03  0.90110981900E+02 0.  0.
         23    2    1    2    0    0  0.84013078698E+02 -0.77237355070E+02 -0.10812399743E+03  0.18104009705E+03  0.89782579103E+02 0.  0.
        -13    1    4    4    0    0  0.82385073915E+02 -0.18274623946E+02 -0.49283803187E+02  0.97724897242E+02  0.00000000000E+00 0. -1.
         13    1    4    4    0    0  0.16280047831E+01 -0.58962731124E+02 -0.58840194239E+02  0.83315199810E+02  0.00000000000E+00 0.  1.
        -13    1    3    3    0    0 -0.89182389153E+02  0.64480213478E+02  0.88109884728E+02  0.14097711960E+03  0.00000000000E+00 0. -1.
         13    1    3    3    0    0  0.17518490852E+02  0.38196840299E+02  0.15199827981E+02  0.44687032808E+02  0.00000000000E+00 0.  1.
         21    1    1    2  503  502  0.21624856957E+02 -0.16499301265E+00  0.12404360406E+03  0.12591456377E+03  0.00000000000E+00 0. -1.
          3    1    1    2  501    0 -0.33974037354E+02 -0.25274705694E+02 -0.13996406917E+03  0.14622922629E+03  0.00000000000E+00 0. -1.
<scales pt_clust_5="13000.00000" pt_clust_6="13000.00000" pt_clust_7="13000.00000" pt_clust_8="13000.00000" pt_clust_9="21.62549" pt_clust_10="42.05137"></scales>
<clustering>
<clus scale="   21.625">  1  9  2 -1</clus>
<clus scale="   42.051">  2 10  1 -1</clus>
<clus scale="   89.783">  5  6 -1 -1</clus>
<clus scale="   90.111">  7  8 -1 -1</clus>
<clus scale="  146.059">  2  5  1 -1</clus>
<clus scale="   42.051">  2  5  1 -1</clus>
</clustering>
</event>
<event>
10    2  0.3544405E-006  0.1962582E+03  0.7546771E-02  0.1152964E+00
         -1   -1    0    0    0  501 -0.00000000000E+00  0.00000000000E+00  0.39374681741E+03  0.39374681741E+03  0.00000000000E+00 0.  1.
         21   -1    0    0  503  502  0.00000000000E+00 -0.00000000000E+00 -0.25443867863E+03  0.25443867863E+03  0.00000000000E+00 0. -1.
         23    2    1    2    0    0  0.10853527634E+03 -0.44229362071E+02  0.13258604228E+03  0.19890109167E+03  0.90809927772E+02 0.  0.
         23    2    1    2    0    0 -0.25113334720E+03  0.34121870018E+02 -0.23461987864E+02  0.27014273441E+03  0.90522770564E+02 0.  0.
        -11    1    4    4    0    0 -0.58755635985E+02  0.23665409054E+02 -0.42900181381E+02  0.76502953591E+02  0.00000000000E+00 0.  1.
         11    1    4    4    0    0 -0.19237771122E+03  0.10456460964E+02  0.19438193517E+02  0.19363978082E+03  0.00000000000E+00 0. -1.
        -11    1    3    3    0    0  0.48220671551E+02  0.22226097119E+02  0.76331693031E+02  0.92982578577E+02  0.00000000000E+00 0. -1.
         11    1    3    3    0    0  0.60314604791E+02 -0.66455459190E+02  0.56254349250E+02  0.10591851310E+03  0.00000000000E+00 0.  1.
         21    1    1    2  503  501  0.55735025104E+02 -0.45794234287E+02  0.22485319277E+02  0.75558550147E+02  0.00000000000E+00 0.  1.
         -1    1    1    2    0  502  0.86863045759E+02  0.55901726340E+02  0.76987650867E+01  0.10358311981E+03  0.00000000000E+00 0.  1.
<scales pt_clust_5="13000.00000" pt_clust_6="13000.00000" pt_clust_7="13000.00000" pt_clust_8="13000.00000" pt_clust_9="72.13532" pt_clust_10="107.43464"></scales>
<clustering>
<clus scale="   72.135">  1  9  2 -1</clus>
<clus scale="   90.523">  5  6 -1 -1</clus>
<clus scale="   90.810">  7  8 -1 -1</clus>
<clus scale="  107.435">  2 10  1 -1</clus>
<clus scale="  196.125">  2  5  1 -1</clus>
<clus scale="  107.435">  2  5  1 -1</clus>
</clustering>
</event>
<event>
10    2  0.3544405E-006  0.9557858E+02  0.7546771E-02  0.1291050E+00
          1   -1    0    0  503    0 -0.00000000000E+00  0.00000000000E+00  0.38335927522E+03  0.38335927522E+03  0.00000000000E+00 0. -1.
         21   -1    0    0  501  502  0.00000000000E+00 -0.00000000000E+00 -0.11682181749E+03  0.11682181749E+03  0.00000000000E+00 0. -1.
         23    2    1    2    0    0  0.17495636875E+02 -0.91288588822E+01  0.24020556107E+03  0.25809717546E+03  0.92336379824E+02 0.  0.
         23    2    1    2    0    0 -0.30871691671E+02  0.21481290438E+02 -0.16754272291E+02  0.10302006870E+03  0.94434748531E+02 0.  0.
        -11    1    3    3    0    0  0.82704007708E+01  0.39536594455E+02  0.14819805372E+03  0.15360405254E+03  0.00000000000E+00 0.  1.
         11    1    3    3    0    0  0.92252361044E+01 -0.48665453337E+02  0.92007507345E+02  0.10449312292E+03  0.00000000000E+00 0. -1.
        -11    1    4    4    0    0  0.17542045006E+02  0.36344665343E+02 -0.30451613404E+02  0.50556491183E+02  0.00000000000E+00 0.  1.
         11    1    4    4    0    0 -0.48413736678E+02 -0.14863374904E+02  0.13697341112E+02  0.52463577520E+02  0.00000000000E+00 0. -1.
         21    1    1    2  503  502 -0.51737921595E+02  0.16523033261E+00  0.50556490637E+02  0.72338085250E+02  0.00000000000E+00 0. -1.
          1    1    1    2  501    0  0.65113976391E+02 -0.12517661889E+02 -0.74703216854E+01  0.66725763291E+02  0.00000000000E+00 0. -1.
<scales pt_clust_5="13000.00000" pt_clust_6="13000.00000" pt_clust_7="13000.00000" pt_clust_8="13000.00000" pt_clust_9="51.73819" pt_clust_10="61.63358"></scales>
<clustering>
<clus scale="   51.738">  1  9  2 -1</clus>
<clus scale="   61.634">  2 10  1 -1</clus>
<clus scale="   92.336">  5  6 -1 -1</clus>
<clus scale="   93.506">  1  5  2 -1</clus>
<clus scale="   94.435">  7  8 -1 -1</clus>
<clus scale="   61.634">  2  5  1 -1</clus>
</clustering>
</event>
<event>
10    2  0.3544405E-006  0.1431509E+03  0.7546771E-02  0.1211585E+00
         21   -1    0    0  501  502  0.00000000000E+00  0.00000000000E+00  0.17179241857E+03  0.17179241857E+03  0.00000000000E+00 0.  1.
          1   -1    0    0  503    0 -0.00000000000E+00 -0.00000000000E+00 -0.63860500210E+03  0.63860500210E+03  0.00000000000E+00 0. -1.
         23    2    1    2    0    0 -0.80703815993E+02 -0.23638705551E+02 -0.13238283063E+03  0.17587016063E+03  0.79581437767E+02 0.  0.
         23    2    1    2    0    0  0.78072906770E+02  0.19223472400E+03  0.24512471204E+02  0.22804721298E+03  0.91406248271E+02 0.  0.
        -11    1    4    4    0    0  0.68252218675E+02  0.51232433608E+02  0.71318326660E+01  0.85638721643E+02  0.00000000000E+00 0. -1.
         11    1    4    4    0    0  0.98206880951E+01  0.14100229039E+03  0.17380638538E+02  0.14240849134E+03  0.00000000000E+00 0.  1.
        -13    1    3    3    0    0 -0.46059181001E+02  0.50345810109E+01 -0.12087343624E+03  0.12944953746E+03  0.00000000000E+00 0. -1.
         13    1    3    3    0    0 -0.34644634992E+02 -0.28673286562E+02 -0.11509394393E+02  0.46420623168E+02  0.00000000000E+00 0.  1.
         21    1    1    2  503  502  0.11459692593E+02 -0.74925196739E+02 -0.25615465955E+03  0.26713352330E+03  0.00000000000E+00 0. -1.
          1    1    1    2  501    0 -0.88287833700E+01 -0.93670821709E+02 -0.10278756455E+03  0.13934652375E+03  0.00000000000E+00 0. -1.
<scales pt_clust_5="13000.00000" pt_clust_6="13000.00000" pt_clust_7="13000.00000" pt_clust_8="13000.00000" pt_clust_9="75.79650" pt_clust_10="117.84682"></scales>
<clustering>
<clus scale="   75.797">  2  9  1 -1</clus>
<clus scale="   79.581">  7  8 -1 -1</clus>
<clus scale="   91.406">  5  6 -1 -1</clus>
<clus scale="  117.847">  1 10  2 -1</clus>
<clus scale="  135.905">  2  7  1 -1</clus>
<clus scale="  117.847">  1  5  2 -1</clus>
</clustering>
</event>
<event>
10    2  0.3544405E-006  0.2047618E+03  0.7546771E-02  0.1165639E+00
         -4   -1    0    0    0  501 -0.00000000000E+00  0.00000000000E+00  0.12141955980E+03  0.12141955980E+03  0.00000000000E+00 0.  1.
         21   -1    0    0  503  502  0.00000000000E+00 -0.00000000000E+00 -0.10519645966E+04  0.10519645966E+04  0.00000000000E+00 0. -1.
         23    2    1    2    0    0  0.41420938716E+02  0.10709045676E+03 -0.17992940172E+03  0.23273466535E+03  0.92772704818E+02 0.  0.
         23    2    1    2    0    0 -0.75698811082E+02 -0.16764894827E+03 -0.14463026100E+03  0.25111206265E+03  0.91120117197E+02 0.  0.
        -11    1    3    3    0    0  0.37916135714E+01  0.10485548753E+03 -0.15627802986E+03  0.18823355762E+03  0.00000000000E+00 0. -1.
         11    1    3    3    0    0  0.37629325145E+02  0.22349692314E+01 -0.23651371869E+02  0.44501107734E+02  0.00000000000E+00 0.  1.
        -11    1    4    4    0    0 -0.96516957322E+02 -0.13987161686E+03 -0.12717905874E+03  0.21225952331E+03  0.00000000000E+00 0. -1.
         11    1    4    4    0    0  0.20818146240E+02 -0.27777331411E+02 -0.17451202256E+02  0.38852539343E+02  0.00000000000E+00 0.  1.
         21    1    1    2  503  501 -0.96969228031E+02 -0.71354587185E+02 -0.12378063676E+03  0.17267354845E+03  0.00000000000E+00 0. -1.
         -4    1    1    2    0  502  0.13124710040E+03  0.13191307869E+03 -0.48220473731E+03  0.51686387993E+03  0.00000000000E+00 0.  1.
<scales pt_clust_5="13000.00000" pt_clust_6="13000.00000" pt_clust_7="13000.00000" pt_clust_8="13000.00000" pt_clust_9="120.39314" pt_clust_10="183.36994"></scales>
<clustering>
<clus scale="   91.120">  7  8 -1 -1</clus>
<clus scale="   92.773">  5  6 -1 -1</clus>
<clus scale="  120.393">  1  9  2 -1</clus>
<clus scale="  128.519">  1  5  2 -1</clus>
<clus scale="  183.370">  2 10  1 -1</clus>
<clus scale="  183.370">  2  5  1 -1</clus>
</clustering>
</event>
<event>
10    2  0.3544405E-006  0.1093031E+03  0.7546771E-02  0.1263896E+00
         -4   -1    0    0    0  501 -0.00000000000E+00  0.00000000000E+00  0.84442361107E+02  0.84442361107E+02  0.00000000000E+00 0.  1.
         21   -1    0    0  503  502  0.00000000000E+00 -0.00000000000E+00 -0.60302435588E+03  0.60302435588E+03  0.00000000000E+00 0. -1.
         23    2    1    2    0    0 -0.13725803858E+02 -0.72377725241E+02 -0.15347467803E+02  0.11527525583E+03  0.87326439504E+02 0.  0.
         23    2    1    2    0    0  0.53352039537E+02  0.49873837627E+02 -0.43129535926E+03  0.44708809896E+03  0.92402605558E+02 0.  0.
        -13    1    4    4    0    0 -0.18834668697E+02 -0.10419991317E+02 -0.11921675201E+03  0.12114435572E+03  0.00000000000E+00 0.  1.
         13    1    4    4    0    0  0.72186708234E+02  0.60293828943E+02 -0.31207860725E+03  0.32594374324E+03  0.00000000000E+00 0. -1.
        -13    1    3    3    0    0  0.24917220784E+02 -0.70651137814E+02 -0.15921317562E+02  0.76589421717E+02  0.00000000000E+00 0.  1.
         13    1    3    3    0    0 -0.38643024641E+02 -0.17265874272E+01  0.57384975869E+00  0.38685834114E+02  0.00000000000E+00 0. -1.
         21    1    1    2  503  501 -0.85613907862E+01  0.23537558648E+02  0.17409634720E+02  0.30502613993E+02  0.00000000000E+00 0. -1.
         -4    1    1    2    0  502 -0.31064844893E+02 -0.10336710333E+01 -0.89348802436E+02  0.94600748204E+02  0.00000000000E+00 0.  1.
<scales pt_clust_5="13000.00000" pt_clust_6="13000.00000" pt_clust_7="13000.00000" pt_clust_8="13000.00000" pt_clust_9="25.04624" pt_clust_10="31.43653"></scales>
<clustering>
<clus scale="   25.046">  1  9  2 -1</clus>
<clus scale="   31.437">  2 10  1 -1</clus>
<clus scale="   87.326">  7  8 -1 -1</clus>
<clus scale="   92.403">  5  6 -1 -1</clus>
<clus scale="  105.047">  1  7  2 -1</clus>
<clus scale="   31.437">  2  5  1 -1</clus>
</clustering>
</event>
<event>
10    2  0.3544405E-006  0.1061446E+03  0.7546771E-02  0.1268652E+00
         21   -1    0    0  501  502  0.00000000000E+00  0.00000000000E+00  0.11724912752E+03  0.11724912752E+03  0.00000000000E+00 0.  1.
          2   -1    0    0  503    0 -0.00000000000E+00 -0.00000000000E+00 -0.33995615420E+03  0.33995615420E+03  0.00000000000E+00 0. -1.
         23    2    1    2    0    0  0.31561757900E+01  0.60848687087E+02 -0.23295788133E+03  0.25736970475E+03  0.90869501385E+02 0.  0.
         23    2    1    2    0    0  0.15315759416E+01 -0.27804920363E+02 -0.41408666128E+02  0.10525923282E+03  0.92678849483E+02 0.  0.
        -13    1    3    3    0    0  0.16816630928E+02  0.20064636701E+02 -0.66506395910E+01  0.27011474019E+02  0.00000000000E+00 0.  1.
         13    1    3    3    0    0 -0.13660455138E+02  0.40784050385E+02 -0.22630724174E+03  0.23035823073E+03  0.00000000000E+00 0. -1.
        -13    1    4    4    0    0  0.41737436615E+02 -0.30837641832E+02 -0.38911321147E+02  0.64861889291E+02  0.00000000000E+00 0.  1.
         13    1    4    4    0    0 -0.40205860673E+02  0.30327214690E+01 -0.24973449803E+01  0.40397343526E+02  0.00000000000E+00 0. -1.
         21    1    1    2  503  502 -0.19531045500E+02 -0.10982406351E+02 -0.12120819501E+02  0.25475267476E+02  0.00000000000E+00 0. -1.
          2    1    1    2  501    0  0.14843293768E+02 -0.22061360372E+02  0.63780340287E+02  0.69101076682E+02  0.00000000000E+00 0. -1.
<scales pt_clust_5="13000.00000" pt_clust_6="13000.00000" pt_clust_7="13000.00000" pt_clust_8="13000.00000" pt_clust_9="22.40703" pt_clust_10="28.82846"></scales>
<clustering>
<clus scale="   22.407">  1  9  2 -1</clus>
<clus scale="   28.828">  1 10  2 -1</clus>
<clus scale="   90.870">  5  6 -1 -1</clus>
<clus scale="   92.679">  7  8 -1 -1</clus>
<clus scale="  104.569">  2  5  1 -1</clus>
<clus scale="   22.407">  1  5  2 -1</clus>
</clustering>
</event>
<event>
10    2  0.3544405E-006  0.9785107E+02  0.7546771E-02  0.1293643E+00
         21   -1    0    0  501  502  0.00000000000E+00  0.00000000000E+00  0.72095137268E+02  0.72095137268E+02  0.00000000000E+00 0.  1.
          3   -1    0    0  503    0 -0.00000000000E+00 -0.00000000000E+00 -0.52579482370E+03  0.52579482370E+03  0.00000000000E+00 0. -1.
         23    2    1    2    0    0 -0.18320368936E+02 -0.98967330216E+01 -0.23543786866E+03  0.25030189850E+03  0.82380028844E+02 0.  0.
         23    2    1    2    0    0 -0.43687520488E+02 -0.17443414091E+02 -0.21564916752E+03  0.24121675754E+03  0.97304103322E+02 0.  0.
        -13    1    4    4    0    0 -0.45271022065E+02 -0.41748953698E+02 -0.20601700077E+03  0.21502428975E+03  0.00000000000E+00 0. -1.
         13    1    4    4    0    0  0.15835015771E+01  0.24305539607E+02 -0.96321667509E+01  0.26192467794E+02  0.00000000000E+00 0.  1.
        -13    1    3    3    0    0  0.27489752540E+01  0.33657698718E+02 -0.12963362062E+03  0.13395996843E+03  0.00000000000E+00 0. -1.
         13    1    3    3    0    0 -0.21069344190E+02 -0.43554431739E+02 -0.10580424804E+03  0.11634193007E+03  0.00000000000E+00 0.  1.
         21    1    1    2  503  502  0.23109578214E+02  0.21737605053E+02 -0.40726112421E+02  0.51625500594E+02  0.00000000000E+00 0. -1.
          3    1    1    2  501    0  0.38898311210E+02  0.56025420599E+01  0.38113462175E+02  0.54745804327E+02  0.00000000000E+00 0. -1.
<scales pt_clust_5="13000.00000" pt_clust_6="13000.00000" pt_clust_7="13000.00000" pt_clust_8="13000.00000" pt_clust_9="31.72658" pt_clust_10="39.75130"></scales>
<clustering>
<clus scale="   31.727">  2  9  1 -1</clus>
<clus scale="   39.751">  1 10  2 -1</clus>
<clus scale="   82.380">  7  8 -1 -1</clus>
<clus scale="   83.025">  2  7  1 -1</clus>
<clus scale="   97.304">  5  6 -1 -1</clus>
<clus scale="   39.751">  1  5  2 -1</clus>
</clustering>
</event>
<event>
10    2  0.3544405E-006  0.9669828E+02  0.7546771E-02  0.1289849E+00
         21   -1    0    0  501  502  0.00000000000E+00  0.00000000000E+00  0.67243346832E+02  0.67243346832E+02  0.00000000000E+00 0. -1.
          1   -1    0    0  503    0 -0.00000000000E+00 -0.00000000000E+00 -0.27130400282E+03  0.27130400282E+03  0.00000000000E+00 0. -1.
         23    2    1    2    0    0  0.22846784076E+02  0.42637832550E+01 -0.10376979156E+03  0.14277342319E+03  0.95267651063E+02 0.  0.
         23    2    1    2    0    0 -0.54923533904E+01  0.86134803821E+01 -0.57328984135E+02  0.10790964012E+03  0.90848885622E+02 0.  0.
        -13    1    3    3    0    0  0.43560784891E+02  0.33622242449E+01 -0.11218864769E+03  0.12039576074E+03  0.00000000000E+00 0. -1.
         13    1    3    3    0    0 -0.20714000815E+02  0.90155901010E+00  0.84188561314E+01  0.22377662455E+02  0.00000000000E+00 0.  1.
        -13    1    4    4    0    0  0.29509140680E+02 -0.27998357133E+02 -0.27951201100E+02  0.49355516700E+02  0.00000000000E+00 0. -1.
         13    1    4    4    0    0 -0.35001494070E+02  0.36611837515E+02 -0.29377783035E+02  0.58554123419E+02  0.00000000000E+00 0.  1.
         21    1    1    2  503  502  0.52668514151E+01 -0.29757075231E+02 -0.50319138905E+02  0.58696158225E+02  0.00000000000E+00 0. -1.
          1    1    1    2  501    0 -0.22621282100E+02  0.16879811594E+02  0.73572586166E+01  0.29168128114E+02  0.00000000000E+00 0. -1.
<scales pt_clust_5="13000.00000" pt_clust_6="13000.00000" pt_clust_7="13000.00000" pt_clust_8="13000.00000" pt_clust_9="28.50906" pt_clust_10="28.22500"></scales>
<clustering>
<clus scale="   28.225">  1 10  2 -1</clus>
<clus scale="   28.509">  2  9  1 -1</clus>
<clus scale="   90.849">  7  8 -1 -1</clus>
<clus scale="   92.348">  1  7  2 -1</clus>
<clus scale="   95.268">  5  6 -1 -1</clus>
<clus scale="   28.225">  1  5  2 -1</clus>
</clustering>
</event>
<event>
10    2  0.3544405E-006  0.1023281E+03  0.7546771E-02  0.1277877E+00
          3   -1    0    0  503    0 -0.00000000000E+00  0.00000000000E+00  0.20840407602E+03  0.20840407602E+03  0.00000000000E+00 0. -1.
         21   -1    0    0  501  502  0.00000000000E+00 -0.00000000000E+00 -0.33923853033E+03  0.33923853033E+03  0.00000000000E+00 0.  1.
         23    2    1    2    0    0 -0.59047547622E+01 -0.55339373325E+01  0.11818231822E+02  0.87895963002E+02  0.86721041953E+02 0.  0.
         23    2    1    2    0    0 -0.51030938720E+01  0.73662402074E+02 -0.14271388429E+03  0.18509274163E+03  0.91868815098E+02 0.  0.
        -13    1    3    3    0    0 -0.80272847635E+01 -0.42595230452E+02  0.23075379963E+02  0.49104624206E+02  0.00000000000E+00 0. -1.
         13    1    3    3    0    0  0.21225300013E+01  0.37061293120E+02 -0.11257148141E+02  0.38791338796E+02  0.00000000000E+00 0.  1.
        -13    1    4    4    0    0 -0.27163475704E+02  0.71581978091E+02 -0.54093105248E+02  0.93743789316E+02  0.00000000000E+00 0.  1.
         13    1    4    4    0    0  0.22060381832E+02  0.20804239830E+01 -0.88620779041E+02  0.91348952312E+02  0.00000000000E+00 0. -1.
         21    1    1    2  503  502  0.70075108579E+02 -0.36739182310E+02  0.11622945155E+03  0.14060431632E+03  0.00000000000E+00 0. -1.
          3    1    1    2  501    0 -0.59067259945E+02 -0.31389282432E+02 -0.11616825340E+03  0.13404958541E+03  0.00000000000E+00 0. -1.
<scales pt_clust_5="13000.00000" pt_clust_6="13000.00000" pt_clust_7="13000.00000" pt_clust_8="13000.00000" pt_clust_9="77.03822" pt_clust_10="66.88967"></scales>
<clustering>
<clus scale="   66.890">  2 10  1 -1</clus>
<clus scale="   77.038">  1  9  2 -1</clus>
<clus scale="   86.721">  5  6 -1 -1</clus>
<clus scale="   91.869">  7  8 -1 -1</clus>
<clus scale="   97.733">  1  5  2 -1</clus>
<clus scale="   66.890">  2  5  1 -1</clus>
</clustering>
</event>
<event>
10    2  0.3544405E-006  0.1873254E+03  0.7546771E-02  0.1181588E+00
         21   -1    0    0  501  502  0.00000000000E+00  0.00000000000E+00  0.52140354380E+02  0.52140354380E+02  0.00000000000E+00 0.  1.
          2   -1    0    0  503    0 -0.00000000000E+00 -0.00000000000E+00 -0.15594720375E+04  0.15594720375E+04  0.00000000000E+00 0. -1.
         23    2    1    2    0    0 -0.35858292999E+02  0.74049010288E+02 -0.34262290814E+03  0.36461841353E+03  0.93739304467E+02 0.  0.
         23    2    1    2    0    0  0.14562783846E+03  0.33129592087E+02 -0.45018014559E+03  0.48303273835E+03  0.91397076652E+02 0.  0.
        -11    1    4    4    0    0  0.78112083830E+02 -0.22127961003E+02 -0.28355464075E+03  0.29494809473E+03  0.00000000000E+00 0.  1.
         11    1    4    4    0    0  0.67515754633E+02  0.55257553090E+02 -0.16662550485E+03  0.18808464361E+03  0.00000000000E+00 0. -1.
        -13    1    3    3    0    0 -0.98835453267E+01  0.87185661143E+02 -0.30302659855E+03  0.31547447346E+03  0.00000000000E+00 0. -1.
         13    1    3    3    0    0 -0.25974747673E+02 -0.13136650855E+02 -0.39596309590E+02  0.49143940069E+02  0.00000000000E+00 0.  1.
         21    1    1    2  503  502  0.46163405081E+02 -0.25641063995E+02 -0.40072060193E+03  0.40418501326E+03  0.00000000000E+00 0.  1.
          2    1    1    2  501    0 -0.15593295055E+03 -0.81537538381E+02 -0.31380802742E+03  0.35977622670E+03  0.00000000000E+00 0. -1.
<scales pt_clust_5="13000.00000" pt_clust_6="13000.00000" pt_clust_7="13000.00000" pt_clust_8="13000.00000" pt_clust_9="52.80648" pt_clust_10="163.51567"></scales>
<clustering>
<clus scale="   52.806">  2  9  1 -1</clus>
<clus scale="   91.397">  5  6 -1 -1</clus>
<clus scale="   93.739">  7  8 -1 -1</clus>
<clus scale="  116.808">  2  7  1 -1</clus>
<clus scale="  163.516">  1 10  2 -1</clus>
<clus scale="  163.516">  1  5  2 -1</clus>
</clustering>
</event>
<event>
10    2  0.3544405E-006  0.1383226E+03  0.7546771E-02  0.1217193E+00
         21   -1    0    0  503  502  0.00000000000E+00  0.00000000000E+00  0.59903295041E+02  0.59903295041E+02  0.00000000000E+00 0. -1.
         -1   -1    0    0    0  501 -0.00000000000E+00 -0.00000000000E+00 -0.62490166695E+03  0.62490166695E+03  0.00000000000E+00 0.  1.
         23    2    1    2    0    0 -0.12151158812E+03  0.69915717705E+01 -0.43530111598E+03  0.46270933722E+03  0.98989499708E+02 0.  0.
         23    2    1    2    0    0  0.76353352752E+02 -0.67869402867E+01 -0.64289894177E+02  0.13625725953E+03  0.92503801254E+02 0.  0.
        -11    1    4    4    0    0 -0.19094301295E+02  0.12227101752E+02 -0.14770909635E+02  0.27060564123E+02  0.00000000000E+00 0.  1.
         11    1    4    4    0    0  0.95447654047E+02 -0.19014042039E+02 -0.49518984542E+02  0.10919669541E+03  0.00000000000E+00 0. -1.
        -11    1    3    3    0    0 -0.47974374102E+02 -0.40087318153E+01 -0.46743134154E+02  0.67100902317E+02  0.00000000000E+00 0. -1.
         11    1    3    3    0    0 -0.73537214023E+02  0.11000303586E+02 -0.38855798183E+03  0.39560843490E+03  0.00000000000E+00 0.  1.
         21    1    1    2  503  501  0.25391202586E+02  0.84323350977E+01 -0.56472349953E+02  0.62489549152E+02  0.00000000000E+00 0.  1.
         -1    1    1    2    0  502  0.19767032787E+02 -0.86369665815E+01 -0.89350117962E+01  0.23348816088E+02  0.00000000000E+00 0.  1.
<scales pt_clust_5="13000.00000" pt_clust_6="13000.00000" pt_clust_7="13000.00000" pt_clust_8="13000.00000" pt_clust_9="27.68265" pt_clust_10="21.57157"></scales>
<clustering>
<clus scale="   21.572">  1 10  2 -1</clus>
<clus scale="   27.683">  2  9  1 -1</clus>
<clus scale="   92.504">  5  6 -1 -1</clus>
<clus scale="   98.989">  7  8 -1 -1</clus>
<clus scale="  133.758">  1  5  2 -1</clus>
<clus scale="   21.572">  1  5  2 -1</clus>
</clustering>
</event>
<event>
10    2  0.3544405E-006  0.2108403E+03  0.7546771E-02  0.1141192E+00
         21   -1    0    0  501  502  0.00000000000E+00  0.00000000000E+00  0.76939411263E+03  0.76939411263E+03  0.00000000000E+00 0.  1.
          1   -1    0    0  503    0 -0.00000000000E+00 -0.00000000000E+00 -0.11598998931E+03  0.11598998931E+03  0.00000000000E+00 0. -1.
         23    2    1    2    0    0  0.16620155388E+03 -0.11144030492E+03  0.14864993590E+03  0.26419015312E+03  0.87508488087E+02 0.  0.
         23    2    1    2    0    0 -0.10434357940E+03  0.13676758005E+03  0.40666261006E+03  0.45082167416E+03  0.90954658795E+02 0.  0.
        -11    1    4    4    0    0 -0.10130726525E+03  0.59971476898E+02  0.24408663697E+03  0.27099451356E+03  0.00000000000E+00 0. -1.
         11    1    4    4    0    0 -0.30363141567E+01  0.76796103151E+02  0.16257597308E+03  0.17982716059E+03  0.00000000000E+00 0.  1.
        -13    1    3    3    0    0  0.89852198009E+02 -0.84994303775E+02  0.42487673852E+02  0.13077710652E+03  0.00000000000E+00 0.  1.
         13    1    3    3    0    0  0.76349355874E+02 -0.26446001150E+02  0.10616226204E+03  0.13341304659E+03  0.00000000000E+00 0. -1.
         21    1    1    2  503  502 -0.13693411655E+02 -0.23024649434E+02 -0.25944596474E+02  0.37292976423E+02  0.00000000000E+00 0. -1.
          1    1    1    2  501    0 -0.48164562826E+02 -0.23026256896E+01  0.12403617384E+03  0.13307929823E+03  0.00000000000E+00 0. -1.
<scales pt_clust_5="13000.00000" pt_clust_6="13000.00000" pt_clust_7="13000.00000" pt_clust_8="13000.00000" pt_clust_9="26.78888" pt_clust_10="49.02613"></scales>
<clustering>
<clus scale="   26.789">  2  9  1 -1</clus>
<clus scale="   49.026">  1 10  2 -1</clus>
<clus scale="   87.508">  7  8 -1 -1</clus>
<clus scale="   90.955">  5  6 -1 -1</clus>
<clus scale="  209.377">  2  7  1 -1</clus>
<clus scale="   49.026">  1  5  2 -1</clus>
</clustering>
</event>
<event>
10    2  0.3544405E-006  0.1017527E+03  0.7546771E-02  0.1276823E+00
          3   -1    0    0  503    0 -0.00000000000E+00  0.00000000000E+00  0.12255141208E+03  0.12255141208E+03  0.00000000000E+00 0. -1.
         21   -1    0    0  501  502  0.00000000000E+00 -0.00000000000E+00 -0.42999537242E+03  0.42999537242E+03  0.00000000000E+00 0. -1.
         23    2    1    2    0    0  0.49283257794E+02 -0.30923517167E+02 -0.48583727720E+02  0.11756403374E+03  0.89865566355E+02 0.  0.
         23    2    1    2    0    0 -0.10770642195E+02  0.42696559805E+02 -0.37482436713E+02  0.10717773976E+03  0.90239303440E+02 0.  0.
        -13    1    3    3    0    0 -0.17268901725E+02 -0.25096112629E+02  0.62947487268E+01  0.31107132581E+02  0.00000000000E+00 0. -1.
         13    1    3    3    0    0  0.66552159519E+02 -0.58274045382E+01 -0.54878476447E+02  0.86456901155E+02  0.00000000000E+00 0.  1.
        -13    1    4    4    0    0 -0.29228074825E+02  0.58274273793E+02 -0.32391649256E+01  0.65273758384E+02  0.00000000000E+00 0. -1.
         13    1    4    4    0    0  0.18457432630E+02 -0.15577713988E+02 -0.34243271788E+02  0.41903981375E+02  0.00000000000E+00 0.  1.
         21    1    1    2  503  502 -0.15397056727E+02  0.31388410755E+02  0.44988602898E+02  0.56976100922E+02  0.00000000000E+00 0. -1.
          3    1    1    2  501    0 -0.23115558872E+02 -0.43161453393E+02 -0.26636639881E+03  0.27082891008E+03  0.00000000000E+00 0. -1.
<scales pt_clust_5="13000.00000" pt_clust_6="13000.00000" pt_clust_7="13000.00000" pt_clust_8="13000.00000" pt_clust_9="34.96143" pt_clust_10="48.33370"></scales>
<clustering>
<clus scale="   34.961">  1  9  2 -1</clus>
<clus scale="   48.334">  2 10  1 -1</clus>
<clus scale="   89.866">  5  6 -1 -1</clus>
<clus scale="   90.239">  7  8 -1 -1</clus>
<clus scale="  101.421">  1  5  2 -1</clus>
<clus scale="   48.334">  2  5  1 -1</clus>
</clustering>
</event>
<event>
10    2  0.3544405E-006  0.1771215E+03  0.7546771E-02  0.1170935E+00
         21   -1    0    0  501  502  0.00000000000E+00  0.00000000000E+00  0.18793525295E+03  0.18793525295E+03  0.00000000000E+00 0. -1.
          1   -1    0    0  503    0 -0.00000000000E+00 -0.00000000000E+00 -0.53972183978E+03  0.53972183978E+03  0.00000000000E+00 0. -1.
         23    2    1    2    0    0 -0.99838942187E+02 -0.72188438046E+02 -0.17692474739E+03  0.23434405780E+03  0.91846536245E+02 0.  0.
         23    2    1    2    0    0  0.14774040301E+03  0.12484427145E+03 -0.23983847992E+03  0.32081370472E+03  0.89362284486E+02 0.  0.
        -11    1    3    3    0    0 -0.73242401883E+02 -0.93651583714E+02 -0.14569205082E+03  0.18804585142E+03  0.00000000000E+00 0. -1.
         11    1    3    3    0    0 -0.26596540304E+02  0.21463145668E+02 -0.31232696571E+02  0.46298206372E+02  0.00000000000E+00 0.  1.
        -13    1    4    4    0    0  0.10274543047E+03  0.10034866220E+03 -0.10898596524E+03  0.18028981698E+03  0.00000000000E+00 0.  1.
         13    1    4    4    0    0  0.44994972542E+02  0.24495609250E+02 -0.13085251468E+03  0.14052388773E+03  0.00000000000E+00 0. -1.
         21    1    1    2  503  502 -0.76859703952E+01  0.29253963177E+02 -0.28720930430E+02  0.41710434513E+02  0.00000000000E+00 0. -1.
          1    1    1    2  501    0 -0.40215490431E+02 -0.81909796583E+02  0.93697570904E+02  0.13078889571E+03  0.00000000000E+00 0. -1.
<scales pt_clust_5="13000.00000" pt_clust_6="13000.00000" pt_clust_7="13000.00000" pt_clust_8="13000.00000" pt_clust_9="30.24679" pt_clust_10="90.41180"></scales>
<clustering>
<clus scale="   30.247">  2  9  1 -1</clus>
<clus scale="   89.362">  7  8 -1 -1</clus>
<clus scale="   90.412">  1 10  2 -1</clus>
<clus scale="   91.847">  5  6 -1 -1</clus>
<clus scale="  175.846">  1  7  2 -1</clus>
<clus scale="   90.412">  1  5  2 -1</clus>
</clustering>
</event>
<event>
10    2  0.3544405E-006  0.1047865E+03  0.7546771E-02  0.1271130E+00
          2   -1    0    0  503    0 -0.00000000000E+00  0.00000000000E+00  0.66128018824E+02  0.66128018824E+02  0.00000000000E+00 0. -1.
         21   -1    0    0  501  502  0.00000000000E+00 -0.00000000000E+00 -0.47189674390E+03  0.47189674390E+03  0.00000000000E+00 0. -1.
         23    2    1    2    0    0  0.53481687154E+02  0.39937266464E+02 -0.80194048095E+02  0.13859086655E+03  0.91219881751E+02 0.  0.
         23    2    1    2    0    0 -0.46736788668E+02  0.28005693570E+02 -0.86011258306E+02  0.13760398636E+03  0.92564972964E+02 0.  0.
        -11    1    3    3    0    0  0.38126804598E+02  0.69306946765E+02 -0.63755432294E+02  0.10159656119E+03  0.00000000000E+00 0. -1.
         11    1    3    3    0    0  0.15354882556E+02 -0.29369680301E+02 -0.16438615801E+02  0.36994305356E+02  0.00000000000E+00 0.  1.
        -13    1    4    4    0    0 -0.28476129180E+01  0.47161714227E+02 -0.10839859337E+02  0.48475135261E+02  0.00000000000E+00 0. -1.
         13    1    4    4    0    0 -0.43889175750E+02 -0.19156020657E+02 -0.75171398969E+02  0.89128851100E+02  0.00000000000E+00 0.  1.
         21    1    1    2  503  502 -0.27443545703E+02 -0.13399417640E+02 -0.24972225340E+02  0.39450027025E+02  0.00000000000E+00 0.  1.
          2    1    1    2  501    0  0.20698647217E+02 -0.54543542394E+02 -0.21459119333E+03  0.22237988279E+03  0.00000000000E+00 0. -1.
<scales pt_clust_5="13000.00000" pt_clust_6="13000.00000" pt_clust_7="13000.00000" pt_clust_8="13000.00000" pt_clust_9="30.54002" pt_clust_10="58.55804"></scales>
<clustering>
<clus scale="   30.540">  1  9  2 -1</clus>
<clus scale="   58.558">  2 10  1 -1</clus>
<clus scale="   91.220">  5  6 -1 -1</clus>
<clus scale="   92.565">  7  8 -1 -1</clus>
<clus scale="  103.600">  1  5  2 -1</clus>
<clus scale="   58.558">  2  5  1 -1</clus>
</clustering>
</event>
<event>
10    2  0.3544405E-006  0.2118984E+03  0.7546771E-02  0.1167117E+00
          2   -1    0    0  503    0 -0.00000000000E+00  0.00000000000E+00  0.61331651957E+03  0.61331651957E+03  0.00000000000E+00 0. -1.
         21   -1    0    0  501  502  0.00000000000E+00 -0.00000000000E+00 -0.14467878497E+03  0.14467878497E+03  0.00000000000E+00 0. -1.
         23    2    1    2    0    0 -0.39857742388E+02 -0.21792565239E+03  0.14571019970E+03  0.28067190081E+03  0.92005565104E+02 0.  0.
         23    2    1    2    0    0  0.32781051638E+02  0.54385987088E+02  0.47552245696E+02  0.12121166584E+03  0.91643979214E+02 0.  0.
        -13    1    4    4    0    0 -0.14362676231E+02  0.52604389001E+02  0.42975568142E+00  0.54531577097E+02  0.00000000000E+00 0.  1.
         13    1    4    4    0    0  0.47143727869E+02  0.17815980863E+01  0.47122490015E+02  0.66680088740E+02  0.00000000000E+00 0. -1.
        -13    1    3    3    0    0  0.12913209841E+02 -0.96435101804E+02  0.10254954806E+03  0.14136084909E+03  0.00000000000E+00 0.  1.
         13    1    3    3    0    0 -0.52770952229E+02 -0.12149055059E+03  0.43160651634E+02  0.13931105172E+03  0.00000000000E+00 0. -1.
         21    1    1    2  503  502 -0.17373460011E+02  0.17529028323E+03  0.16126010200E+03  0.23881654257E+03  0.00000000000E+00 0. -1.
          2    1    1    2  501    0  0.24450150761E+02 -0.11750617929E+02  0.11411518722E+03  0.11729519533E+03  0.00000000000E+00 0. -1.
<scales pt_clust_5="13000.00000" pt_clust_6="13000.00000" pt_clust_7="13000.00000" pt_clust_8="13000.00000" pt_clust_9="190.88197" pt_clust_10="27.12725"></scales>
<clustering>
<clus scale="   27.127">  2 10  1 -1</clus>
<clus scale="   91.644">  5  6 -1 -1</clus>
<clus scale="   92.006">  7  8 -1 -1</clus>
<clus scale="  112.087">  2  5  1 -1</clus>
<clus scale="  190.882">  1  9  2 -1</clus>
<clus scale="   27.127">  2  5  1 -1</clus>
</clustering>
</event>
<event>
10    2  0.3544405E-006  0.1538419E+03  0.7546771E-02  0.1216138E+00
         21   -1    0    0  501  502  0.00000000000E+00  0.00000000000E+00  0.61879753296E+03  0.61879753296E+03  0.00000000000E+00 0. -1.
          1   -1    0    0  503    0 -0.00000000000E+00 -0.00000000000E+00 -0.11757949928E+03  0.11757949928E+03  0.00000000000E+00 0. -1.
         23    2    1    2    0    0 -0.33362651819E+02  0.74311799668E+01  0.51423739611E+02  0.10757967507E+03  0.88094815511E+02 0.  0.
         23    2    1    2    0    0  0.56316368341E+02 -0.11641294139E+03  0.12292532723E+03  0.20281022906E+03  0.96425342489E+02 0.  0.
        -11    1    4    4    0    0  0.52258530292E+02 -0.42078508254E+02  0.10759970492E+03  0.12680398789E+03  0.00000000000E+00 0.  1.
         11    1    4    4    0    0  0.40578380491E+01 -0.74334433134E+02  0.15325622306E+02  0.76006241178E+02  0.00000000000E+00 0. -1.
        -13    1    3    3    0    0  0.12940596358E+02  0.20144656422E+02  0.54435514843E+02  0.59468407517E+02  0.00000000000E+00 0.  1.
         13    1    3    3    0    0 -0.46303248177E+02 -0.12713476455E+02 -0.30117752312E+01  0.48111267551E+02  0.00000000000E+00 0. -1.
         21    1    1    2  503  502 -0.34993839099E+02 -0.11743467924E+02 -0.30942987550E+02  0.48165820790E+02  0.00000000000E+00 0. -1.
          1    1    1    2  501    0  0.12040122577E+02  0.12072522935E+03  0.35781195439E+03  0.37782130731E+03  0.00000000000E+00 0. -1.
<scales pt_clust_5="13000.00000" pt_clust_6="13000.00000" pt_clust_7="13000.00000" pt_clust_8="13000.00000" pt_clust_9="36.91176" pt_clust_10="119.87284"></scales>
<clustering>
<clus scale="   36.912">  2  9  1 -1</clus>
<clus scale="   88.095">  7  8 -1 -1</clus>
<clus scale="   96.425">  5  6 -1 -1</clus>
<clus scale="   99.413">  2  7  1 -1</clus>
<clus scale="  119.873">  1 10  2 -1</clus>
<clus scale="  119.873">  1  5  2 -1</clus>
</clustering>
</event>
<event>
10    2  0.3544405E-006  0.1502176E+03  0.7546771E-02  0.1200454E+00
         21   -1    0    0  501  502  0.00000000000E+00  0.00000000000E+00  0.38074992618E+03  0.38074992618E+03  0.00000000000E+00 0.  1.
          1   -1    0    0  503    0 -0.00000000000E+00 -0.00000000000E+00 -0.26290993102E+03  0.26290993102E+03  0.00000000000E+00 0. -1.
         23    2    1    2    0    0 -0.61532048936E+02 -0.53127929768E+02 -0.60499682507E+02  0.13544290578E+03  0.89865450393E+02 0.  0.
         23    2    1    2    0    0  0.34676277438E+02  0.19118538070E+03  0.11277004735E+03  0.24246370152E+03  0.91199062304E+02 0.  0.
        -11    1    4    4    0    0  0.41907567451E+02  0.14383032195E+03  0.12257493069E+03  0.19356657602E+03  0.00000000000E+00 0.  1.
         11    1    4    4    0    0 -0.72312900128E+01  0.47355058753E+02 -0.98048833329E+01  0.48897125498E+02  0.00000000000E+00 0. -1.
        -13    1    3    3    0    0 -0.53316383028E+02 -0.32064683801E-01  0.15828299748E+01  0.53339882621E+02  0.00000000000E+00 0.  1.
         13    1    3    3    0    0 -0.82156659087E+01 -0.53095865085E+02 -0.62082512482E+02  0.82103023156E+02  0.00000000000E+00 0. -1.
         21    1    1    2  503  502 -0.32548993228E+01 -0.51393460677E+02 -0.79134994571E+02  0.94415197589E+02  0.00000000000E+00 0. -1.
          1    1    1    2  501    0  0.30110670821E+02 -0.86663990256E+02  0.14470462489E+03  0.17133805231E+03  0.00000000000E+00 0. -1.
<scales pt_clust_5="13000.00000" pt_clust_6="13000.00000" pt_clust_7="13000.00000" pt_clust_8="13000.00000" pt_clust_9="51.49643" pt_clust_10="95.34739"></scales>
<clustering>
<clus scale="   51.496">  2  9  1 -1</clus>
<clus scale="   89.865">  7  8 -1 -1</clus>
<clus scale="   91.199">  5  6 -1 -1</clus>
<clus scale="   95.347">  1 10  2 -1</clus>
<clus scale="  149.412">  2  7  1 -1</clus>
<clus scale="   95.347">  1  5  2 -1</clus>
</clustering>
</event>
<event>
10    2  0.3544405E-006  0.1232100E+03  0.7546771E-02  0.1239223E+00
         21   -1    0    0  501  502  0.00000000000E+00  0.00000000000E+00  0.90675264361E+02  0.90675264361E+02  0.00000000000E+00 0. -1.
          1   -1    0    0  503    0 -0.00000000000E+00 -0.00000000000E+00 -0.44671050628E+03  0.44671050628E+03  0.00000000000E+00 0. -1.
         23    2    1    2    0    0 -0.96925875198E+02 -0.40151200237E+01 -0.27511001978E+03  0.30527371290E+03  0.89976498774E+02 0.  0.
         23    2    1    2    0    0  0.73083986516E+02 -0.16006796569E+02 -0.71809521119E+02  0.14017773412E+03  0.94317035564E+02 0.  0.
        -11    1    4    4    0    0  0.32665623899E+02 -0.44633597886E+02 -0.71818957099E+02  0.90648572210E+02  0.00000000000E+00 0. -1.
         11    1    4    4    0    0  0.40418362617E+02  0.28626801317E+02  0.94359796496E-02  0.49529161908E+02  0.00000000000E+00 0.  1.
        -13    1    3    3    0    0 -0.16305020900E+01  0.29940163844E+02 -0.81232405033E+02  0.86589696705E+02  0.00000000000E+00 0.  1.
         13    1    3    3    0    0 -0.95295373108E+02 -0.33955283867E+02 -0.19387761475E+03  0.21868401619E+03  0.00000000000E+00 0. -1.
         21    1    1    2  503  502  0.24501676865E+02 -0.46233758176E+01 -0.43193313458E+02  0.49873541088E+02  0.00000000000E+00 0.  1.
          1    1    1    2  501    0 -0.65978818241E+00  0.24645292410E+02  0.34077612436E+02  0.42060782539E+02  0.00000000000E+00 0. -1.
<scales pt_clust_5="13000.00000" pt_clust_6="13000.00000" pt_clust_7="13000.00000" pt_clust_8="13000.00000" pt_clust_9="24.65027" pt_clust_10="24.65412"></scales>
<clustering>
<clus scale="   24.654">  1 10  2 -1</clus>
<clus scale="   24.650">  2  9  1 -1</clus>
<clus scale="   89.976">  7  8 -1 -1</clus>
<clus scale="   94.317">  5  6 -1 -1</clus>
<clus scale="  119.920">  2  7  1 -1</clus>
<clus scale="   24.654">  1  5  2 -1</clus>
</clustering>
</event>
<event>
10    2  0.3544405E-006  0.9596377E+02  0.7546771E-02  0.1289564E+00
         21   -1    0    0  501  502  0.00000000000E+00  0.00000000000E+00  0.51234225709E+02  0.51234225709E+02  0.00000000000E+00 0.  1.
          1   -1    0    0  503    0 -0.00000000000E+00 -0.00000000000E+00 -0.37062279324E+03  0.37062279324E+03  0.00000000000E+00 0. -1.
         23    2    1    2    0    0 -0.41998754763E+02  0.27406673854E+02 -0.17241810756E+03  0.20113193238E+03  0.90614729672E+02 0.  0.
         23    2    1    2    0    0  0.12317167579E+02  0.13908045983E+01 -0.57712614232E+02  0.10900125500E+03  0.91634495658E+02 0.  0.
        -11    1    4    4    0    0 -0.90211666684E+01  0.39904269994E+02 -0.49489734437E+02  0.64210326479E+02  0.00000000000E+00 0.  1.
         11    1    4    4    0    0  0.21338334248E+02 -0.38513465396E+02 -0.82228797947E+01  0.44790928517E+02  0.00000000000E+00 0. -1.
        -13    1    3    3    0    0  0.12972758030E+02  0.38794688686E+02 -0.10906884348E+03  0.11648747975E+03  0.00000000000E+00 0.  1.
         13    1    3    3    0    0 -0.54971512792E+02 -0.11388014832E+02 -0.63349264082E+02  0.84644452625E+02  0.00000000000E+00 0. -1.
         21    1    1    2  503  502  0.22459552089E+02 -0.82293908643E+01 -0.86505446322E+02  0.89751582701E+02  0.00000000000E+00 0. -1.
          1    1    1    2  501    0  0.72220350945E+01 -0.20568087588E+02 -0.27523994130E+01  0.21972248871E+02  0.00000000000E+00 0. -1.
<scales pt_clust_5="13000.00000" pt_clust_6="13000.00000" pt_clust_7="13000.00000" pt_clust_8="13000.00000" pt_clust_9="24.46890" pt_clust_10="21.79917"></scales>
<clustering>
<clus scale="   21.799">  1 10  2 -1</clus>
<clus scale="   24.469">  2  9  1 -1</clus>
<clus scale="   90.615">  7  8 -1 -1</clus>
<clus scale="   91.634">  5  6 -1 -1</clus>
<clus scale="   94.990">  2  7  1 -1</clus>
<clus scale="   21.799">  1  5  2 -1</clus>
</clustering>
</event>
<event>
10    2  0.3544405E-006  0.9298067E+02  0.7546771E-02  0.1296866E+00
          1   -1    0    0  503    0 -0.00000000000E+00  0.00000000000E+00  0.67874761490E+03  0.67874761490E+03  0.00000000000E+00 0. -1.
         21   -1    0    0  501  502  0.00000000000E+00 -0.00000000000E+00 -0.65321702066E+02  0.65321702066E+02  0.00000000000E+00 0. -1.
         23    2    1    2    0    0 -0.79460948477E+00 -0.37725705744E+02  0.31164975632E+03  0.32642955849E+03  0.89480868155E+02 0.  0.
         23    2    1    2    0    0  0.30347288788E+02  0.50484555065E+01  0.20212079621E+03  0.22241365346E+03  0.87570383936E+02 0.  0.
        -11    1    4    4    0    0  0.40306149248E+02 -0.21520653368E+02  0.18195280600E+03  0.18760209966E+03  0.00000000000E+00 0.  1.
         11    1    4    4    0    0 -0.99588604593E+01  0.26569108875E+02  0.20167990215E+02  0.34811553791E+02  0.00000000000E+00 0. -1.
        -13    1    3    3    0    0  0.87025765850E+00  0.28086640088E+02  0.13541965907E+03  0.13830437724E+03  0.00000000000E+00 0. -1.
         13    1    3    3    0    0 -0.16648671433E+01 -0.65812345833E+02  0.17623009724E+03  0.18812518125E+03  0.00000000000E+00 0.  1.
         21    1    1    2  503  502 -0.10580349129E+02  0.20814759704E+02  0.14382723087E+03  0.14571022733E+03  0.00000000000E+00 0. -1.
          1    1    1    2  501    0 -0.18972330174E+02  0.11862490533E+02 -0.44171870566E+02  0.49515877688E+02  0.00000000000E+00 0. -1.
<scales pt_clust_5="13000.00000" pt_clust_6="13000.00000" pt_clust_7="13000.00000" pt_clust_8="13000.00000" pt_clust_9="24.33343" pt_clust_10="22.37561"></scales>
<clustering>
<clus scale="   22.376">  2 10  1 -1</clus>
<clus scale="   24.333">  1  9  2 -1</clus>
<clus scale="   87.570">  5  6 -1 -1</clus>
<clus scale="   89.481">  7  8 -1 -1</clus>
<clus scale="   91.144">  2  5  1 -1</clus>
<clus scale="   22.376">  2  5  1 -1</clus>
</clustering>
</event>
<event>
10    2  0.3544405E-006  0.1316718E+03  0.7546771E-02  0.1225281E+00
         21   -1    0    0  501  502  0.00000000000E+00  0.00000000000E+00  0.82201863080E+02  0.82201863080E+02  0.00000000000E+00 0. -1.
          2   -1    0    0  503    0 -0.00000000000E+00 -0.00000000000E+00 -0.60463458992E+03  0.60463458992E+03  0.00000000000E+00 0. -1.
         23    2    1    2    0    0 -0.58007947172E+02 -0.72111034041E+02 -0.24932620967E+03  0.28102425542E+03  0.90808315358E+02 0.  0.
         23    2    1    2    0    0  0.90324454217E+02  0.67689966315E+02 -0.11488359022E+03  0.18433754530E+03  0.89675262672E+02 0.  0.
        -13    1    4    4    0    0  0.30143603272E+02 -0.11134490168E+02  0.56883937654E+00  0.32139341433E+02  0.00000000000E+00 0.  1.
         13    1    4    4    0    0  0.60180850945E+02  0.78824456483E+02 -0.11545242959E+03  0.15219820386E+03  0.00000000000E+00 0. -1.
        -13    1    3    3    0    0 -0.71272313320E+02 -0.29963498192E+02 -0.10708745496E+03  0.13208056965E+03  0.00000000000E+00 0.  1.
         13    1    3    3    0    0  0.13264366148E+02 -0.42147535849E+02 -0.14223875471E+03  0.14894368577E+03  0.00000000000E+00 0. -1.
         21    1    1    2  503  502 -0.22556203099E+02  0.39795956232E+02 -0.17517683029E+03  0.18105088318E+03  0.00000000000E+00 0. -1.
          2    1    1    2  501    0 -0.97603039457E+01 -0.35374888506E+02  0.16953903340E+02  0.40423769102E+02  0.00000000000E+00 0. -1.
<scales pt_clust_5="13000.00000" pt_clust_6="13000.00000" pt_clust_7="13000.00000" pt_clust_8="13000.00000" pt_clust_9="44.34178" pt_clust_10="36.69668"></scales>
<clustering>
<clus scale="   36.697">  1 10  2 -1</clus>
<clus scale="   44.342">  2  9  1 -1</clus>
<clus scale="   89.675">  5  6 -1 -1</clus>
<clus scale="   90.808">  7  8 -1 -1</clus>
<clus scale="  130.893">  1  5  2 -1</clus>
<clus scale="   36.697">  1  5  2 -1</clus>
</clustering>
</event>
<event>
10    2  0.3544405E-006  0.1185548E+03  0.7546771E-02  0.1246315E+00
         21   -1    0    0  501  502  0.00000000000E+00  0.00000000000E+00  0.10683676666E+03  0.10683676666E+03  0.00000000000E+00 0.  1.
          1   -1    0    0  503    0 -0.00000000000E+00 -0.00000000000E+00 -0.46606564229E+03  0.46606564229E+03  0.00000000000E+00 0. -1.
         23    2    1    2    0    0  0.68946374767E+02  0.61940545994E+01 -0.32028680665E+03  0.34062458274E+03  0.93002682482E+02 0.  0.
         23    2    1    2    0    0 -0.10304609295E+03  0.25539514052E+02 -0.15516597033E+02  0.14038484933E+03  0.90533844992E+02 0.  0.
        -13    1    3    3    0    0  0.20302146996E+00  0.24884487490E+02 -0.19778968448E+02  0.31788150752E+02  0.00000000000E+00 0.  1.
         13    1    3    3    0    0  0.68743353297E+02 -0.18690432891E+02 -0.30050783820E+03  0.30883643199E+03  0.00000000000E+00 0. -1.
        -13    1    4    4    0    0 -0.42048777833E+02  0.42381168900E+02  0.25559230813E+02  0.64942570586E+02  0.00000000000E+00 0.  1.
         13    1    4    4    0    0 -0.60997315115E+02 -0.16841654848E+02 -0.41075827846E+02  0.75442278747E+02  0.00000000000E+00 0. -1.
         21    1    1    2  503  502 -0.48531471225E+01 -0.25662164385E+02 -0.41094402094E+02  0.48691370913E+02  0.00000000000E+00 0. -1.
          1    1    1    2  501    0  0.38952865304E+02 -0.60714042666E+01  0.17668930153E+02  0.43201605964E+02  0.00000000000E+00 0. -1.
<scales pt_clust_5="13000.00000" pt_clust_6="13000.00000" pt_clust_7="13000.00000" pt_clust_8="13000.00000" pt_clust_9="26.11704" pt_clust_10="39.40558"></scales>
<clustering>
<clus scale="   26.117">  2  9  1 -1</clus>
<clus scale="   39.406">  1 10  2 -1</clus>
<clus scale="   90.534">  7  8 -1 -1</clus>
<clus scale="   93.003">  5  6 -1 -1</clus>
<clus scale="  116.628">  1  7  2 -1</clus>
<clus scale="   39.406">  1  5  2 -1</clus>
</clustering>
</event>
<event>
10    2  0.3544405E-006  0.1038192E+03  0.7546771E-02  0.1274217E+00
          1   -1    0    0  503    0 -0.00000000000E+00  0.00000000000E+00  0.64620855465E+03  0.64620855465E+03  0.00000000000E+00 0. -1.
         21   -1    0    0  501  502  0.00000000000E+00 -0.00000000000E+00 -0.70434358042E+02  0.70434358042E+02  0.00000000000E+00 0. -1.
         23    2    1    2    0    0 -0.12434192599E+02  0.43722240946E+02  0.36650887537E+03  0.38023240095E+03  0.90452636855E+02 0.  0.
         23    2    1    2    0    0  0.41527894841E+02 -0.12454359112E+02  0.16599472509E+03  0.19575149658E+03  0.94258806206E+02 0.  0.
        -11    1    4    4    0    0  0.18525179703E+02 -0.52358993219E+02  0.11017289283E+03  0.12338035811E+03  0.00000000000E+00 0.  1.
         11    1    4    4    0    0  0.23002715138E+02  0.39904634107E+02  0.55821832260E+02  0.72371138473E+02  0.00000000000E+00 0. -1.
        -11    1    3    3    0    0 -0.45427300611E+02 -0.58279937098E+00  0.14570667495E+03  0.15262507795E+03  0.00000000000E+00 0.  1.
         11    1    3    3    0    0  0.32993108013E+02  0.44305040317E+02  0.22080220042E+03  0.22760732300E+03  0.00000000000E+00 0. -1.
         21    1    1    2  503  502  0.11049477605E+02  0.21875355490E+02  0.65907223043E+02  0.70316315194E+02  0.00000000000E+00 0.  1.
          1    1    1    2  501    0 -0.40143179847E+02 -0.53143237324E+02 -0.22636626885E+02  0.70342699964E+02  0.00000000000E+00 0. -1.
<scales pt_clust_5="13000.00000" pt_clust_6="13000.00000" pt_clust_7="13000.00000" pt_clust_8="13000.00000" pt_clust_9="24.50759" pt_clust_10="65.60612"></scales>
<clustering>
<clus scale="   24.508">  1  9  2 -1</clus>
<clus scale="   65.606">  2 10  1 -1</clus>
<clus scale="   90.453">  7  8 -1 -1</clus>
<clus scale="   94.259">  5  6 -1 -1</clus>
<clus scale="  100.376">  1  7  2 -1</clus>
<clus scale="   65.606">  2  5  1 -1</clus>
</clustering>
</event>
<event>
10    2  0.3544405E-006  0.2423345E+03  0.7546771E-02  0.1138526E+00
         21   -1    0    0  501  502  0.00000000000E+00  0.00000000000E+00  0.59300928970E+03  0.59300928970E+03  0.00000000000E+00 0. -1.
          4   -1    0    0  503    0 -0.00000000000E+00 -0.00000000000E+00 -0.19589768215E+03  0.19589768215E+03  0.00000000000E+00 0. -1.
         23    2    1    2    0    0 -0.25330262235E+02 -0.10484362423E+03  0.52368875419E+02  0.15099580831E+03  0.91779231241E+02 0.  0.
         23    2    1    2    0    0  0.14507242833E+03 -0.13032405335E+03  0.10021054349E+03  0.23735114526E+03  0.90901291449E+02 0.  0.
        -11    1    4    4    0    0  0.22941993021E+02 -0.76104039890E+02  0.21811390267E+02  0.82425097372E+02  0.00000000000E+00 0.  1.
         11    1    4    4    0    0  0.12213043531E+03 -0.54220013459E+02  0.78399153224E+02  0.15492604789E+03  0.00000000000E+00 0. -1.
        -13    1    3    3    0    0  0.26789585260E+02 -0.31737821278E+02  0.44497500921E+02  0.60868701038E+02  0.00000000000E+00 0. -1.
         13    1    3    3    0    0 -0.52119847495E+02 -0.73105802954E+02  0.78713744977E+01  0.90127107270E+02  0.00000000000E+00 0.  1.
         21    1    1    2  503  502 -0.38286714524E+02 -0.15023614168E+02 -0.33334122281E+00  0.41130190956E+02  0.00000000000E+00 0. -1.
          4    1    1    2  501    0 -0.81455451574E+02  0.25019129175E+03  0.24486552987E+03  0.35942982733E+03  0.00000000000E+00 0. -1.
<scales pt_clust_5="13000.00000" pt_clust_6="13000.00000" pt_clust_7="13000.00000" pt_clust_8="13000.00000" pt_clust_9="41.12884" pt_clust_10="224.63965"></scales>
<clustering>
<clus scale="   41.129">  2  9  1 -1</clus>
<clus scale="   90.901">  5  6 -1 -1</clus>
<clus scale="   91.779">  7  8 -1 -1</clus>
<clus scale="  147.052">  2  7  1 -1</clus>
<clus scale="  224.640">  1 10  2 -1</clus>
<clus scale="  224.640">  1  5  2 -1</clus>
</clustering>
</event>
<event>
10    2  0.3544405E-006  0.9836264E+02  0.7546771E-02  0.1284143E+00
         -3   -1    0    0    0  501 -0.00000000000E+00  0.00000000000E+00  0.45660281997E+02  0.45660281997E+02  0.00000000000E+00 0.  1.
         21   -1    0    0  503  502  0.00000000000E+00 -0.00000000000E+00 -0.54322429492E+03  0.54322429492E+03  0.00000000000E+00 0. -1.
         23    2    1    2    0    0 -0.47921884406E+02 -0.40448511433E+02 -0.11632796399E+03  0.15960146995E+03  0.89486562800E+02 0.  0.
         23    2    1    2    0    0 -0.54526534206E+01  0.20278834400E+02 -0.20377290331E+03  0.22324726724E+03  0.88741104647E+02 0.  0.
        -11    1    3    3    0    0 -0.57234170252E+02  0.84261342285E+01 -0.48559345685E+02  0.75529861881E+02  0.00000000000E+00 0. -1.
         11    1    3    3    0    0  0.93122858458E+01 -0.48874645661E+02 -0.67768618301E+02  0.84071608065E+02  0.00000000000E+00 0.  1.
        -13    1    4    4    0    0  0.16614804601E+02 -0.17036312806E+02 -0.12030220948E+02  0.26664843934E+02  0.00000000000E+00 0.  1.
         13    1    4    4    0    0 -0.22067458022E+02  0.37315147206E+02 -0.19174268236E+03  0.19658242331E+03  0.00000000000E+00 0. -1.
         21    1    1    2  503  501  0.25330892716E+02 -0.12091477758E+02 -0.51975865703E+01  0.28545978111E+02  0.00000000000E+00 0. -1.
         -3    1    1    2    0  502  0.28043645110E+02  0.32261154791E+02 -0.17226555906E+03  0.17748986162E+03  0.00000000000E+00 0.  1.
<scales pt_clust_5="13000.00000" pt_clust_6="13000.00000" pt_clust_7="13000.00000" pt_clust_8="13000.00000" pt_clust_9="28.06881" pt_clust_10="43.37184"></scales>
<clustering>
<clus scale="   28.069">  1  9  2 -1</clus>
<clus scale="   43.372">  2 10  1 -1</clus>
<clus scale="   88.741">  7  8 -1 -1</clus>
<clus scale="   89.487">  5  6 -1 -1</clus>
<clus scale="   97.685">  2  7  1 -1</clus>
<clus scale="   43.372">  2  5  1 -1</clus>
</clustering>
</event>
<event>
10    2  0.3544405E-006  0.1287271E+03  0.7546771E-02  0.1229694E+00
         -4   -1    0    0    0  501 -0.00000000000E+00  0.00000000000E+00  0.11473822791E+03  0.11473822791E+03  0.00000000000E+00 0.  1.
         21   -1    0    0  503  502  0.00000000000E+00 -0.00000000000E+00 -0.55665041963E+03  0.55665041963E+03  0.00000000000E+00 0.  1.
         23    2    1    2    0    0 -0.72130713734E+02  0.10326908083E+03  0.15665338489E+02  0.15652004694E+03  0.91573901000E+02 0.  0.
         23    2    1    2    0    0  0.10678236454E+02 -0.42889218732E+02 -0.13148443476E+03  0.16690418681E+03  0.92818862159E+02 0.  0.
        -13    1    3    3    0    0 -0.75449671284E+02  0.33065379983E+02  0.23857289689E+02  0.85762127548E+02  0.00000000000E+00 0.  1.
         13    1    3    3    0    0  0.33189575492E+01  0.70203700851E+02 -0.81919511996E+01  0.70757919394E+02  0.00000000000E+00 0. -1.
        -13    1    4    4    0    0  0.46324249094E+02 -0.44416829818E+02 -0.64379260547E+02  0.90903685369E+02  0.00000000000E+00 0.  1.
         13    1    4    4    0    0 -0.35646012639E+02  0.15276110858E+01 -0.67105174210E+02  0.76000501436E+02  0.00000000000E+00 0. -1.
         21    1    1    2  503  501  0.12563174144E+01 -0.23695357158E+02 -0.13046187886E+02  0.27078613381E+02  0.00000000000E+00 0.  1.
         -4    1    1    2    0  502  0.60196159865E+02 -0.36684504944E+02 -0.31304690757E+03  0.32088580041E+03  0.00000000000E+00 0.  1.
<scales pt_clust_5="13000.00000" pt_clust_6="13000.00000" pt_clust_7="13000.00000" pt_clust_8="13000.00000" pt_clust_9="23.72864" pt_clust_10="70.98475"></scales>
<clustering>
<clus scale="   23.729">  1  9  2 -1</clus>
<clus scale="   70.985">  2 10  1 -1</clus>
<clus scale="   91.574">  5  6 -1 -1</clus>
<clus scale="   92.819">  7  8 -1 -1</clus>
<clus scale="  127.832">  1  5  2 -1</clus>
<clus scale="   70.985">  2  5  1 -1</clus>
</clustering>
</event>
<event>
10    2  0.3544405E-006  0.1736024E+03  0.7546771E-02  0.1199566E+00
         21   -1    0    0  501  502  0.00000000000E+00  0.00000000000E+00  0.12405876575E+03  0.12405876575E+03  0.00000000000E+00 0.  1.
          3   -1    0    0  503    0 -0.00000000000E+00 -0.00000000000E+00 -0.71960660899E+03  0.71960660899E+03  0.00000000000E+00 0. -1.
         23    2    1    2    0    0  0.11839595067E+03 -0.87057090613E+02 -0.31676911871E+03  0.36075955718E+03  0.90599367372E+02 0.  0.
         23    2    1    2    0    0 -0.51396902095E+01  0.19894572260E+02  0.18396835365E+02  0.93404253158E+02  0.89239568218E+02 0.  0.
        -11    1    4    4    0    0 -0.29992539765E+02  0.27633996101E+02 -0.21241995524E+02  0.45982741935E+02  0.00000000000E+00 0.  1.
         11    1    4    4    0    0  0.24852849555E+02 -0.77394238408E+01  0.39638830889E+02  0.47421511223E+02  0.00000000000E+00 0. -1.
        -11    1    3    3    0    0  0.28441624156E+02  0.17668648723E+02 -0.46866481334E+02  0.57598387173E+02  0.00000000000E+00 0. -1.
         11    1    3    3    0    0  0.89954326513E+02 -0.10472573934E+03 -0.26990263738E+03  0.30316117001E+03  0.00000000000E+00 0.  1.
         21    1    1    2  503  502 -0.15084974088E+03  0.34650821658E+02 -0.30221567749E+03  0.33954475329E+03  0.00000000000E+00 0. -1.
          3    1    1    2  501    0  0.37593480419E+02  0.32511696695E+02  0.50401175923E+01  0.49956811121E+02  0.00000000000E+00 0. -1.
<scales pt_clust_5="13000.00000" pt_clust_6="13000.00000" pt_clust_7="13000.00000" pt_clust_8="13000.00000" pt_clust_9="148.08626" pt_clust_10="49.70191"></scales>
<clustering>
<clus scale="   49.702">  1 10  2 -1</clus>
<clus scale="   89.240">  5  6 -1 -1</clus>
<clus scale="   90.599">  7  8 -1 -1</clus>
<clus scale="   98.686">  1  5  2 -1</clus>
<clus scale="  148.086">  2  9  1 -1</clus>
<clus scale="   49.702">  1  5  2 -1</clus>
</clustering>
</event>
<event>
10    2  0.3544405E-006  0.9226081E+02  0.7546771E-02  0.1297934E+00
         21   -1    0    0  501  502  0.00000000000E+00  0.00000000000E+00  0.38474475896E+03  0.38474475896E+03  0.00000000000E+00 0.  1.
         -2   -1    0    0    0  501 -0.00000000000E+00 -0.00000000000E+00 -0.74841372004E+02  0.74841372004E+02  0.00000000000E+00 0. -1.
         23    2    1    2    0    0  0.69561046365E+01  0.64154565030E+01 -0.41853440737E+01  0.91435101289E+02  0.90847758194E+02 0.  0.
         23    2    1    2    0    0 -0.12640362598E+02 -0.75663150606E+01  0.12919573004E+03  0.15908317164E+03  0.91645463323E+02 0.  0.
        -11    1    4    4    0    0  0.16054526584E+00  0.39928476675E+02  0.36276855390E+02  0.53947374925E+02  0.00000000000E+00 0. -1.
         11    1    4    4    0    0 -0.12800907864E+02 -0.47494791736E+02  0.92918874652E+02  0.10513579671E+03  0.00000000000E+00 0.  1.
        -11    1    3    3    0    0 -0.24856945435E+02  0.38630382627E+02  0.30330126404E+00  0.45937633700E+02  0.00000000000E+00 0. -1.
         11    1    3    3    0    0  0.31813050072E+02 -0.32214926124E+02 -0.44886453378E+01  0.45497467589E+02  0.00000000000E+00 0.  1.
         21    1    1    2  503  502  0.87771811082E+01 -0.40186507108E+02  0.14788357845E+03  0.15349771020E+03  0.00000000000E+00 0.  1.
         -2    1    1    2    0  503 -0.30929231465E+01  0.41337365666E+02  0.37009422537E+02  0.55570147834E+02  0.00000000000E+00 0. -1.
<scales pt_clust_5="13000.00000" pt_clust_6="13000.00000" pt_clust_7="13000.00000" pt_clust_8="13000.00000" pt_clust_9="41.13386" pt_clust_10="33.41709"></scales>
<clustering>
<clus scale="   41.134">  1  9  2 -1</clus>
<clus scale="   33.417">  1 10  2 -1</clus>
<clus scale="   90.848">  7  8 -1 -1</clus>
<clus scale="   91.468">  2  7  1 -1</clus>
<clus scale="   91.645">  5  6 -1 -1</clus>
<clus scale="   41.134">  1  5  2 -1</clus>
</clustering>
</event>
<event>
10    2  0.3544405E-006  0.9525563E+02  0.7546771E-02  0.1291127E+00
         21   -1    0    0  503  502  0.00000000000E+00  0.00000000000E+00  0.59417797990E+02  0.59417797990E+02  0.00000000000E+00 0. -1.
         -1   -1    0    0    0  501 -0.00000000000E+00 -0.00000000000E+00 -0.31860108562E+03  0.31860108562E+03  0.00000000000E+00 0.  1.
         23    2    1    2    0    0  0.23525395391E+02  0.13597067320E+02 -0.17836659531E+03  0.20238662558E+03  0.91691763126E+02 0.  0.
         23    2    1    2    0    0 -0.80816394165E+01 -0.59884050982E+01 -0.58117833739E+02  0.10983115627E+03  0.92650021032E+02 0.  0.
        -11    1    3    3    0    0  0.22929337929E+02  0.51847708341E+02 -0.94378584786E+02  0.11009657880E+03  0.00000000000E+00 0. -1.
         11    1    3    3    0    0  0.59605746234E+00 -0.38250641022E+02 -0.83988010524E+02  0.92290046781E+02  0.00000000000E+00 0.  1.
        -13    1    4    4    0    0 -0.16977243755E+02  0.40217722396E+02 -0.15436987079E+02  0.46303267383E+02  0.00000000000E+00 0. -1.
         13    1    4    4    0    0  0.88956043383E+01 -0.46206127494E+02 -0.42680846659E+02  0.63527888884E+02  0.00000000000E+00 0.  1.
         21    1    1    2  503  501  0.11524538877E+02 -0.20196090404E+02 -0.27108330011E+02  0.35714963529E+02  0.00000000000E+00 0. -1.
         -1    1    1    2    0  502 -0.26968294852E+02  0.12587428183E+02  0.44094714258E+01  0.30086138232E+02  0.00000000000E+00 0.  1.
<scales pt_clust_5="13000.00000" pt_clust_6="13000.00000" pt_clust_7="13000.00000" pt_clust_8="13000.00000" pt_clust_9="23.25289" pt_clust_10="28.91880"></scales>
<clustering>
<clus scale="   23.253">  2  9  1 -1</clus>
<clus scale="   28.919">  1 10  2 -1</clus>
<clus scale="   91.692">  5  6 -1 -1</clus>
<clus scale="   92.650">  7  8 -1 -1</clus>
<clus scale="   94.324">  2  5  1 -1</clus>
<clus scale="   28.919">  1  5  2 -1</clus>
</clustering>
</event>
<event>
10    2  0.3544405E-006  0.9734075E+02  0.7546771E-02  0.1287086E+00
         21   -1    0    0  501  502  0.00000000000E+00  0.00000000000E+00  0.28439926085E+03  0.28439926085E+03  0.00000000000E+00 0.  1.
          1   -1    0    0  503    0 -0.00000000000E+00 -0.00000000000E+00 -0.20287975792E+03  0.20287975792E+03  0.00000000000E+00 0. -1.
         23    2    1    2    0    0 -0.14688323756E+02  0.15309070949E+02 -0.13847198617E+03  0.16749373497E+03  0.91812557920E+02 0.  0.
         23    2    1    2    0    0  0.92793345281E+02 -0.10015248575E+02  0.13849607307E+03  0.19158501561E+03  0.93876226046E+02 0.  0.
        -11    1    3    3    0    0  0.33696137101E+02 -0.14271840070E+02 -0.43150158479E+02  0.56577833569E+02  0.00000000000E+00 0.  1.
         11    1    3    3    0    0 -0.48384460857E+02  0.29580911019E+02 -0.95321827689E+02  0.11091590140E+03  0.00000000000E+00 0. -1.
        -13    1    4    4    0    0  0.49641729700E+02 -0.22902719608E+02  0.13588964740E+03  0.14647468096E+03  0.00000000000E+00 0.  1.
         13    1    4    4    0    0  0.43151615581E+02  0.12887471032E+02  0.26064256719E+01  0.45110334644E+02  0.00000000000E+00 0. -1.
         21    1    1    2  503  502 -0.10018339817E+02  0.19505331045E+02  0.43411264014E+01  0.22353309605E+02  0.00000000000E+00 0.  1.
          1    1    1    2  501    0 -0.68086681709E+02 -0.24799153418E+02  0.77154289617E+02  0.10584695859E+03  0.00000000000E+00 0. -1.
<scales pt_clust_5="13000.00000" pt_clust_6="13000.00000" pt_clust_7="13000.00000" pt_clust_8="13000.00000" pt_clust_9="21.92772" pt_clust_10="73.75322"></scales>
<clustering>
<clus scale="   21.928">  1  9  2 -1</clus>
<clus scale="   73.753">  1 10  2 -1</clus>
<clus scale="   91.813">  5  6 -1 -1</clus>
<clus scale="   93.876">  7  8 -1 -1</clus>
<clus scale="   95.352">  2  5  1 -1</clus>
<clus scale="   21.928">  1  5  2 -1</clus>
</clustering>
</event>
<event>
10    2  0.3544405E-006  0.2399342E+03  0.7546771E-02  0.1119848E+00
         -1   -1    0    0    0  501 -0.00000000000E+00  0.00000000000E+00  0.69989460113E+02  0.69989460113E+02  0.00000000000E+00 0.  1.
         21   -1    0    0  503  502  0.00000000000E+00 -0.00000000000E+00 -0.26590952031E+04  0.26590952031E+04  0.00000000000E+00 0.  1.
         23    2    1    2    0    0 -0.14756198864E+03  0.10041539987E+03 -0.30288397050E+03  0.36472783581E+03  0.97107680476E+02 0.  0.
         23    2    1    2    0    0  0.24589099569E+03 -0.23184117132E+03 -0.11125171570E+04  0.11667773726E+04  0.97274364913E+02 0.  0.
        -11    1    3    3    0    0  0.71297155943E+01  0.32428995011E+02 -0.64322502191E+02  0.72386855505E+02  0.00000000000E+00 0. -1.
         11    1    3    3    0    0 -0.15469170423E+03  0.67986404856E+02 -0.23856146830E+03  0.29234098030E+03  0.00000000000E+00 0.  1.
        -11    1    4    4    0    0  0.12182348174E+03 -0.17068429328E+03 -0.58586747787E+03  0.62226585179E+03  0.00000000000E+00 0.  1.
         11    1    4    4    0    0  0.12406751395E+03 -0.61156878043E+02 -0.52664967916E+03  0.54451152083E+03  0.00000000000E+00 0. -1.
         21    1    1    2  503  501  0.19825071132E+02  0.33226929086E+02 -0.49020792614E+02  0.62450783585E+02  0.00000000000E+00 0.  1.
         -1    1    1    2    0  502 -0.11815407818E+03  0.98198842369E+02 -0.11246838229E+04  0.11351286712E+04  0.00000000000E+00 0.  1.
<scales pt_clust_5="13000.00000" pt_clust_6="13000.00000" pt_clust_7="13000.00000" pt_clust_8="13000.00000" pt_clust_9="38.69189" pt_clust_10="154.16074"></scales>
<clustering>
<clus scale="   38.692">  1  9  2 -1</clus>
<clus scale="   97.108">  5  6 -1 -1</clus>
<clus scale="   97.274">  7  8 -1 -1</clus>
<clus scale="  154.161">  2 10  1 -1</clus>
<clus scale="  239.867">  1  5  2 -1</clus>
<clus scale="  154.161">  2  5  1 -1</clus>
</clustering>
</event>
<event>
10    2  0.3544405E-006  0.1055221E+03  0.7546771E-02  0.1270364E+00
          2   -1    0    0  503    0 -0.00000000000E+00  0.00000000000E+00  0.25371928147E+03  0.25371928147E+03  0.00000000000E+00 0. -1.
         21   -1    0    0  501  502  0.00000000000E+00 -0.00000000000E+00 -0.11231391067E+03  0.11231391067E+03  0.00000000000E+00 0. -1.
         23    2    1    2    0    0 -0.30952344250E+02  0.15591977724E+02  0.12102485801E+03  0.15472915302E+03  0.89960753415E+02 0.  0.
         23    2    1    2    0    0  0.62303343341E+02 -0.58174352792E+00  0.12038905718E+02  0.11248937142E+03  0.92880990604E+02 0.  0.
        -11    1    4    4    0    0  0.54408457046E+02  0.41386591882E+02  0.13838856902E+02  0.69747000983E+02  0.00000000000E+00 0. -1.
         11    1    4    4    0    0  0.78948862951E+01 -0.41968335410E+02 -0.17999511845E+01  0.42742370441E+02  0.00000000000E+00 0.  1.
        -13    1    3    3    0    0  0.23676556719E+02 -0.62594512808E+01  0.78232805027E+02  0.81976410332E+02  0.00000000000E+00 0.  1.
         13    1    3    3    0    0 -0.54628900969E+02  0.21851429005E+02  0.42792052983E+02  0.72752742692E+02  0.00000000000E+00 0. -1.
         21    1    1    2  503  502 -0.16499030829E+02  0.19915388059E+02  0.41180082139E+02  0.48627562809E+02  0.00000000000E+00 0. -1.
          2    1    1    2  501    0 -0.14851968262E+02 -0.34925622255E+02 -0.32838475066E+02  0.50187104876E+02  0.00000000000E+00 0. -1.
<scales pt_clust_5="13000.00000" pt_clust_6="13000.00000" pt_clust_7="13000.00000" pt_clust_8="13000.00000" pt_clust_9="25.86195" pt_clust_10="37.47139"></scales>
<clustering>
<clus scale="   25.862">  1  9  2 -1</clus>
<clus scale="   37.471">  2 10  1 -1</clus>
<clus scale="   89.961">  7  8 -1 -1</clus>
<clus scale="   92.881">  5  6 -1 -1</clus>
<clus scale="  102.961">  1  7  2 -1</clus>
<clus scale="   37.471">  2  5  1 -1</clus>
</clustering>
</event>
<event>
10    2  0.3544405E-006  0.1167833E+03  0.7546771E-02  0.1251635E+00
         21   -1    0    0  501  502  0.00000000000E+00  0.00000000000E+00  0.44947561690E+02  0.44947561690E+02  0.00000000000E+00 0.  1.
          2   -1    0    0  503    0 -0.00000000000E+00 -0.00000000000E+00 -0.60574102119E+03  0.60574102119E+03  0.00000000000E+00 0. -1.
         23    2    1    2    0    0  0.77581315051E+02 -0.79631692486E+01 -0.21833995016E+03  0.24662713699E+03  0.84085304037E+02 0.  0.
         23    2    1    2    0    0 -0.58739682909E+02  0.23693829279E+02 -0.17008880610E+03  0.20400399146E+03  0.93143323309E+02 0.  0.
        -11    1    4    4    0    0 -0.34462881972E+01  0.49243427253E+02 -0.97186175264E+02  0.10900433336E+03  0.00000000000E+00 0. -1.
         11    1    4    4    0    0 -0.55293394712E+02 -0.25549597974E+02 -0.72902630839E+02  0.94999658097E+02  0.00000000000E+00 0.  1.
        -13    1    3    3    0    0  0.76432529703E+00 -0.27689743349E+02 -0.10293876586E+03  0.10660063600E+03  0.00000000000E+00 0.  1.
         13    1    3    3    0    0  0.76816989754E+02  0.19726574100E+02 -0.11540118430E+03  0.14002650099E+03  0.00000000000E+00 0. -1.
         21    1    1    2  503  502  0.24435786047E+01  0.26250910491E+02 -0.14112075198E+03  0.14356234888E+03  0.00000000000E+00 0. -1.
          2    1    1    2  501    0 -0.21285210747E+02 -0.41981570522E+02 -0.31243951257E+02  0.56495105542E+02  0.00000000000E+00 0. -1.
<scales pt_clust_5="13000.00000" pt_clust_6="13000.00000" pt_clust_7="13000.00000" pt_clust_8="13000.00000" pt_clust_9="26.36440" pt_clust_10="44.75750"></scales>
<clustering>
<clus scale="   26.364">  2  9  1 -1</clus>
<clus scale="   44.757">  1 10  2 -1</clus>
<clus scale="   84.085">  7  8 -1 -1</clus>
<clus scale="   93.143">  5  6 -1 -1</clus>
<clus scale="  109.695">  2  7  1 -1</clus>
<clus scale="   44.757">  1  5  2 -1</clus>
</clustering>
</event>
<event>
10    2  0.3544405E-006  0.1025489E+03  0.7546771E-02  0.1280944E+00
          1   -1    0    0  503    0 -0.00000000000E+00  0.00000000000E+00  0.10871242971E+03  0.10871242971E+03  0.00000000000E+00 0. -1.
         21   -1    0    0  501  502  0.00000000000E+00 -0.00000000000E+00 -0.32304225865E+03  0.32304225865E+03  0.00000000000E+00 0.  1.
         23    2    1    2    0    0 -0.29265078021E+02 -0.54185758064E+01 -0.21385719557E+02  0.10815734057E+03  0.10175881074E+03 0.  0.
         23    2    1    2    0    0 -0.43646534148E+01 -0.41665867975E+01 -0.77040261689E+02  0.11916058309E+03  0.90706295245E+02 0.  0.
        -11    1    3    3    0    0 -0.37005371313E+02  0.19045264165E+02 -0.53033747173E+02  0.67414374819E+02  0.00000000000E+00 0.  1.
         11    1    3    3    0    0  0.77402932917E+01 -0.24463839971E+02  0.31648027616E+02  0.40742965753E+02  0.00000000000E+00 0. -1.
        -13    1    4    4    0    0 -0.12165022858E+02  0.33141300515E+02 -0.24401618511E+01  0.35387681060E+02  0.00000000000E+00 0. -1.
         13    1    4    4    0    0  0.78003694429E+01 -0.37307887313E+02 -0.74600099838E+02  0.83772902033E+02  0.00000000000E+00 0.  1.
         21    1    1    2  503  502  0.13254456089E+02  0.17621930609E+02  0.40710317878E+02  0.46298412785E+02  0.00000000000E+00 0. -1.
          1    1    1    2  501    0  0.20375275346E+02 -0.80367680053E+01 -0.15661416557E+03  0.15813835190E+03  0.00000000000E+00 0. -1.
<scales pt_clust_5="13000.00000" pt_clust_6="13000.00000" pt_clust_7="13000.00000" pt_clust_8="13000.00000" pt_clust_9="22.15134" pt_clust_10="21.90300"></scales>
<clustering>
<clus scale="   21.903">  2 10  1 -1</clus>
<clus scale="   22.151">  1  9  2 -1</clus>
<clus scale="   90.706">  7  8 -1 -1</clus>
<clus scale="   91.592">  2  7  1 -1</clus>
<clus scale="  101.759">  5  6 -1 -1</clus>
<clus scale="   21.903">  2  5  1 -1</clus>
</clustering>
</event>
<event>
10    2  0.3544405E-006  0.1196558E+03  0.7546771E-02  0.1244861E+00
          1   -1    0    0  503    0 -0.00000000000E+00  0.00000000000E+00  0.90630274201E+03  0.90630274201E+03  0.00000000000E+00 0. -1.
         21   -1    0    0  501  502  0.00000000000E+00 -0.00000000000E+00 -0.48031922544E+02  0.48031922544E+02  0.00000000000E+00 0.  1.
         23    2    1    2    0    0 -0.61528548789E+02  0.92509576954E+01  0.32223911596E+03  0.34094211125E+03  0.92369544945E+02 0.  0.
         23    2    1    2    0    0  0.83423269039E+02 -0.15886601012E+01  0.18542900136E+03  0.22182013250E+03  0.88647002068E+02 0.  0.
        -11    1    3    3    0    0 -0.49031186811E+02  0.42897440771E+02  0.13033375946E+03  0.14570908194E+03  0.00000000000E+00 0. -1.
         11    1    3    3    0    0 -0.12497361978E+02 -0.33646483075E+02  0.19190535649E+03  0.19523302930E+03  0.00000000000E+00 0.  1.
        -11    1    4    4    0    0  0.24104045680E+02  0.30063372624E+02  0.12708926909E+03  0.13280246123E+03  0.00000000000E+00 0. -1.
         11    1    4    4    0    0  0.59319223359E+02 -0.31652032726E+02  0.58339732279E+02  0.89017671268E+02  0.00000000000E+00 0.  1.
         21    1    1    2  503  502 -0.21815934678E+02  0.38824584939E+02  0.34126300018E+03  0.34415653225E+03  0.00000000000E+00 0. -1.
          1    1    1    2  501    0 -0.78785572961E-01 -0.46486882534E+02  0.93397019645E+01  0.47415888557E+02  0.00000000000E+00 0. -1.
<scales pt_clust_5="13000.00000" pt_clust_6="13000.00000" pt_clust_7="13000.00000" pt_clust_8="13000.00000" pt_clust_9="44.53407" pt_clust_10="44.54756"></scales>
<clustering>
<clus scale="   44.534">  1  9  2 -1</clus>
<clus scale="   44.548">  2 10  1 -1</clus>
<clus scale="   88.647">  7  8 -1 -1</clus>
<clus scale="   92.370">  5  6 -1 -1</clus>
<clus scale="  116.806">  2  7  1 -1</clus>
<clus scale="   44.548">  2  5  1 -1</clus>
</clustering>
</event>
<event>
10    2  0.3544405E-006  0.1563770E+03  0.7546771E-02  0.1214329E+00
          2   -1    0    0  503    0 -0.00000000000E+00  0.00000000000E+00  0.30352278575E+03  0.30352278575E+03  0.00000000000E+00 0. -1.
         21   -1    0    0  501  502  0.00000000000E+00 -0.00000000000E+00 -0.10745142227E+04  0.10745142227E+04  0.00000000000E+00 0. -1.
         23    2    1    2    0    0 -0.34230251791E+02 -0.77441234767E+01  0.18097979335E+03  0.20647949122E+03  0.92996844617E+02 0.  0.
         23    2    1    2    0    0 -0.67123194264E+02  0.11520169342E+03 -0.16046146355E+03  0.22711397432E+03  0.89754791920E+02 0.  0.
        -11    1    4    4    0    0 -0.80785812160E+02  0.52137286720E+02 -0.98776702599E+02  0.13784585989E+03  0.00000000000E+00 0. -1.
         11    1    4    4    0    0  0.13662617896E+02  0.63064406704E+02 -0.61684760947E+02  0.89268114430E+02  0.00000000000E+00 0.  1.
        -13    1    3    3    0    0  0.25081417582E+02 -0.81977675531E+00  0.13126187440E+02  0.28320422640E+02  0.00000000000E+00 0.  1.
         13    1    3    3    0    0 -0.59311669373E+02 -0.69243467214E+01  0.16785360591E+03  0.17815906858E+03  0.00000000000E+00 0. -1.
         21    1    1    2  503  502  0.12136255512E+02 -0.15952491847E+02  0.70355189713E+02  0.73154790776E+02  0.00000000000E+00 0.  1.
          2    1    1    2  501    0  0.89217190543E+02 -0.91505078101E+02 -0.86186495646E+03  0.87128875212E+03  0.00000000000E+00 0. -1.
<scales pt_clust_5="13000.00000" pt_clust_6="13000.00000" pt_clust_7="13000.00000" pt_clust_8="13000.00000" pt_clust_9="20.04422" pt_clust_10="128.05408"></scales>
<clustering>
<clus scale="   20.044">  1  9  2 -1</clus>
<clus scale="   89.755">  5  6 -1 -1</clus>
<clus scale="   92.997">  7  8 -1 -1</clus>
<clus scale="   98.351">  1  7  2 -1</clus>
<clus scale="  128.054">  2 10  1 -1</clus>
<clus scale="  128.054">  2  5  1 -1</clus>
</clustering>
</event>
<event>
10    2  0.3544405E-006  0.1706461E+03  0.7546771E-02  0.1177189E+00
          1   -1    0    0  503    0 -0.00000000000E+00  0.00000000000E+00  0.22155424690E+04  0.22155424690E+04  0.00000000000E+00 0.  1.
         21   -1    0    0  501  502  0.00000000000E+00 -0.00000000000E+00 -0.73373466586E+02  0.73373466586E+02  0.00000000000E+00 0. -1.
         23    2    1    2    0    0  0.15201941900E+03 -0.31543445152E+02  0.61578911191E+03  0.64158101340E+03  0.91241841950E+02 0.  0.
         23    2    1    2    0    0 -0.21933646568E+02  0.20311962968E+03  0.68797892414E+03  0.72343674724E+03  0.91143065470E+02 0.  0.
        -13    1    3    3    0    0  0.67293218151E+02 -0.53124352733E+02  0.39315136430E+03  0.40239106515E+03  0.00000000000E+00 0.  1.
         13    1    3    3    0    0  0.84726200847E+02  0.21580907581E+02  0.22263774761E+03  0.23918994825E+03  0.00000000000E+00 0. -1.
        -13    1    4    4    0    0  0.23569223509E+02  0.38383857369E+02  0.79082513140E+02  0.91010288912E+02  0.00000000000E+00 0.  1.
         13    1    4    4    0    0 -0.45502870078E+02  0.16473577231E+03  0.60889641100E+03  0.63242645833E+03  0.00000000000E+00 0. -1.
         21    1    1    2  503  502 -0.10243618602E+03 -0.10045961089E+03  0.83530019750E+03  0.84753272832E+03  0.00000000000E+00 0.  1.
          1    1    1    2  501    0 -0.27649586405E+02 -0.71116573639E+02  0.31007688863E+01  0.76365446651E+02  0.00000000000E+00 0.  1.
<scales pt_clust_5="13000.00000" pt_clust_6="13000.00000" pt_clust_7="13000.00000" pt_clust_8="13000.00000" pt_clust_9="155.13949" pt_clust_10="76.30247"></scales>
<clustering>
<clus scale="   76.302">  2 10  1 -1</clus>
<clus scale="   91.143">  7  8 -1 -1</clus>
<clus scale="   91.242">  5  6 -1 -1</clus>
<clus scale="  155.139">  1  9  2 -1</clus>
<clus scale="  170.593">  2  7  1 -1</clus>
<clus scale="   76.302">  2  5  1 -1</clus>
</clustering>
</event>
<event>
10    2  0.3544405E-006  0.1150692E+03  0.7546771E-02  0.1251712E+00
         -2   -1    0    0    0  501 -0.00000000000E+00  0.00000000000E+00  0.90665636916E+02  0.90665636916E+02  0.00000000000E+00 0.  1.
         21   -1    0    0  503  502  0.00000000000E+00 -0.00000000000E+00 -0.48787900684E+03  0.48787900684E+03  0.00000000000E+00 0. -1.
         23    2    1    2    0    0  0.32391369389E+02  0.50657881951E+02 -0.90731859458E+02  0.14183815154E+03  0.90941569692E+02 0.  0.
         23    2    1    2    0    0 -0.81228219093E+02 -0.47782667055E+02 -0.16044837346E+03  0.20679278544E+03  0.90212907688E+02 0.  0.
        -13    1    3    3    0    0  0.52173660407E+02 -0.24466479604E+01 -0.46865492225E+02  0.70174434718E+02  0.00000000000E+00 0.  1.
         13    1    3    3    0    0 -0.19782291018E+02  0.53104529911E+02 -0.43866367233E+02  0.71663716825E+02  0.00000000000E+00 0. -1.
        -13    1    4    4    0    0 -0.57586644322E+02 -0.16311222534E+02 -0.15611239505E+03  0.16719257601E+03  0.00000000000E+00 0. -1.
         13    1    4    4    0    0 -0.23641574771E+02 -0.31471444522E+02 -0.43359784160E+01  0.39600209428E+02  0.00000000000E+00 0.  1.
         21    1    1    2  503  501  0.12868014188E+02 -0.20787602737E+02  0.35989798869E+02  0.43508342181E+02  0.00000000000E+00 0.  1.
         -2    1    1    2    0  502  0.35968835516E+02  0.17912387842E+02 -0.18202293587E+03  0.18640536460E+03  0.00000000000E+00 0.  1.
<scales pt_clust_5="13000.00000" pt_clust_6="13000.00000" pt_clust_7="13000.00000" pt_clust_8="13000.00000" pt_clust_9="24.44811" pt_clust_10="40.29276"></scales>
<clustering>
<clus scale="   24.448">  1  9  2 -1</clus>
<clus scale="   40.293">  2 10  1 -1</clus>
<clus scale="   90.213">  7  8 -1 -1</clus>
<clus scale="   90.942">  5  6 -1 -1</clus>
<clus scale="  114.494">  2  7  1 -1</clus>
<clus scale="   40.293">  2  5  1 -1</clus>
</clustering>
</event>
<event>
10    2  0.3544405E-006  0.9518768E+02  0.7546771E-02  0.1291491E+00
          1   -1    0    0  503    0 -0.00000000000E+00  0.00000000000E+00  0.67490091483E+03  0.67490091483E+03  0.00000000000E+00 0. -1.
         21   -1    0    0  501  502  0.00000000000E+00 -0.00000000000E+00 -0.31605983858E+02  0.31605983858E+02  0.00000000000E+00 0.  1.
         23    2    1    2    0    0  0.28952899143E+01  0.16948980594E+02  0.29601606024E+03  0.31013634591E+03  0.90903214952E+02 0.  0.
         23    2    1    2    0    0 -0.30986656238E+02 -0.31589476908E+02  0.22243658708E+03  0.24483864355E+03  0.92248892610E+02 0.  0.
        -11    1    4    4    0    0 -0.51082992062E+02  0.16463879712E+01  0.18086117877E+03  0.18794400405E+03  0.00000000000E+00 0.  1.
         11    1    4    4    0    0  0.20096335824E+02 -0.33235864879E+02  0.41575408302E+02  0.56894639495E+02  0.00000000000E+00 0. -1.
        -11    1    3    3    0    0 -0.28293533692E+02  0.42549512208E+02  0.14167756235E+03  0.15061048008E+03  0.00000000000E+00 0.  1.
         11    1    3    3    0    0  0.31188823606E+02 -0.25600531614E+02  0.15433849789E+03  0.15952586583E+03  0.00000000000E+00 0. -1.
         21    1    1    2  503  502  0.12268826596E+01 -0.21291287538E+02  0.95667795825E+02  0.98016076866E+02  0.00000000000E+00 0. -1.
          1    1    1    2  501    0  0.26864483664E+02  0.35931783852E+02  0.29174487829E+02  0.53515832362E+02  0.00000000000E+00 0. -1.
<scales pt_clust_5="13000.00000" pt_clust_6="13000.00000" pt_clust_7="13000.00000" pt_clust_8="13000.00000" pt_clust_9="21.32661" pt_clust_10="43.70810"></scales>
<clustering>
<clus scale="   21.327">  1  9  2 -1</clus>
<clus scale="   43.708">  2 10  1 -1</clus>
<clus scale="   90.903">  7  8 -1 -1</clus>
<clus scale="   92.249">  5  6 -1 -1</clus>
<clus scale="   93.884">  1  7  2 -1</clus>
<clus scale="   43.708">  2  5  1 -1</clus>
</clustering>
</event>
<event>
10    2  0.3544405E-006  0.1132991E+03  0.7546771E-02  0.1255252E+00
         -1   -1    0    0    0  501 -0.00000000000E+00  0.00000000000E+00  0.25894294404E+03  0.25894294404E+03  0.00000000000E+00 0.  1.
         21   -1    0    0  503  502  0.00000000000E+00 -0.00000000000E+00 -0.31390322880E+03  0.31390322880E+03  0.00000000000E+00 0. -1.
         23    2    1    2    0    0 -0.38874088433E+02  0.79921679021E+02 -0.54445733220E+01  0.12803150262E+03  0.91998656273E+02 0.  0.
         23    2    1    2    0    0  0.27011429513E+02 -0.63036540605E+02 -0.53629197750E+02  0.12532113342E+03  0.90144732820E+02 0.  0.
        -11    1    4    4    0    0  0.45269603527E+02 -0.74732339276E+01 -0.48258499360E+02  0.66588805285E+02  0.00000000000E+00 0.  1.
         11    1    4    4    0    0 -0.18258174014E+02 -0.55563306677E+02 -0.53706983898E+01  0.58732328137E+02  0.00000000000E+00 0. -1.
        -11    1    3    3    0    0 -0.24420235769E+02  0.10847367059E+02  0.37030373534E+02  0.45664667426E+02  0.00000000000E+00 0.  1.
         11    1    3    3    0    0 -0.14453852664E+02  0.69074311962E+02 -0.42474946856E+02  0.82366835196E+02  0.00000000000E+00 0. -1.
         21    1    1    2  503  501  0.61111727366E+02 -0.37858929064E+02  0.14878203707E+03  0.16523933032E+03  0.00000000000E+00 0.  1.
         -1    1    1    2    0  502 -0.49249068446E+02  0.20973790648E+02 -0.14466855075E+03  0.15425420647E+03  0.00000000000E+00 0.  1.
<scales pt_clust_5="13000.00000" pt_clust_6="13000.00000" pt_clust_7="13000.00000" pt_clust_8="13000.00000" pt_clust_9="69.24189" pt_clust_10="53.52916"></scales>
<clustering>
<clus scale="   53.529">  2 10  1 -1</clus>
<clus scale="   69.242">  1  9  2 -1</clus>
<clus scale="   90.145">  5  6 -1 -1</clus>
<clus scale="   91.999">  7  8 -1 -1</clus>
<clus scale="  111.799">  2  5  1 -1</clus>
<clus scale="   53.529">  2  5  1 -1</clus>
</clustering>
</event>
<event>
10    2  0.3544405E-006  0.1381692E+03  0.7546771E-02  0.1219928E+00
         21   -1    0    0  501  502  0.00000000000E+00  0.00000000000E+00  0.83975796435E+02  0.83975796435E+02  0.00000000000E+00 0.  1.
          1   -1    0    0  503    0 -0.00000000000E+00 -0.00000000000E+00 -0.33242118297E+03  0.33242118297E+03  0.00000000000E+00 0. -1.
         23    2    1    2    0    0 -0.54779547444E+02 -0.75165250724E+02 -0.13967466275E+03  0.19115714237E+03  0.91550138872E+02 0.  0.
         23    2    1    2    0    0  0.46248099570E+02  0.75678010864E+02 -0.64191100545E+02  0.15299352101E+03  0.10686660863E+03 0.  0.
        -11    1    4    4    0    0  0.10697524894E+02  0.88722515032E+02 -0.71473320083E+02  0.11443145195E+03  0.00000000000E+00 0. -1.
         11    1    4    4    0    0  0.35550574676E+02 -0.13044504168E+02  0.72822195374E+01  0.38562069060E+02  0.00000000000E+00 0.  1.
        -11    1    3    3    0    0 -0.40892280517E+02 -0.20683830538E+02 -0.60973110158E+01  0.46229607972E+02  0.00000000000E+00 0. -1.
         11    1    3    3    0    0 -0.13887266927E+02 -0.54481420186E+02 -0.13357735174E+03  0.14492753439E+03  0.00000000000E+00 0.  1.
         21    1    1    2  503  502  0.32511289193E+02 -0.75965575642E+00 -0.29579668313E+02  0.43960411502E+02  0.00000000000E+00 0.  1.
          1    1    1    2  501    0 -0.23979841320E+02  0.24689561590E+00 -0.14999954926E+02  0.28285904528E+02  0.00000000000E+00 0. -1.
<scales pt_clust_5="13000.00000" pt_clust_6="13000.00000" pt_clust_7="13000.00000" pt_clust_8="13000.00000" pt_clust_9="30.29061" pt_clust_10="23.98111"></scales>
<clustering>
<clus scale="   23.981">  1 10  2 -1</clus>
<clus scale="   30.291">  2  9  1 -1</clus>
<clus scale="   91.550">  7  8 -1 -1</clus>
<clus scale="  106.867">  5  6 -1 -1</clus>
<clus scale="  126.695">  2  7  1 -1</clus>
<clus scale="   23.981">  1  5  2 -1</clus>
</clustering>
</event>
<event>
10    2  0.3544405E-006  0.1226546E+03  0.7546771E-02  0.1238991E+00
          2   -1    0    0  503    0 -0.00000000000E+00  0.00000000000E+00  0.89135854673E+03  0.89135854673E+03  0.00000000000E+00 0. -1.
         21   -1    0    0  501  502  0.00000000000E+00 -0.00000000000E+00 -0.57170471632E+02  0.57170471632E+02  0.00000000000E+00 0. -1.
         23    2    1    2    0    0 -0.13264427092E+00  0.42727633145E+02  0.19783117445E+03  0.22227243837E+03  0.91881418377E+02 0.  0.
         23    2    1    2    0    0  0.68315409199E+02 -0.10920703060E+03  0.18299377452E+03  0.24164837587E+03  0.91181387238E+02 0.  0.
        -11    1    4    4    0    0  0.85365724158E+02 -0.76768273479E+02  0.10547051036E+03  0.15589965757E+03  0.00000000000E+00 0. -1.
         11    1    4    4    0    0 -0.17050314959E+02 -0.32438757121E+02  0.77523264160E+02  0.85748718298E+02  0.00000000000E+00 0.  1.
        -13    1    3    3    0    0 -0.32872965293E+02  0.52452119662E+02  0.90556378180E+02  0.10969190642E+03  0.00000000000E+00 0. -1.
         13    1    3    3    0    0  0.32740321022E+02 -0.97244865164E+01  0.10727479627E+03  0.11258053195E+03  0.00000000000E+00 0.  1.
         21    1    1    2  503  502 -0.75849281305E+02  0.30996039359E+02  0.43730123985E+03  0.44491149941E+03  0.00000000000E+00 0. -1.
          2    1    1    2  501    0  0.76665163763E+01  0.35483358095E+02  0.16061886270E+02  0.39696704720E+02  0.00000000000E+00 0. -1.
<scales pt_clust_5="13000.00000" pt_clust_6="13000.00000" pt_clust_7="13000.00000" pt_clust_8="13000.00000" pt_clust_9="82.52347" pt_clust_10="36.30212"></scales>
<clustering>
<clus scale="   36.302">  2 10  1 -1</clus>
<clus scale="   82.523">  1  9  2 -1</clus>
<clus scale="   91.181">  5  6 -1 -1</clus>
<clus scale="   91.881">  7  8 -1 -1</clus>
<clus scale="  122.131">  2  5  1 -1</clus>
<clus scale="   36.302">  2  5  1 -1</clus>
</clustering>
</event>
<event>
10    2  0.3544405E-006  0.2029637E+03  0.7546771E-02  0.1147377E+00
          1   -1    0    0  503    0 -0.00000000000E+00  0.00000000000E+00  0.20468793329E+03  0.20468793329E+03  0.00000000000E+00 0. -1.
         21   -1    0    0  501  502  0.00000000000E+00 -0.00000000000E+00 -0.72278426342E+03  0.72278426342E+03  0.00000000000E+00 0.  1.
         23    2    1    2    0    0 -0.72697473298E+02 -0.14602448740E+03  0.21760428442E+02  0.18805591804E+03  0.91013397479E+02 0.  0.
         23    2    1    2    0    0  0.93233825000E+02  0.27993293775E+03 -0.48149520543E+03  0.57218880769E+03  0.92235584424E+02 0.  0.
        -11    1    3    3    0    0 -0.18400666300E+02 -0.11965230375E+03  0.35485622223E+02  0.12615263650E+03  0.00000000000E+00 0. -1.
         11    1    3    3    0    0 -0.54296806998E+02 -0.26372183649E+02 -0.13725193781E+02  0.61903281536E+02  0.00000000000E+00 0.  1.
        -11    1    4    4    0    0  0.34745795063E+02  0.86325527553E+02 -0.80360304723E+02  0.12295180176E+03  0.00000000000E+00 0. -1.
         11    1    4    4    0    0  0.58488029937E+02  0.19360741019E+03 -0.40113490071E+03  0.44923700593E+03  0.00000000000E+00 0.  1.
         21    1    1    2  503  502 -0.32010114116E+02 -0.16033262848E+02 -0.26626360370E+02  0.44616992165E+02  0.00000000000E+00 0.  1.
          1    1    1    2  501    0  0.11473762415E+02 -0.11787518750E+03 -0.31735192765E+02  0.12261047880E+03  0.00000000000E+00 0. -1.
<scales pt_clust_5="13000.00000" pt_clust_6="13000.00000" pt_clust_7="13000.00000" pt_clust_8="13000.00000" pt_clust_9="35.80102" pt_clust_10="119.93496"></scales>
<clustering>
<clus scale="   35.801">  2  9  1 -1</clus>
<clus scale="   91.013">  5  6 -1 -1</clus>
<clus scale="   92.236">  7  8 -1 -1</clus>
<clus scale="  119.935">  2 10  1 -1</clus>
<clus scale="  202.411">  1  5  2 -1</clus>
<clus scale="   35.801">  2  5  1 -1</clus>
</clustering>
</event>
<event>
10    2  0.3544405E-006  0.1444900E+03  0.7546771E-02  0.1207859E+00
         21   -1    0    0  503  502  0.00000000000E+00  0.00000000000E+00  0.12829032417E+03  0.12829032417E+03  0.00000000000E+00 0. -1.
         -2   -1    0    0    0  501 -0.00000000000E+00 -0.00000000000E+00 -0.77410244060E+03  0.77410244060E+03  0.00000000000E+00 0. -1.
         23    2    1    2    0    0 -0.10108004541E+02 -0.89461648316E+02 -0.42965449522E+03  0.44854018264E+03  0.92085568412E+02 0.  0.
         23    2    1    2    0    0 -0.76931846216E+01  0.13771357510E+03 -0.16343188863E+03  0.23198683791E+03  0.89909381528E+02 0.  0.
        -11    1    3    3    0    0 -0.39193442134E+02 -0.16626326113E+02 -0.84890624269E+02  0.94968303739E+02  0.00000000000E+00 0. -1.
         11    1    3    3    0    0  0.29085437592E+02 -0.72835322204E+02 -0.34476387095E+03  0.35357187891E+03  0.00000000000E+00 0.  1.
        -11    1    4    4    0    0  0.39136337750E+02  0.52021419455E+02 -0.48553912408E+02  0.81211842885E+02  0.00000000000E+00 0.  1.
         11    1    4    4    0    0 -0.46829522371E+02  0.85692155646E+02 -0.11487797622E+03  0.15077499503E+03  0.00000000000E+00 0. -1.
         21    1    1    2  503  501 -0.13452346193E+02 -0.19997016853E+02 -0.13087880901E+03  0.13307933329E+03  0.00000000000E+00 0. -1.
         -2    1    1    2    0  502  0.31253535356E+02 -0.28254909931E+02  0.78153076435E+02  0.88786410918E+02  0.00000000000E+00 0. -1.
<scales pt_clust_5="13000.00000" pt_clust_6="13000.00000" pt_clust_7="13000.00000" pt_clust_8="13000.00000" pt_clust_9="24.10075" pt_clust_10="42.16109"></scales>
<clustering>
<clus scale="   24.101">  2  9  1 -1</clus>
<clus scale="   42.161">  1 10  2 -1</clus>
<clus scale="   89.909">  7  8 -1 -1</clus>
<clus scale="   92.086">  5  6 -1 -1</clus>
<clus scale="  143.113">  1  7  2 -1</clus>
<clus scale="   42.161">  1  5  2 -1</clus>
</clustering>
</event>
<event>
10    2  0.3544405E-006  0.1231525E+03  0.7546771E-02  0.1238449E+00
         21   -1    0    0  503  502  0.00000000000E+00  0.00000000000E+00  0.81655627113E+03  0.81655627113E+03  0.00000000000E+00 0.  1.
         -3   -1    0    0    0  501 -0.00000000000E+00 -0.00000000000E+00 -0.52613142563E+02  0.52613142563E+02  0.00000000000E+00 0.  1.
         23    2    1    2    0    0  0.34013978943E+02 -0.56795974210E+02  0.93447145609E+02  0.14669180299E+03  0.91669965587E+02 0.  0.
         23    2    1    2    0    0 -0.53946043219E+01  0.67623643747E+02  0.32644573894E+03  0.34538152228E+03  0.90108359817E+02 0.  0.
        -13    1    4    4    0    0 -0.35214221470E+02  0.18746567602E+02  0.54890847330E+02  0.67856321085E+02  0.00000000000E+00 0. -1.
         13    1    4    4    0    0  0.29819617148E+02  0.48877076144E+02  0.27155489161E+03  0.27752520119E+03  0.00000000000E+00 0.  1.
        -13    1    3    3    0    0  0.63859706483E+02 -0.51266786696E+02  0.75758210345E+02  0.11156008231E+03  0.00000000000E+00 0. -1.
         13    1    3    3    0    0 -0.29845727539E+02 -0.55291875139E+01  0.17688935264E+02  0.35131720676E+02  0.00000000000E+00 0.  1.
         21    1    1    2  503  501  0.27540046307E+02 -0.56240803396E+02  0.71068585372E+02  0.94721834569E+02  0.00000000000E+00 0.  1.
         -3    1    1    2    0  502 -0.56159420929E+02  0.45413133860E+02  0.27298165864E+03  0.28237425386E+03  0.00000000000E+00 0.  1.
<scales pt_clust_5="13000.00000" pt_clust_6="13000.00000" pt_clust_7="13000.00000" pt_clust_8="13000.00000" pt_clust_9="62.62174" pt_clust_10="65.75627"></scales>
<clustering>
<clus scale="   62.622">  2  9  1 -1</clus>
<clus scale="   65.756">  1 10  2 -1</clus>
<clus scale="   90.108">  5  6 -1 -1</clus>
<clus scale="   91.670">  7  8 -1 -1</clus>
<clus scale="  121.995">  1  5  2 -1</clus>
<clus scale="   65.756">  1  5  2 -1</clus>
</clustering>
</event>
<event>
10    2  0.3544405E-006  0.1413850E+03  0.7546771E-02  0.1226872E+00
         21   -1    0    0  501  502  0.00000000000E+00  0.00000000000E+00  0.35685522102E+03  0.35685522102E+03  0.00000000000E+00 0. -1.
          1   -1    0    0  503    0 -0.00000000000E+00 -0.00000000000E+00 -0.66251240389E+03  0.66251240389E+03  0.00000000000E+00 0. -1.
         23    2    1    2    0    0 -0.26938863563E+02  0.24092648065E+02 -0.46138038525E+03  0.47197612208E+03  0.92646866409E+02 0.  0.
         23    2    1    2    0    0 -0.31146343721E+02 -0.13884388963E+03 -0.11006933101E+03  0.20050204173E+03  0.88532992111E+02 0.  0.
        -13    1    3    3    0    0  0.68625664238E+01 -0.32220933710E+02 -0.18400126168E+03  0.18692711865E+03  0.00000000000E+00 0.  1.
         13    1    3    3    0    0 -0.33801429987E+02  0.56313581775E+02 -0.27737912358E+03  0.28504900343E+03  0.00000000000E+00 0. -1.
        -13    1    4    4    0    0 -0.31586197771E+02 -0.29089242785E+02 -0.72931189829E+02  0.84633506280E+02  0.00000000000E+00 0. -1.
         13    1    4    4    0    0  0.43985404975E+00 -0.10975464685E+03 -0.37138141182E+02  0.11586853545E+03  0.00000000000E+00 0.  1.
         21    1    1    2  503  502  0.78035948665E+01  0.18596186501E+02 -0.27537836852E+02  0.34132780486E+02  0.00000000000E+00 0.  1.
          1    1    1    2  501    0  0.50281612418E+02  0.96155055064E+02  0.29333037025E+03  0.31275668062E+03  0.00000000000E+00 0. -1.
<scales pt_clust_5="13000.00000" pt_clust_6="13000.00000" pt_clust_7="13000.00000" pt_clust_8="13000.00000" pt_clust_9="20.16716" pt_clust_10="110.23437"></scales>
<clustering>
<clus scale="   20.167">  2  9  1 -1</clus>
<clus scale="   88.533">  7  8 -1 -1</clus>
<clus scale="   92.647">  5  6 -1 -1</clus>
<clus scale="  102.289">  2  5  1 -1</clus>
<clus scale="  110.234">  1 10  2 -1</clus>
<clus scale="  110.234">  1  5  2 -1</clus>
</clustering>
</event>
<event>
10    2  0.3544405E-006  0.1278828E+03  0.7546771E-02  0.1231402E+00
         -1   -1    0    0    0  501 -0.00000000000E+00  0.00000000000E+00  0.74949644726E+03  0.74949644726E+03  0.00000000000E+00 0.  1.
         21   -1    0    0  503  502  0.00000000000E+00 -0.00000000000E+00 -0.39951090064E+02  0.39951090064E+02  0.00000000000E+00 0. -1.
         23    2    1    2    0    0 -0.10028384430E+03 -0.38895946168E+02  0.26451504096E+03  0.29983509007E+03  0.91450151927E+02 0.  0.
         23    2    1    2    0    0  0.51865922492E+02  0.64332629654E+02  0.19525084361E+03  0.22979023898E+03  0.88610952180E+02 0.  0.
        -11    1    4    4    0    0  0.26133086688E+02  0.71022167931E+02  0.74674734000E+02  0.10631746073E+03  0.00000000000E+00 0. -1.
         11    1    4    4    0    0  0.25732835804E+02 -0.66895382770E+01  0.12057610961E+03  0.12347277826E+03  0.00000000000E+00 0.  1.
        -13    1    3    3    0    0  0.15054697016E+02 -0.17984272915E+02  0.54267409550E+02  0.59118776322E+02  0.00000000000E+00 0.  1.
         13    1    3    3    0    0 -0.11533854132E+03 -0.20911673253E+02  0.21024763141E+03  0.24071631375E+03  0.00000000000E+00 0. -1.
         21    1    1    2  503  501  0.42367643361E+02  0.15717078983E+01  0.17564944007E+03  0.18069370013E+03  0.00000000000E+00 0. -1.
         -1    1    1    2    0  502  0.60502784461E+01 -0.27008391385E+02  0.74130032552E+02  0.79128508141E+02  0.00000000000E+00 0.  1.
<scales pt_clust_5="13000.00000" pt_clust_6="13000.00000" pt_clust_7="13000.00000" pt_clust_8="13000.00000" pt_clust_9="42.77580" pt_clust_10="27.67779"></scales>
<clustering>
<clus scale="   27.678">  2 10  1 -1</clus>
<clus scale="   42.776">  1  9  2 -1</clus>
<clus scale="   88.611">  5  6 -1 -1</clus>
<clus scale="   91.450">  7  8 -1 -1</clus>
<clus scale="  125.868">  2  5  1 -1</clus>
<clus scale="   27.678">  2  5  1 -1</clus>
</clustering>
</event>
<event>
10    2  0.3544405E-006  0.2141325E+03  0.7546771E-02  0.1138729E+00
          2   -1    0    0  503    0 -0.00000000000E+00  0.00000000000E+00  0.23570261996E+03  0.23570261996E+03  0.00000000000E+00 0. -1.
         21   -1    0    0  501  502  0.00000000000E+00 -0.00000000000E+00 -0.46514715817E+03  0.46514715817E+03  0.00000000000E+00 0. -1.
         23    2    1    2    0    0 -0.42338606403E+02  0.19829600682E+03 -0.40875078398E+02  0.22705037151E+03  0.93633515659E+02 0.  0.
         23    2    1    2    0    0 -0.65374305726E+02 -0.18567303141E+03 -0.17463045426E+02  0.21668738660E+03  0.88883019272E+02 0.  0.
        -11    1    4    4    0    0 -0.69405692933E+01 -0.85876613683E+02 -0.45866949546E+02  0.97605027229E+02  0.00000000000E+00 0.  1.
         11    1    4    4    0    0 -0.58433736433E+02 -0.99796417726E+02  0.28403904120E+02  0.11908235937E+03  0.00000000000E+00 0. -1.
        -11    1    3    3    0    0 -0.22892352142E+02  0.16136153267E+03  0.75080274444E+01  0.16315015933E+03  0.00000000000E+00 0. -1.
         11    1    3    3    0    0 -0.19446254261E+02  0.36934474146E+02 -0.48383105843E+02  0.63900212177E+02  0.00000000000E+00 0.  1.
         21    1    1    2  503  502 -0.34857704817E+02 -0.23116467440E+02 -0.12645255111E+02  0.43695916615E+02  0.00000000000E+00 0.  1.
          2    1    1    2  501    0  0.14257061695E+03  0.10493492028E+02 -0.15846115928E+03  0.21341610340E+03  0.00000000000E+00 0. -1.
<scales pt_clust_5="13000.00000" pt_clust_6="13000.00000" pt_clust_7="13000.00000" pt_clust_8="13000.00000" pt_clust_9="41.82620" pt_clust_10="138.42974"></scales>
<clustering>
<clus scale="   41.826">  1  9  2 -1</clus>
<clus scale="   88.883">  5  6 -1 -1</clus>
<clus scale="   93.634">  7  8 -1 -1</clus>
<clus scale="  138.430">  2 10  1 -1</clus>
<clus scale="  212.098">  2  5  1 -1</clus>
<clus scale="  138.430">  2  5  1 -1</clus>
</clustering>
</event>
<event>
10    2  0.3544405E-006  0.2271471E+03  0.7546771E-02  0.1128685E+00
         21   -1    0    0  501  502  0.00000000000E+00  0.00000000000E+00  0.19726138490E+03  0.19726138490E+03  0.00000000000E+00 0. -1.
          1   -1    0    0  503    0 -0.00000000000E+00 -0.00000000000E+00 -0.84430881825E+03  0.84430881825E+03  0.00000000000E+00 0. -1.
         23    2    1    2    0    0 -0.44360509225E+02 -0.18924791617E+03 -0.33327818130E+03  0.39679258844E+03  0.92668136698E+02 0.  0.
         23    2    1    2    0    0  0.51598007065E+02  0.25153370725E+03 -0.34226984167E+02  0.27502028854E+03  0.92374847492E+02 0.  0.
        -11    1    3    3    0    0  0.21948575699E+02 -0.98138286746E+01 -0.37137570825E+02  0.44240822497E+02  0.00000000000E+00 0.  1.
         11    1    3    3    0    0 -0.66309084924E+02 -0.17943408750E+03 -0.29614061047E+03  0.35255176595E+03  0.00000000000E+00 0. -1.
        -13    1    4    4    0    0  0.16686430314E+02  0.16501192636E+02  0.20531258700E+02  0.31181066351E+02  0.00000000000E+00 0.  1.
         13    1    4    4    0    0  0.34911576752E+02  0.23503251461E+03 -0.54758242867E+02  0.24383922219E+03  0.00000000000E+00 0. -1.
         21    1    1    2  503  502 -0.99823818586E+02  0.12092506671E+02 -0.52274167274E+02  0.11332966090E+03  0.00000000000E+00 0. -1.
          1    1    1    2  501    0  0.92586320746E+02 -0.74378297742E+02 -0.22726810061E+03  0.25642766528E+03  0.00000000000E+00 0. -1.
<scales pt_clust_5="13000.00000" pt_clust_6="13000.00000" pt_clust_7="13000.00000" pt_clust_8="13000.00000" pt_clust_9="100.55359" pt_clust_10="111.39131"></scales>
<clustering>
<clus scale="   92.375">  7  8 -1 -1</clus>
<clus scale="   92.668">  5  6 -1 -1</clus>
<clus scale="  100.554">  1  9  2 -1</clus>
<clus scale="  111.391">  1 10  2 -1</clus>
<clus scale="  227.028">  1  7  2 -1</clus>
<clus scale="  100.554">  1  5  2 -1</clus>
</clustering>
</event>
<event>
10    2  0.3544405E-006  0.9126655E+02  0.7546771E-02  0.1300462E+00
         21   -1    0    0  501  502  0.00000000000E+00  0.00000000000E+00  0.38912689449E+02  0.38912689449E+02  0.00000000000E+00 0. -1.
          1   -1    0    0  503    0 -0.00000000000E+00 -0.00000000000E+00 -0.65493849942E+03  0.65493849942E+03  0.00000000000E+00 0. -1.
         23    2    1    2    0    0 -0.95298057897E+01  0.11365223718E+02 -0.35942251623E+03  0.37084819695E+03  0.90132427547E+02 0.  0.
         23    2    1    2    0    0 -0.10716123300E+02  0.79277506827E+00 -0.20465141151E+03  0.22431780004E+03  0.91218481643E+02 0.  0.
        -13    1    3    3    0    0 -0.43732176893E+02 -0.16401623085E+02 -0.20581030662E+03  0.21104359466E+03  0.00000000000E+00 0.  1.
         13    1    3    3    0    0  0.34202371103E+02  0.27766846803E+02 -0.15361220961E+03  0.15980460228E+03  0.00000000000E+00 0. -1.
        -13    1    4    4    0    0 -0.19720783251E+02  0.29264919716E+02 -0.27694769090E+02  0.44859169107E+02  0.00000000000E+00 0.  1.
         13    1    4    4    0    0  0.90046599511E+01 -0.28472144648E+02 -0.17695664242E+03  0.17945863094E+03  0.00000000000E+00 0. -1.
         21    1    1    2  503  502 -0.45092911563E+01 -0.22114643058E+02 -0.65127201357E+02  0.68927088296E+02  0.00000000000E+00 0.  1.
          1    1    1    2  501    0  0.24755220246E+02  0.99566442716E+01  0.13175319128E+02  0.29758103581E+02  0.00000000000E+00 0. -1.
<scales pt_clust_5="13000.00000" pt_clust_6="13000.00000" pt_clust_7="13000.00000" pt_clust_8="13000.00000" pt_clust_9="22.56970" pt_clust_10="26.50845"></scales>
<clustering>
<clus scale="   22.570">  2  9  1 -1</clus>
<clus scale="   26.508">  1 10  2 -1</clus>
<clus scale="   90.132">  5  6 -1 -1</clus>
<clus scale="   90.181">  2  5  1 -1</clus>
<clus scale="   91.218">  7  8 -1 -1</clus>
<clus scale="   26.508">  1  5  2 -1</clus>
</clustering>
</event>
<event>
10    2  0.3544405E-006  0.1026152E+03  0.7546771E-02  0.1275365E+00
          2   -1    0    0  503    0 -0.00000000000E+00  0.00000000000E+00  0.37358599521E+03  0.37358599521E+03  0.00000000000E+00 0. -1.
         21   -1    0    0  501  502  0.00000000000E+00 -0.00000000000E+00 -0.73008420394E+02  0.73008420394E+02  0.00000000000E+00 0.  1.
         23    2    1    2    0    0  0.15408607991E+02  0.42583167116E+02  0.17986488117E+03  0.20700002364E+03  0.91906925682E+02 0.  0.
         23    2    1    2    0    0  0.21013599836E+02 -0.44963871127E+02  0.10068456787E+03  0.14573016403E+03  0.92933187920E+02 0.  0.
        -11    1    4    4    0    0 -0.30277487457E+02 -0.96482406406E+01  0.68765734109E+02  0.75753158230E+02  0.00000000000E+00 0. -1.
         11    1    4    4    0    0  0.51291087293E+02 -0.35315630486E+02  0.31918833756E+02  0.69977005800E+02  0.00000000000E+00 0.  1.
        -13    1    3    3    0    0  0.39201935981E+02  0.58168247111E+02  0.15089024252E+03  0.16639772248E+03  0.00000000000E+00 0. -1.
         13    1    3    3    0    0 -0.23793327990E+02 -0.15585079994E+02  0.28974638642E+02  0.40602301163E+02  0.00000000000E+00 0.  1.
         21    1    1    2  503  502 -0.37464440578E+02 -0.21572069904E+02  0.42774070514E+02  0.60815784268E+02  0.00000000000E+00 0.  1.
          2    1    1    2  501    0  0.10422327515E+01  0.23952773915E+02 -0.22745944728E+02  0.33048443668E+02  0.00000000000E+00 0. -1.
<scales pt_clust_5="13000.00000" pt_clust_6="13000.00000" pt_clust_7="13000.00000" pt_clust_8="13000.00000" pt_clust_9="40.86142" pt_clust_10="23.97544"></scales>
<clustering>
<clus scale="   23.975">  2 10  1 -1</clus>
<clus scale="   40.861">  2  9  1 -1</clus>
<clus scale="   91.907">  7  8 -1 -1</clus>
<clus scale="   92.933">  5  6 -1 -1</clus>
<clus scale="  101.687">  1  7  2 -1</clus>
<clus scale="   23.975">  2  5  1 -1</clus>
</clustering>
</event>
<event>
10    2  0.3544405E-006  0.1068091E+03  0.7546771E-02  0.1267767E+00
         21   -1    0    0  501  502  0.00000000000E+00  0.00000000000E+00  0.10050632368E+03  0.10050632368E+03  0.00000000000E+00 0. -1.
          1   -1    0    0  503    0 -0.00000000000E+00 -0.00000000000E+00 -0.46794321463E+03  0.46794321463E+03  0.00000000000E+00 0. -1.
         23    2    1    2    0    0 -0.21427926783E+02  0.22628711906E+02 -0.15646235347E+03  0.18336135132E+03  0.90386406365E+02 0.  0.
         23    2    1    2    0    0  0.10889621372E+03 -0.17986090158E+02 -0.76466478822E+02  0.16342066508E+03  0.93152061643E+02 0.  0.
        -11    1    4    4    0    0 -0.12511913475E+02 -0.19107652035E+02 -0.15101709971E+02  0.27380869036E+02  0.00000000000E+00 0.  1.
         11    1    4    4    0    0  0.12140812720E+03  0.11215618766E+01 -0.61364768851E+02  0.13603979604E+03  0.00000000000E+00 0. -1.
        -11    1    3    3    0    0  0.11645045854E+02  0.49382228479E+02 -0.64722267063E+02  0.82238576327E+02  0.00000000000E+00 0. -1.
         11    1    3    3    0    0 -0.33072972637E+02 -0.26753516574E+02 -0.91740086405E+02  0.10112277499E+03  0.00000000000E+00 0.  1.
         21    1    1    2  503  502 -0.17817419648E+02 -0.15809657901E+02 -0.14795216215E+03  0.14985742561E+03  0.00000000000E+00 0. -1.
          1    1    1    2  501    0 -0.69650867293E+02  0.11167036153E+02  0.13444103493E+02  0.71810096295E+02  0.00000000000E+00 0. -1.
<scales pt_clust_5="13000.00000" pt_clust_6="13000.00000" pt_clust_7="13000.00000" pt_clust_8="13000.00000" pt_clust_9="23.82028" pt_clust_10="71.94045"></scales>
<clustering>
<clus scale="   23.820">  2  9  1 -1</clus>
<clus scale="   71.940">  1 10  2 -1</clus>
<clus scale="   90.386">  7  8 -1 -1</clus>
<clus scale="   93.152">  5  6 -1 -1</clus>
<clus scale="  104.406">  2  7  1 -1</clus>
<clus scale="   71.940">  1  5  2 -1</clus>
</clustering>
</event>
<event>
10    2  0.3544405E-006  0.1075379E+03  0.7546771E-02  0.1267218E+00
         21   -1    0    0  501  502  0.00000000000E+00  0.00000000000E+00  0.13017072269E+03  0.13017072269E+03  0.00000000000E+00 0. -1.
          2   -1    0    0  503    0 -0.00000000000E+00 -0.00000000000E+00 -0.38609616696E+03  0.38609616696E+03  0.00000000000E+00 0. -1.
         23    2    1    2    0    0  0.16973857137E+02 -0.49431568010E+02 -0.19458398607E+03  0.22177878287E+03  0.92689315225E+02 0.  0.
         23    2    1    2    0    0 -0.37356452542E+02  0.93212859165E+02 -0.31971659813E+02  0.13719820086E+03  0.87846557286E+02 0.  0.
        -11    1    3    3    0    0 -0.10366192222E+02 -0.70653280943E+02 -0.12192009086E+03  0.14129349810E+03  0.00000000000E+00 0.  1.
         11    1    3    3    0    0  0.27340049359E+02  0.21221712934E+02 -0.72663895208E+02  0.80485284776E+02  0.00000000000E+00 0. -1.
        -11    1    4    4    0    0 -0.27707647615E+02 -0.32549977727E+01  0.12457835719E+02  0.30553337259E+02  0.00000000000E+00 0.  1.
         11    1    4    4    0    0 -0.96488049270E+01  0.96467856938E+02 -0.44429495532E+02  0.10664486360E+03  0.00000000000E+00 0. -1.
         21    1    1    2  503  502  0.10373212470E+02  0.21827256504E+02 -0.73645238865E+02  0.77509056703E+02  0.00000000000E+00 0. -1.
          2    1    1    2  501    0  0.10009382936E+02 -0.65608547659E+02  0.44275440477E+02  0.79780849220E+02  0.00000000000E+00 0. -1.
<scales pt_clust_5="13000.00000" pt_clust_6="13000.00000" pt_clust_7="13000.00000" pt_clust_8="13000.00000" pt_clust_9="24.16677" pt_clust_10="65.22811"></scales>
<clustering>
<clus scale="   24.167">  2  9  1 -1</clus>
<clus scale="   65.228">  1 10  2 -1</clus>
<clus scale="   87.847">  7  8 -1 -1</clus>
<clus scale="   92.689">  5  6 -1 -1</clus>
<clus scale="  103.393">  1  7  2 -1</clus>
<clus scale="   65.228">  1  5  2 -1</clus>
</clustering>
</event>
<event>
10    2  0.3544405E-006  0.1339807E+03  0.7546771E-02  0.1221730E+00
         21   -1    0    0  501  502  0.00000000000E+00  0.00000000000E+00  0.69017679341E+03  0.69017679341E+03  0.00000000000E+00 0. -1.
          1   -1    0    0  503    0 -0.00000000000E+00 -0.00000000000E+00 -0.13893870625E+03  0.13893870625E+03  0.00000000000E+00 0. -1.
         23    2    1    2    0    0  0.73629994885E+02 -0.13355884443E+03  0.20899631636E+03  0.27430091766E+03  0.91116365747E+02 0.  0.
         23    2    1    2    0    0  0.28028872867E+02  0.70535082435E+02  0.17673354208E+03  0.21271936493E+03  0.90851349763E+02 0.  0.
        -13    1    4    4    0    0 -0.26614524648E+02 -0.12288879025E+01  0.55976892202E+02  0.61993996067E+02  0.00000000000E+00 0.  1.
         13    1    4    4    0    0  0.54643397515E+02  0.71763970338E+02  0.12075664987E+03  0.15072536886E+03  0.00000000000E+00 0. -1.
        -13    1    3    3    0    0  0.48681489130E+02 -0.10388291213E+03  0.20552459655E+03  0.23537609608E+03  0.00000000000E+00 0.  1.
         13    1    3    3    0    0  0.24948505755E+02 -0.29675932300E+02  0.34717198101E+01  0.38924821589E+02  0.00000000000E+00 0. -1.
         21    1    1    2  503  502 -0.52483192919E+02  0.49499019241E+02 -0.70361849912E+02  0.10077414533E+03  0.00000000000E+00 0. -1.
          1    1    1    2  501    0 -0.49175674832E+02  0.13524742756E+02  0.23587007863E+03  0.24132107172E+03  0.00000000000E+00 0. -1.
<scales pt_clust_5="13000.00000" pt_clust_6="13000.00000" pt_clust_7="13000.00000" pt_clust_8="13000.00000" pt_clust_9="73.66469" pt_clust_10="51.00162"></scales>
<clustering>
<clus scale="   51.002">  1 10  2 -1</clus>
<clus scale="   73.665">  2  9  1 -1</clus>
<clus scale="   90.851">  5  6 -1 -1</clus>
<clus scale="   91.116">  7  8 -1 -1</clus>
<clus scale="  133.801">  1  5  2 -1</clus>
<clus scale="   51.002">  1  5  2 -1</clus>
</clustering>
</event>
<event>
10    2  0.3544405E-006  0.9530706E+02  0.7546771E-02  0.1291354E+00
         21   -1    0    0  501  502  0.00000000000E+00  0.00000000000E+00  0.41384640920E+02  0.41384640920E+02  0.00000000000E+00 0.  1.
          4   -1    0    0  503    0 -0.00000000000E+00 -0.00000000000E+00 -0.64721144410E+03  0.64721144410E+03  0.00000000000E+00 0. -1.
         23    2    1    2    0    0 -0.39028665799E+02 -0.16898725440E+02 -0.44366154435E+03  0.45467331660E+03  0.89908037562E+02 0.  0.
         23    2    1    2    0    0  0.29811148259E+00  0.65739889614E+01 -0.82957170593E+02  0.12368788703E+03  0.91506803268E+02 0.  0.
        -11    1    3    3    0    0 -0.61153728503E+02 -0.35077988891E+02 -0.33153446982E+03  0.33894741258E+03  0.00000000000E+00 0. -1.
         11    1    3    3    0    0  0.22125062704E+02  0.18179263450E+02 -0.11212707453E+03  0.11572590402E+03  0.00000000000E+00 0.  1.
        -13    1    4    4    0    0 -0.31250621479E+02 -0.29991474868E+02 -0.35883684058E+02  0.56247032714E+02  0.00000000000E+00 0. -1.
         13    1    4    4    0    0  0.31548732961E+02  0.36565463830E+02 -0.47073486535E+02  0.67440854317E+02  0.00000000000E+00 0.  1.
         21    1    1    2  503  502  0.55362356480E+01  0.22525974163E+02 -0.69923620938E+02  0.73670768845E+02  0.00000000000E+00 0. -1.
          4    1    1    2  501    0  0.33194318669E+02 -0.12201237684E+02 -0.92844672974E+01  0.36564112541E+02  0.00000000000E+00 0. -1.
<scales pt_clust_5="13000.00000" pt_clust_6="13000.00000" pt_clust_7="13000.00000" pt_clust_8="13000.00000" pt_clust_9="23.19632" pt_clust_10="35.27507"></scales>
<clustering>
<clus scale="   23.196">  2  9  1 -1</clus>
<clus scale="   35.275">  1 10  2 -1</clus>
<clus scale="   89.908">  5  6 -1 -1</clus>
<clus scale="   91.507">  7  8 -1 -1</clus>
<clus scale="   93.773">  2  5  1 -1</clus>
<clus scale="   35.275">  1  5  2 -1</clus>
</clustering>
</event>
<event>
10    2  0.3544405E-006  0.1104177E+03  0.7546771E-02  0.1264788E+00
         21   -1    0    0  501  502  0.00000000000E+00  0.00000000000E+00  0.75006722940E+02  0.75006722940E+02  0.00000000000E+00 0.  1.
          2   -1    0    0  503    0 -0.00000000000E+00 -0.00000000000E+00 -0.36066616458E+03  0.36066616458E+03  0.00000000000E+00 0. -1.
         23    2    1    2    0    0  0.24963819276E+02  0.34168045593E+02 -0.10022647683E+03  0.14208372944E+03  0.91388138735E+02 0.  0.
         23    2    1    2    0    0 -0.23001720994E+02 -0.31232352778E+02 -0.61526776293E+02  0.12572129995E+03  0.10254638965E+03 0.  0.
        -11    1    4    4    0    0 -0.32187367331E+02  0.22493374278E+02 -0.59359979920E+02  0.71172928268E+02  0.00000000000E+00 0. -1.
         11    1    4    4    0    0  0.91856463373E+01 -0.53725727056E+02 -0.21667963729E+01  0.54548371679E+02  0.00000000000E+00 0.  1.
        -11    1    3    3    0    0  0.49006114158E+02 -0.99136243736E+01 -0.42943951089E+02  0.65909499378E+02  0.00000000000E+00 0. -1.
         11    1    3    3    0    0 -0.24042294883E+02  0.44081669967E+02 -0.57282525743E+02  0.76174230064E+02  0.00000000000E+00 0.  1.
         21    1    1    2  503  502 -0.17097154698E+02  0.11731153598E+02 -0.13988891881E+03  0.14141726298E+03  0.00000000000E+00 0. -1.
          2    1    1    2  501    0  0.15135056416E+02 -0.14666846414E+02  0.15982730291E+02  0.26450595154E+02  0.00000000000E+00 0. -1.
<scales pt_clust_5="13000.00000" pt_clust_6="13000.00000" pt_clust_7="13000.00000" pt_clust_8="13000.00000" pt_clust_9="20.73482" pt_clust_10="20.58960"></scales>
<clustering>
<clus scale="   20.735">  2  9  1 -1</clus>
<clus scale="   20.590">  1 10  2 -1</clus>
<clus scale="   91.388">  7  8 -1 -1</clus>
<clus scale="  100.140">  2  7  1 -1</clus>
<clus scale="  102.546">  5  6 -1 -1</clus>
<clus scale="   20.590">  1  5  2 -1</clus>
</clustering>
</event>
<event>
10    2  0.3544405E-006  0.1338518E+03  0.7546771E-02  0.1222646E+00
          1   -1    0    0  503    0 -0.00000000000E+00  0.00000000000E+00  0.81741081586E+03  0.81741081586E+03  0.00000000000E+00 0. -1.
         21   -1    0    0  501  502  0.00000000000E+00 -0.00000000000E+00 -0.22463589967E+03  0.22463589967E+03  0.00000000000E+00 0. -1.
         23    2    1    2    0    0 -0.43226127874E+02 -0.14238427552E+03  0.31324255453E+03  0.35830231651E+03  0.90099234185E+02 0.  0.
         23    2    1    2    0    0  0.49693939001E+02  0.21555375686E+02 -0.41904398543E+02  0.11054871457E+03  0.86780861261E+02 0.  0.
        -13    1    4    4    0    0  0.55435031938E+01  0.49546373635E+02 -0.23617948538E+02  0.55166847483E+02  0.00000000000E+00 0.  1.
         13    1    4    4    0    0  0.44150435807E+02 -0.27990997949E+02 -0.18286450005E+02  0.55381867086E+02  0.00000000000E+00 0. -1.
        -13    1    3    3    0    0 -0.51970031136E+02 -0.29167080443E+02  0.12461213514E+03  0.13812960198E+03  0.00000000000E+00 0.  1.
         13    1    3    3    0    0  0.87439032621E+01 -0.11321719508E+03  0.18863041938E+03  0.22017271453E+03  0.00000000000E+00 0. -1.
         21    1    1    2  503  502 -0.20616400014E+02  0.56351060980E+02  0.43646586620E+03  0.44057114111E+03  0.00000000000E+00 0. -1.
          1    1    1    2  501    0  0.14148588887E+02  0.64477838854E+02 -0.11502910599E+03  0.13262454334E+03  0.00000000000E+00 0. -1.
<scales pt_clust_5="13000.00000" pt_clust_6="13000.00000" pt_clust_7="13000.00000" pt_clust_8="13000.00000" pt_clust_9="60.00398" pt_clust_10="67.19153"></scales>
<clustering>
<clus scale="   60.004">  1  9  2 -1</clus>
<clus scale="   67.192">  2 10  1 -1</clus>
<clus scale="   86.781">  5  6 -1 -1</clus>
<clus scale="   90.099">  7  8 -1 -1</clus>
<clus scale="  131.641">  2  5  1 -1</clus>
<clus scale="   67.192">  2  5  1 -1</clus>
</clustering>
</event>
<event>
10    2  0.3544405E-006  0.1121479E+03  0.7546771E-02  0.1256845E+00
         21   -1    0    0  501  502  0.00000000000E+00  0.00000000000E+00  0.64513683033E+03  0.64513683033E+03  0.00000000000E+00 0. -1.
          2   -1    0    0  503    0 -0.00000000000E+00 -0.00000000000E+00 -0.49989422325E+03  0.49989422325E+03  0.00000000000E+00 0. -1.
         23    2    1    2    0    0  0.10525608066E+03 -0.15964975692E+02 -0.32183490468E+03  0.35140389767E+03  0.92591956800E+02 0.  0.
         23    2    1    2    0    0  0.70416146750E+01  0.12061054327E+02  0.80987579270E+02  0.12339970750E+03  0.92051325062E+02 0.  0.
        -13    1    4    4    0    0  0.31696685683E+02 -0.50723624868E+01  0.87041272126E+02  0.92771718739E+02  0.00000000000E+00 0. -1.
         13    1    4    4    0    0 -0.24655071008E+02  0.17133416814E+02 -0.60536928569E+01  0.30627988757E+02  0.00000000000E+00 0.  1.
        -13    1    3    3    0    0  0.52255445225E+02  0.19515661867E+02 -0.60045660233E+02  0.81957146892E+02  0.00000000000E+00 0.  1.
         13    1    3    3    0    0  0.53000635433E+02 -0.35480637559E+02 -0.26178924444E+03  0.26944675078E+03  0.00000000000E+00 0. -1.
         21    1    1    2  503  502 -0.35245306047E+02  0.18198745143E+02 -0.13631919167E+03  0.14197305357E+03  0.00000000000E+00 0.  1.
          2    1    1    2  501    0 -0.77052389286E+02 -0.14294823779E+02  0.52240912415E+03  0.52825439485E+03  0.00000000000E+00 0. -1.
<scales pt_clust_5="13000.00000" pt_clust_6="13000.00000" pt_clust_7="13000.00000" pt_clust_8="13000.00000" pt_clust_9="39.66643" pt_clust_10="78.62127"></scales>
<clustering>
<clus scale="   39.666">  2  9  1 -1</clus>
<clus scale="   78.621">  1 10  2 -1</clus>
<clus scale="   92.051">  5  6 -1 -1</clus>
<clus scale="   92.592">  7  8 -1 -1</clus>
<clus scale="  111.702">  1  5  2 -1</clus>
<clus scale="   78.621">  1  5  2 -1</clus>
</clustering>
</event>
<event>
10    2  0.3544405E-006  0.1928750E+03  0.7546771E-02  0.1155900E+00
         21   -1    0    0  503  502  0.00000000000E+00  0.00000000000E+00  0.45618417184E+03  0.45618417184E+03  0.00000000000E+00 0. -1.
         -2   -1    0    0    0  501 -0.00000000000E+00 -0.00000000000E+00 -0.22418160857E+03  0.22418160857E+03  0.00000000000E+00 0.  1.
         23    2    1    2    0    0  0.54872996222E+02  0.12257662129E+03  0.40481965353E+02  0.16717890836E+03  0.90961113001E+02 0.  0.
         23    2    1    2    0    0 -0.43214511220E+02 -0.21080794126E+03  0.67741752275E+02  0.24327288157E+03  0.91023446593E+02 0.  0.
        -11    1    3    3    0    0  0.67349197941E+02  0.45546384415E+02  0.36280580866E+02  0.89031837814E+02  0.00000000000E+00 0. -1.
         11    1    3    3    0    0 -0.12476201719E+02  0.77030236877E+02  0.42013844876E+01  0.78147070542E+02  0.00000000000E+00 0.  1.
        -13    1    4    4    0    0  0.27257726637E+02 -0.86832177878E+02  0.28459724220E+02  0.95355999702E+02  0.00000000000E+00 0.  1.
         13    1    4    4    0    0 -0.70472237856E+02 -0.12397576338E+03  0.39282028055E+02  0.14791688187E+03  0.00000000000E+00 0. -1.
         21    1    1    2  503  501 -0.47352496468E+02  0.54093211643E+02 -0.51095116030E+02  0.88198896534E+02  0.00000000000E+00 0.  1.
         -2    1    1    2    0  502  0.35694011466E+02  0.34138108324E+02  0.17487396167E+03  0.18171509394E+03  0.00000000000E+00 0.  1.
<scales pt_clust_5="13000.00000" pt_clust_6="13000.00000" pt_clust_7="13000.00000" pt_clust_8="13000.00000" pt_clust_9="72.11168" pt_clust_10="49.39102"></scales>
<clustering>
<clus scale="   49.391">  1 10  2 -1</clus>
<clus scale="   72.112">  2  9  1 -1</clus>
<clus scale="   90.961">  5  6 -1 -1</clus>
<clus scale="   91.023">  7  8 -1 -1</clus>
<clus scale="  192.846">  2  5  1 -1</clus>
<clus scale="   49.391">  1  5  2 -1</clus>
</clustering>
</event>
<event>
10    2  0.3544405E-006  0.2280966E+03  0.7546771E-02  0.1128141E+00
         21   -1    0    0  501  502  0.00000000000E+00  0.00000000000E+00  0.39504651939E+03  0.39504651939E+03  0.00000000000E+00 0. -1.
          2   -1    0    0  503    0 -0.00000000000E+00 -0.00000000000E+00 -0.67448851694E+03  0.67448851694E+03  0.00000000000E+00 0. -1.
         23    2    1    2    0    0  0.16620322466E+03  0.47751950171E+02 -0.20965545960E+03  0.28699748820E+03  0.92240912059E+02 0.  0.
         23    2    1    2    0    0 -0.28101523589E+03  0.13684905085E+03 -0.23512703163E+03  0.40136890511E+03  0.90083580424E+02 0.  0.
        -13    1    4    4    0    0 -0.31838633105E+02  0.49612697289E+02 -0.62605169052E+02  0.85991426795E+02  0.00000000000E+00 0.  1.
         13    1    4    4    0    0 -0.24917660279E+03  0.87236353559E+02 -0.17252186258E+03  0.31537747831E+03  0.00000000000E+00 0. -1.
        -13    1    3    3    0    0  0.43839070712E+02  0.30112979379E+02 -0.12860573007E+03  0.13916928345E+03  0.00000000000E+00 0.  1.
         13    1    3    3    0    0  0.12236415395E+03  0.17638970791E+02 -0.81049729527E+02  0.14782820475E+03  0.00000000000E+00 0. -1.
         21    1    1    2  503  502  0.19282856266E+02 -0.79707702936E+01 -0.69275983786E+02  0.72350007977E+02  0.00000000000E+00 0. -1.
          2    1    1    2  501    0  0.95529154964E+02 -0.17663023072E+03  0.23461647747E+03  0.30881863505E+03  0.00000000000E+00 0. -1.
<scales pt_clust_5="13000.00000" pt_clust_6="13000.00000" pt_clust_7="13000.00000" pt_clust_8="13000.00000" pt_clust_9="20.86532" pt_clust_10="201.80480"></scales>
<clustering>
<clus scale="   20.865">  2  9  1 -1</clus>
<clus scale="   90.084">  5  6 -1 -1</clus>
<clus scale="   92.241">  7  8 -1 -1</clus>
<clus scale="  201.805">  1 10  2 -1</clus>
<clus scale="  227.233">  1  5  2 -1</clus>
<clus scale="  201.805">  1  5  2 -1</clus>
</clustering>
</event>
<event>
10    2  0.3544405E-006  0.2584738E+03  0.7546771E-02  0.1108498E+00
         21   -1    0    0  501  502  0.00000000000E+00  0.00000000000E+00  0.74199349213E+02  0.74199349213E+02  0.00000000000E+00 0.  1.
          2   -1    0    0  503    0 -0.00000000000E+00 -0.00000000000E+00 -0.15885583999E+04  0.15885583999E+04  0.00000000000E+00 0. -1.
         23    2    1    2    0    0  0.24832854246E+03  0.10465555684E+03 -0.72918215022E+03  0.78413470531E+03  0.10266828768E+03 0.  0.
         23    2    1    2    0    0 -0.22859682636E+03 -0.50211694822E+02 -0.44070980342E+03  0.50801287950E+03  0.95258761221E+02 0.  0.
        -13    1    3    3    0    0  0.15013231694E+03  0.32797513966E+02 -0.28744240447E+03  0.32594251855E+03  0.00000000000E+00 0.  1.
         13    1    3    3    0    0  0.98196225524E+02  0.71858042877E+02 -0.44173974575E+03  0.45819218676E+03  0.00000000000E+00 0. -1.
        -13    1    4    4    0    0 -0.16736237754E+03  0.81043680943E+01 -0.27645260654E+03  0.32326752058E+03  0.00000000000E+00 0.  1.
         13    1    4    4    0    0 -0.61234448817E+02 -0.58316062916E+02 -0.16425719688E+03  0.18474535892E+03  0.00000000000E+00 0. -1.
         21    1    1    2  503  502 -0.69026543651E+02 -0.42544460010E+02 -0.25720352055E+03  0.26968193449E+03  0.00000000000E+00 0.  1.
          2    1    1    2  501    0  0.49294827545E+02 -0.11899402011E+02 -0.87263576522E+02  0.10092822984E+03  0.00000000000E+00 0. -1.
<scales pt_clust_5="13000.00000" pt_clust_6="13000.00000" pt_clust_7="13000.00000" pt_clust_8="13000.00000" pt_clust_9="77.84762" pt_clust_10="50.71071"></scales>
<clustering>
<clus scale="   50.711">  1 10  2 -1</clus>
<clus scale="   77.848">  2  9  1 -1</clus>
<clus scale="   95.259">  7  8 -1 -1</clus>
<clus scale="  102.668">  5  6 -1 -1</clus>
<clus scale="  255.621">  1  7  2 -1</clus>
<clus scale="   50.711">  1  5  2 -1</clus>
</clustering>
</event>
<event>
10    2  0.3544405E-006  0.2334030E+03  0.7546771E-02  0.1124426E+00
         21   -1    0    0  501  502  0.00000000000E+00  0.00000000000E+00  0.26932780861E+03  0.26932780861E+03  0.00000000000E+00 0. -1.
          2   -1    0    0  503    0 -0.00000000000E+00 -0.00000000000E+00 -0.58949576605E+03  0.58949576605E+03  0.00000000000E+00 0. -1.
         23    2    1    2    0    0 -0.24430090652E+03 -0.10592484508E+01 -0.43903727368E+03  0.51021744018E+03  0.88792193682E+02 0.  0.
         23    2    1    2    0    0  0.13179267473E+03 -0.26390307466E+02  0.63747459469E+02  0.17447410459E+03  0.91168619303E+02 0.  0.
        -11    1    4    4    0    0  0.11775350049E+03 -0.52928183983E+02  0.37088386095E+02  0.13432359406E+03  0.00000000000E+00 0.  1.
         11    1    4    4    0    0  0.14039174238E+02  0.26537876517E+02  0.26659073373E+02  0.40150510538E+02  0.00000000000E+00 0. -1.
        -13    1    3    3    0    0 -0.21980141113E+03 -0.21212856288E+02 -0.41611859907E+03  0.47108102710E+03  0.00000000000E+00 0. -1.
         13    1    3    3    0    0 -0.24499495383E+02  0.20153607838E+02 -0.22918674609E+02  0.39136413080E+02  0.00000000000E+00 0.  1.
         21    1    1    2  503  502  0.38400460530E+01 -0.23046269852E+02 -0.21623669568E+02  0.31834880138E+02  0.00000000000E+00 0. -1.
          2    1    1    2  501    0  0.10866818574E+03  0.50495825769E+02  0.76745526341E+02  0.14229714974E+03  0.00000000000E+00 0. -1.
<scales pt_clust_5="13000.00000" pt_clust_6="13000.00000" pt_clust_7="13000.00000" pt_clust_8="13000.00000" pt_clust_9="23.36400" pt_clust_10="119.47178"></scales>
<clustering>
<clus scale="   23.364">  2  9  1 -1</clus>
<clus scale="   88.792">  7  8 -1 -1</clus>
<clus scale="   91.169">  5  6 -1 -1</clus>
<clus scale="  119.472">  1 10  2 -1</clus>
<clus scale="  232.485">  2  7  1 -1</clus>
<clus scale="  119.472">  1  5  2 -1</clus>
</clustering>
</event>
<event>
10    2  0.3544405E-006  0.1931094E+03  0.7546771E-02  0.1155883E+00
          1   -1    0    0  503    0 -0.00000000000E+00  0.00000000000E+00  0.96326743713E+03  0.96326743713E+03  0.00000000000E+00 0. -1.
         21   -1    0    0  501  502  0.00000000000E+00 -0.00000000000E+00 -0.81244805017E+02  0.81244805017E+02  0.00000000000E+00 0. -1.
         23    2    1    2    0    0 -0.18010022620E+03  0.82633450797E+02  0.56135229809E+03  0.60208220069E+03  0.90123222044E+02 0.  0.
         23    2    1    2    0    0  0.11923367400E+03 -0.13184213809E+02  0.12582914666E+03  0.19669455950E+03  0.92006972983E+02 0.  0.
        -13    1    4    4    0    0  0.10426449525E+03 -0.45931240140E+02  0.10585788362E+03  0.15552059450E+03  0.00000000000E+00 0.  1.
         13    1    4    4    0    0  0.14969178759E+02  0.32747026330E+02  0.19971263032E+02  0.41173964993E+02  0.00000000000E+00 0. -1.
        -13    1    3    3    0    0 -0.14914567990E+03  0.10030354108E+03  0.43174788291E+03  0.46766597972E+03  0.00000000000E+00 0. -1.
         13    1    3    3    0    0 -0.30954546298E+02 -0.17670090285E+02  0.12960441518E+03  0.13441622098E+03  0.00000000000E+00 0.  1.
         21    1    1    2  503  502 -0.39457118420E+01  0.21037867358E+02  0.91102935410E+02  0.93583680977E+02  0.00000000000E+00 0.  1.
          1    1    1    2  501    0  0.64812264034E+02 -0.90487104346E+02  0.10373825195E+03  0.15215180098E+03  0.00000000000E+00 0. -1.
<scales pt_clust_5="13000.00000" pt_clust_6="13000.00000" pt_clust_7="13000.00000" pt_clust_8="13000.00000" pt_clust_9="21.40468" pt_clust_10="108.46186"></scales>
<clustering>
<clus scale="   21.405">  1  9  2 -1</clus>
<clus scale="   90.123">  7  8 -1 -1</clus>
<clus scale="   92.007">  5  6 -1 -1</clus>
<clus scale="  108.462">  2 10  1 -1</clus>
<clus scale="  192.219">  1  7  2 -1</clus>
<clus scale="  108.462">  2  5  1 -1</clus>
</clustering>
</event>
<event>
10    2  0.3544405E-006  0.1809419E+03  0.7546771E-02  0.1187936E+00
         21   -1    0    0  501  502  0.00000000000E+00  0.00000000000E+00  0.50095377897E+02  0.50095377897E+02  0.00000000000E+00 0.  1.
          1   -1    0    0  503    0 -0.00000000000E+00 -0.00000000000E+00 -0.14279400979E+04  0.14279400979E+04  0.00000000000E+00 0. -1.
         23    2    1    2    0    0  0.62710778690E+02  0.45935067447E+02 -0.61427399136E+03  0.62597805487E+03  0.92050619386E+02 0.  0.
         23    2    1    2    0    0 -0.13842369203E+03  0.84412663574E+02 -0.28784297841E+03  0.34284543566E+03  0.91666767393E+02 0.  0.
        -11    1    4    4    0    0 -0.74557239099E+02  0.17700674473E+02 -0.20472185914E+03  0.21859353922E+03  0.00000000000E+00 0.  1.
         11    1    4    4    0    0 -0.63866452930E+02  0.66711989102E+02 -0.83121119274E+02  0.12425189644E+03  0.00000000000E+00 0. -1.
        -11    1    3    3    0    0  0.73494574423E+02  0.65260515090E+02 -0.50910603632E+03  0.51850684038E+03  0.00000000000E+00 0. -1.
         11    1    3    3    0    0 -0.10783795733E+02 -0.19325447643E+02 -0.10516795504E+03  0.10747121450E+03  0.00000000000E+00 0.  1.
         21    1    1    2  503  502 -0.23887132876E+02 -0.14810737614E+02 -0.94740069678E+02  0.98821221751E+02  0.00000000000E+00 0.  1.
          1    1    1    2  501    0  0.99600046215E+02 -0.11553699341E+03 -0.38098768059E+03  0.41039076356E+03  0.00000000000E+00 0. -1.
<scales pt_clust_5="13000.00000" pt_clust_6="13000.00000" pt_clust_7="13000.00000" pt_clust_8="13000.00000" pt_clust_9="28.10610" pt_clust_10="156.00389"></scales>
<clustering>
<clus scale="   28.106">  2  9  1 -1</clus>
<clus scale="   91.667">  5  6 -1 -1</clus>
<clus scale="   92.051">  7  8 -1 -1</clus>
<clus scale="  112.507">  2  7  1 -1</clus>
<clus scale="  156.004">  1 10  2 -1</clus>
<clus scale="  156.004">  1  5  2 -1</clus>
</clustering>
</event>
<event>
10    2  0.3544405E-006  0.1840753E+03  0.7546771E-02  0.1164274E+00
          1   -1    0    0  503    0 -0.00000000000E+00  0.00000000000E+00  0.45158920920E+03  0.45158920920E+03  0.00000000000E+00 0. -1.
         21   -1    0    0  501  502  0.00000000000E+00 -0.00000000000E+00 -0.33623730358E+03  0.33623730358E+03  0.00000000000E+00 0.  1.
         23    2    1    2    0    0 -0.16769187149E+03  0.53169143371E+01  0.21879002954E+03  0.29057147776E+03  0.91727167839E+02 0.  0.
         23    2    1    2    0    0  0.10184411527E+03 -0.63688680062E+02 -0.24791441527E+03  0.29130722418E+03  0.94709396473E+02 0.  0.
        -11    1    4    4    0    0  0.46218609344E+02 -0.14312161886E+02 -0.19268092643E+03  0.19866287332E+03  0.00000000000E+00 0.  1.
         11    1    4    4    0    0  0.55625505929E+02 -0.49376518177E+02 -0.55233488840E+02  0.92644350861E+02  0.00000000000E+00 0. -1.
        -13    1    3    3    0    0 -0.26154803350E+02 -0.33869838560E+02  0.65874908966E+02  0.78554079039E+02  0.00000000000E+00 0. -1.
         13    1    3    3    0    0 -0.14153706814E+03  0.39186752897E+02  0.15291512057E+03  0.21201739872E+03  0.00000000000E+00 0.  1.
         21    1    1    2  503  502  0.25168890308E+01 -0.33603641386E+02  0.22202970447E+02  0.40354818070E+02  0.00000000000E+00 0.  1.
          1    1    1    2  501    0  0.63330867185E+02  0.91975407111E+02  0.12227332090E+03  0.16559299278E+03  0.00000000000E+00 0. -1.
<scales pt_clust_5="13000.00000" pt_clust_6="13000.00000" pt_clust_7="13000.00000" pt_clust_8="13000.00000" pt_clust_9="33.69777" pt_clust_10="102.93601"></scales>
<clustering>
<clus scale="   33.698">  1  9  2 -1</clus>
<clus scale="   91.727">  7  8 -1 -1</clus>
<clus scale="   94.709">  5  6 -1 -1</clus>
<clus scale="  102.936">  2 10  1 -1</clus>
<clus scale="  182.559">  1  7  2 -1</clus>
<clus scale="  102.936">  2  5  1 -1</clus>
</clustering>
</event>
<event>
10    2  0.3544405E-006  0.1315930E+03  0.7546771E-02  0.1227138E+00
         21   -1    0    0  501  502  0.00000000000E+00  0.00000000000E+00  0.16067796789E+03  0.16067796789E+03  0.00000000000E+00 0. -1.
          2   -1    0    0  503    0 -0.00000000000E+00 -0.00000000000E+00 -0.24718601475E+03  0.24718601475E+03  0.00000000000E+00 0. -1.
         23    2    1    2    0    0 -0.20525119140E+02 -0.84175813020E+02 -0.79754132378E+02  0.14848479465E+03  0.90444262376E+02 0.  0.
         23    2    1    2    0    0  0.57214416956E+02  0.10461762026E+03  0.14313965575E+02  0.15492795828E+03  0.97874647736E+02 0.  0.
        -13    1    4    4    0    0 -0.20271549121E+02  0.54527450678E+02  0.22333955237E+02  0.62313595128E+02  0.00000000000E+00 0.  1.
         13    1    4    4    0    0  0.77485966077E+02  0.50090169580E+02 -0.80199896624E+01  0.92614363150E+02  0.00000000000E+00 0. -1.
        -13    1    3    3    0    0 -0.39996077617E+01 -0.72715869192E+02 -0.97478531467E+02  0.12167850505E+03  0.00000000000E+00 0. -1.
         13    1    3    3    0    0 -0.16525511378E+02 -0.11459943828E+02  0.17724399089E+02  0.26806289596E+02  0.00000000000E+00 0.  1.
         21    1    1    2  503  502  0.16840122579E+02  0.17430803593E+02 -0.29676702979E+02  0.38316175984E+02  0.00000000000E+00 0. -1.
          2    1    1    2  501    0 -0.53529420395E+02 -0.37872610830E+02  0.86088229207E+01  0.66135053724E+02  0.00000000000E+00 0. -1.
<scales pt_clust_5="13000.00000" pt_clust_6="13000.00000" pt_clust_7="13000.00000" pt_clust_8="13000.00000" pt_clust_9="24.23680" pt_clust_10="62.36227"></scales>
<clustering>
<clus scale="   24.237">  2  9  1 -1</clus>
<clus scale="   62.362">  1 10  2 -1</clus>
<clus scale="   90.444">  7  8 -1 -1</clus>
<clus scale="   97.875">  5  6 -1 -1</clus>
<clus scale="  126.164">  2  7  1 -1</clus>
<clus scale="   62.362">  1  5  2 -1</clus>
</clustering>
</event>
<event>
10    2  0.3544405E-006  0.9306209E+02  0.7546771E-02  0.1297267E+00
          1   -1    0    0  503    0 -0.00000000000E+00  0.00000000000E+00  0.85384902104E+02  0.85384902104E+02  0.00000000000E+00 0. -1.
         21   -1    0    0  501  502  0.00000000000E+00 -0.00000000000E+00 -0.63604705260E+03  0.63604705260E+03  0.00000000000E+00 0.  1.
         23    2    1    2    0    0  0.11138317443E+02  0.76165268290E+01  0.22299665471E+02  0.92674660922E+02  0.88933931098E+02 0.  0.
         23    2    1    2    0    0 -0.18358718590E+02 -0.43578192063E+02 -0.12619684814E+03  0.16306371985E+03  0.91804307507E+02 0.  0.
        -13    1    3    3    0    0  0.18375459416E+01 -0.40530045657E+02  0.14131601770E+02  0.42962347988E+02  0.00000000000E+00 0.  1.
         13    1    3    3    0    0  0.93007715013E+01  0.48146572486E+02  0.81680637009E+01  0.49712312935E+02  0.00000000000E+00 0. -1.
        -13    1    4    4    0    0 -0.44645338377E+02 -0.11594629887E+02 -0.10876879869E+03  0.11814522102E+03  0.00000000000E+00 0. -1.
         13    1    4    4    0    0  0.26286619787E+02 -0.31983562176E+02 -0.17428049457E+02  0.44918498830E+02  0.00000000000E+00 0.  1.
         21    1    1    2  503  502 -0.29497159371E+02 -0.46868065489E+01 -0.21220679087E+02  0.36638310380E+02  0.00000000000E+00 0.  1.
          1    1    1    2  501    0  0.36717560517E+02  0.40648471783E+02 -0.42554428873E+03  0.42905526355E+03  0.00000000000E+00 0. -1.
<scales pt_clust_5="13000.00000" pt_clust_6="13000.00000" pt_clust_7="13000.00000" pt_clust_8="13000.00000" pt_clust_9="29.86718" pt_clust_10="54.25281"></scales>
<clustering>
<clus scale="   29.867">  1  9  2 -1</clus>
<clus scale="   54.253">  2 10  1 -1</clus>
<clus scale="   88.934">  5  6 -1 -1</clus>
<clus scale="   90.232">  1  5  2 -1</clus>
<clus scale="   91.804">  7  8 -1 -1</clus>
<clus scale="   54.253">  2  5  1 -1</clus>
</clustering>
</event>
<event>
10    2  0.3544405E-006  0.1144827E+03  0.7546771E-02  0.1254277E+00
         21   -1    0    0  501  502  0.00000000000E+00  0.00000000000E+00  0.10901834102E+03  0.10901834102E+03  0.00000000000E+00 0.  1.
         -1   -1    0    0    0  501 -0.00000000000E+00 -0.00000000000E+00 -0.30675088499E+03  0.30675088499E+03  0.00000000000E+00 0.  1.
         23    2    1    2    0    0  0.20850713348E+02  0.74547454493E+02 -0.20330952081E+03  0.23594684205E+03  0.91345912901E+02 0.  0.
         23    2    1    2    0    0 -0.14922434207E+02 -0.24267249404E+01  0.19370164102E+02  0.99236395740E+02  0.96146195689E+02 0.  0.
        -11    1    3    3    0    0  0.30891969636E+02 -0.90170536907E+01 -0.33669503780E+02  0.46575278100E+02  0.00000000000E+00 0. -1.
         11    1    3    3    0    0 -0.10041256288E+02  0.83564508184E+02 -0.16964001703E+03  0.18937156395E+03  0.00000000000E+00 0.  1.
        -13    1    4    4    0    0 -0.21235427977E+02  0.44574220165E+02  0.15050386358E+02  0.51617038216E+02  0.00000000000E+00 0.  1.
         13    1    4    4    0    0  0.63129937700E+01 -0.47000945106E+02  0.43197777442E+01  0.47619357523E+02  0.00000000000E+00 0. -1.
         21    1    1    2  503  502 -0.78095958957E+01 -0.27058683518E+02 -0.20709084178E+02  0.34957521498E+02  0.00000000000E+00 0. -1.
         -1    1    1    2    0  503  0.18813167548E+01 -0.45062046035E+02  0.69158969167E+01  0.45628466725E+02  0.00000000000E+00 0.  1.
<scales pt_clust_5="13000.00000" pt_clust_6="13000.00000" pt_clust_7="13000.00000" pt_clust_8="13000.00000" pt_clust_9="25.81608" pt_clust_10="79.39679"></scales>
<clustering>
<clus scale="   25.816">  9 10 -1 -1</clus>
<clus scale="   79.397">  1  9  2 -1</clus>
<clus scale="   91.346">  5  6 -1 -1</clus>
<clus scale="   96.146">  7  8 -1 -1</clus>
<clus scale="  110.482">  2  5  1 -1</clus>
<clus scale="   79.397">  1  5  2 -1</clus>
</clustering>
</event>
<event>
10    2  0.3544405E-006  0.2487489E+03  0.7546771E-02  0.1141065E+00
         21   -1    0    0  501  502  0.00000000000E+00  0.00000000000E+00  0.31854899461E+03  0.31854899461E+03  0.00000000000E+00 0.  1.
          1   -1    0    0  503    0 -0.00000000000E+00 -0.00000000000E+00 -0.69202120444E+03  0.69202120444E+03  0.00000000000E+00 0. -1.
         23    2    1    2    0    0  0.59854607727E+01 -0.79229312275E+02 -0.23285596515E+03  0.26242448413E+03  0.91277596927E+02 0.  0.
         23    2    1    2    0    0 -0.14811654842E+03  0.26170328616E+03 -0.23926319871E+03  0.39529019585E+03  0.92630118072E+02 0.  0.
        -13    1    4    4    0    0 -0.91363197895E+00  0.56875822246E+02 -0.17730553159E+02  0.59582433610E+02  0.00000000000E+00 0. -1.
         13    1    4    4    0    0 -0.14720291644E+03  0.20482746391E+03 -0.22153264555E+03  0.33570776224E+03  0.00000000000E+00 0.  1.
        -13    1    3    3    0    0 -0.43141032703E+01 -0.98002738464E+02 -0.17333202778E+03  0.19916611180E+03  0.00000000000E+00 0.  1.
         13    1    3    3    0    0  0.10299564043E+02  0.18773426189E+02 -0.59523937369E+02  0.63258372333E+02  0.00000000000E+00 0. -1.
         21    1    1    2  503  502 -0.12859261703E+02 -0.25867244371E+02 -0.69777659182E+02  0.75520835958E+02  0.00000000000E+00 0. -1.
          1    1    1    2  501    0  0.15499034935E+03 -0.15660672951E+03  0.16842461321E+03  0.27733468311E+03  0.00000000000E+00 0. -1.
<scales pt_clust_5="13000.00000" pt_clust_6="13000.00000" pt_clust_7="13000.00000" pt_clust_8="13000.00000" pt_clust_9="28.88728" pt_clust_10="230.85860"></scales>
<clustering>
<clus scale="   28.887">  2  9  1 -1</clus>
<clus scale="   91.278">  7  8 -1 -1</clus>
<clus scale="   92.630">  5  6 -1 -1</clus>
<clus scale="  127.888">  2  7  1 -1</clus>
<clus scale="  230.859">  1 10  2 -1</clus>
<clus scale="  230.859">  1  5  2 -1</clus>
</clustering>
</event>
<event>
10    2  0.3544405E-006  0.3181360E+03  0.7546771E-02  0.1096570E+00
          2   -1    0    0  503    0 -0.00000000000E+00  0.00000000000E+00  0.15816444114E+04  0.15816444114E+04  0.00000000000E+00 0. -1.
         21   -1    0    0  501  502  0.00000000000E+00 -0.00000000000E+00 -0.30772363151E+03  0.30772363151E+03  0.00000000000E+00 0. -1.
         23    2    1    2    0    0 -0.98108549731E+02 -0.26313291403E+03  0.26639236590E+03  0.39757194256E+03  0.90743258297E+02 0.  0.
         23    2    1    2    0    0  0.10115298967E+03 -0.12215216823E+03 -0.96641657825E+02  0.20662679030E+03  0.90564567679E+02 0.  0.
        -13    1    4    4    0    0  0.33421013508E+02  0.71370105009E+01 -0.56723593305E+01  0.34642123538E+02  0.00000000000E+00 0.  1.
         13    1    4    4    0    0  0.67731976161E+02 -0.12928917873E+03 -0.90969298495E+02  0.17198466676E+03  0.00000000000E+00 0. -1.
        -13    1    3    3    0    0 -0.10178784545E+02 -0.13133386824E+03  0.85205331312E+02  0.15688257101E+03  0.00000000000E+00 0.  1.
         13    1    3    3    0    0 -0.87929765185E+02 -0.13179904579E+03  0.18118703459E+03  0.24068937155E+03  0.00000000000E+00 0. -1.
         21    1    1    2  503  502 -0.68206167183E+02  0.31798953797E+03  0.11395400694E+04  0.11850405045E+04  0.00000000000E+00 0. -1.
          2    1    1    2  501    0  0.65161727245E+02  0.67295544294E+02 -0.35369997574E+02  0.10012880558E+03  0.00000000000E+00 0. -1.
<scales pt_clust_5="13000.00000" pt_clust_6="13000.00000" pt_clust_7="13000.00000" pt_clust_8="13000.00000" pt_clust_9="304.91998" pt_clust_10="93.67359"></scales>
<clustering>
<clus scale="   90.565">  5  6 -1 -1</clus>
<clus scale="   90.743">  7  8 -1 -1</clus>
<clus scale="   93.674">  2 10  1 -1</clus>
<clus scale="  186.547">  2  5  1 -1</clus>
<clus scale="  304.920">  1  9  2 -1</clus>
<clus scale="   93.674">  2  5  1 -1</clus>
</clustering>
</event>
<event>
10    2  0.3544405E-006  0.1428969E+03  0.7546771E-02  0.1236453E+00
         21   -1    0    0  501  502  0.00000000000E+00  0.00000000000E+00  0.19078185314E+03  0.19078185314E+03  0.00000000000E+00 0. -1.
          3   -1    0    0  503    0 -0.00000000000E+00 -0.00000000000E+00 -0.32327602930E+03  0.32327602930E+03  0.00000000000E+00 0. -1.
         23    2    1    2    0    0  0.25846774933E+02  0.33246177209E+02 -0.87586099079E+02  0.12252735694E+03  0.74620803895E+02 0.  0.
         23    2    1    2    0    0 -0.10748540160E+03  0.27041393104E+02  0.31902201328E+02  0.14716251230E+03  0.91404081294E+02 0.  0.
        -11    1    4    4    0    0 -0.87108722074E+02  0.27416153695E+02  0.62312199771E+02  0.11055489670E+03  0.00000000000E+00 0. -1.
         11    1    4    4    0    0 -0.20376679527E+02 -0.37476059113E+00 -0.30409998443E+02  0.36607615592E+02  0.00000000000E+00 0.  1.
        -11    1    3    3    0    0 -0.24229526290E+02  0.24105729237E+02 -0.42410697466E+02  0.54468554101E+02  0.00000000000E+00 0.  1.
         11    1    3    3    0    0  0.50076301223E+02  0.91404479722E+01 -0.45175401613E+02  0.68058802842E+02  0.00000000000E+00 0. -1.
         21    1    1    2  503  502 -0.16862214297E+02 -0.10787683261E+02 -0.12316382151E+03  0.12477994755E+03  0.00000000000E+00 0. -1.
          3    1    1    2  501    0  0.98500840963E+02 -0.49499887052E+02  0.46353543096E+02  0.11958806565E+03  0.00000000000E+00 0. -1.
<scales pt_clust_5="13000.00000" pt_clust_6="13000.00000" pt_clust_7="13000.00000" pt_clust_8="13000.00000" pt_clust_9="20.01770" pt_clust_10="109.83995"></scales>
<clustering>
<clus scale="   20.018">  2  9  1 -1</clus>
<clus scale="   74.621">  7  8 -1 -1</clus>
<clus scale="   81.335">  2  7  1 -1</clus>
<clus scale="   91.404">  5  6 -1 -1</clus>
<clus scale="  109.840">  1 10  2 -1</clus>
<clus scale="  109.840">  1  5  2 -1</clus>
</clustering>
</event>
<event>
10    2  0.3544405E-006  0.1052863E+03  0.7546771E-02  0.1270486E+00
         -2   -1    0    0    0  501 -0.00000000000E+00  0.00000000000E+00  0.10096751007E+03  0.10096751007E+03  0.00000000000E+00 0.  1.
         21   -1    0    0  503  502  0.00000000000E+00 -0.00000000000E+00 -0.41672205058E+03  0.41672205058E+03  0.00000000000E+00 0. -1.
         23    2    1    2    0    0 -0.12723739349E+02 -0.10923645197E+02 -0.87644838473E+00  0.93387162446E+02  0.91864979075E+02 0.  0.
         23    2    1    2    0    0  0.67705402585E+02  0.14023984383E+02 -0.26810213119E+03  0.29104542352E+03  0.89710602086E+02 0.  0.
        -13    1    3    3    0    0 -0.39179366700E+02  0.18424940946E+02 -0.22019733041E+02  0.48573345233E+02  0.00000000000E+00 0.  1.
         13    1    3    3    0    0  0.26455627351E+02 -0.29348586143E+02  0.21143284657E+02  0.44813817213E+02  0.00000000000E+00 0. -1.
        -13    1    4    4    0    0  0.58671676103E+02 -0.17035139540E+02 -0.82571346462E+02  0.10271605917E+03  0.00000000000E+00 0.  1.
         13    1    4    4    0    0  0.90337264819E+01  0.31059123923E+02 -0.18553078473E+03  0.18832936435E+03  0.00000000000E+00 0. -1.
         21    1    1    2  503  501 -0.48600520982E+02  0.31790863558E+02  0.16799917224E+02  0.60455825726E+02  0.00000000000E+00 0.  1.
         -2    1    1    2    0  502 -0.63811422533E+01 -0.34891202744E+02 -0.63575878153E+02  0.72801148950E+02  0.00000000000E+00 0.  1.
<scales pt_clust_5="13000.00000" pt_clust_6="13000.00000" pt_clust_7="13000.00000" pt_clust_8="13000.00000" pt_clust_9="57.24957" pt_clust_10="35.46992"></scales>
<clustering>
<clus scale="   35.470">  2 10  1 -1</clus>
<clus scale="   57.250">  1  9  2 -1</clus>
<clus scale="   89.711">  7  8 -1 -1</clus>
<clus scale="   91.865">  5  6 -1 -1</clus>
<clus scale="  103.412">  2  7  1 -1</clus>
<clus scale="   35.470">  2  5  1 -1</clus>
</clustering>
</event>
<event>
10    2  0.3544405E-006  0.9450731E+02  0.7546771E-02  0.1293086E+00
          2   -1    0    0  503    0 -0.00000000000E+00  0.00000000000E+00  0.14389432483E+03  0.14389432483E+03  0.00000000000E+00 0. -1.
         21   -1    0    0  501  502  0.00000000000E+00 -0.00000000000E+00 -0.31262083436E+03  0.31262083436E+03  0.00000000000E+00 0.  1.
         23    2    1    2    0    0 -0.14090718482E+02  0.65987033927E+00  0.15591355540E+02  0.93981871265E+02  0.91599770647E+02 0.  0.
         23    2    1    2    0    0  0.73302370724E+02 -0.87485142269E+01 -0.14174652907E+03  0.18491522856E+03  0.93014994463E+02 0.  0.
        -11    1    4    4    0    0  0.47625370530E+02 -0.20450774206E+02 -0.14730282162E+03  0.15615547170E+03  0.00000000000E+00 0.  1.
         11    1    4    4    0    0  0.25677000194E+02  0.11702259979E+02  0.55562925553E+01  0.28759756858E+02  0.00000000000E+00 0. -1.
        -13    1    3    3    0    0 -0.27619220224E+02 -0.40371339487E+02  0.13424621033E+02  0.50723631846E+02  0.00000000000E+00 0.  1.
         13    1    3    3    0    0  0.13528501742E+02  0.41031209826E+02  0.21667345069E+01  0.43258239419E+02  0.00000000000E+00 0. -1.
         21    1    1    2  503  502  0.23237579885E+02 -0.17804546665E+02  0.45580327098E+02  0.54171516679E+02  0.00000000000E+00 0. -1.
          2    1    1    2  501    0 -0.82449232128E+02  0.25893190553E+02 -0.88151663094E+02  0.12344654269E+03  0.00000000000E+00 0. -1.
<scales pt_clust_5="13000.00000" pt_clust_6="13000.00000" pt_clust_7="13000.00000" pt_clust_8="13000.00000" pt_clust_9="29.27434" pt_clust_10="81.27863"></scales>
<clustering>
<clus scale="   29.274">  1  9  2 -1</clus>
<clus scale="   81.279">  2 10  1 -1</clus>
<clus scale="   91.600">  7  8 -1 -1</clus>
<clus scale="   93.015">  5  6 -1 -1</clus>
<clus scale="   93.115">  1  7  2 -1</clus>
<clus scale="   81.279">  2  5  1 -1</clus>
</clustering>
</event>
<event>
10    2  0.3544405E-006  0.1385555E+03  0.7546771E-02  0.1215664E+00
         21   -1    0    0  503  502  0.00000000000E+00  0.00000000000E+00  0.32070145436E+03  0.32070145436E+03  0.00000000000E+00 0.  1.
         -1   -1    0    0    0  501 -0.00000000000E+00 -0.00000000000E+00 -0.16777572535E+03  0.16777572535E+03  0.00000000000E+00 0.  1.
         23    2    1    2    0    0 -0.69596282631E+00 -0.12531331844E+03  0.17622254293E+02  0.15634909293E+03  0.91818205550E+02 0.  0.
         23    2    1    2    0    0 -0.92484797846E+02  0.74910054696E+02  0.89974040744E+02  0.17605457212E+03  0.93460848635E+02 0.  0.
        -11    1    4    4    0    0 -0.28727150717E+02 -0.20620648278E+02  0.30595333275E+02  0.46760397153E+02  0.00000000000E+00 0. -1.
         11    1    4    4    0    0 -0.63757647129E+02  0.95530702975E+02  0.59378707469E+02  0.12929417496E+03  0.00000000000E+00 0.  1.
        -13    1    3    3    0    0  0.13405407338E+02 -0.20051226694E+02 -0.31221602996E+02  0.39453075057E+02  0.00000000000E+00 0.  1.
         13    1    3    3    0    0 -0.14101370164E+02 -0.10526209175E+03  0.48843857289E+02  0.11689601787E+03  0.00000000000E+00 0. -1.
         21    1    1    2  503  501  0.11769920022E+02  0.49732799611E+02 -0.16652114967E+02  0.53751049361E+02  0.00000000000E+00 0. -1.
         -1    1    1    2    0  502  0.81410840650E+02  0.67046413110E+00  0.61981548944E+02  0.10232246531E+03  0.00000000000E+00 0.  1.
<scales pt_clust_5="13000.00000" pt_clust_6="13000.00000" pt_clust_7="13000.00000" pt_clust_8="13000.00000" pt_clust_9="51.10658" pt_clust_10="83.60832"></scales>
<clustering>
<clus scale="   51.107">  2  9  1 -1</clus>
<clus scale="   83.608">  1 10  2 -1</clus>
<clus scale="   91.818">  7  8 -1 -1</clus>
<clus scale="   93.461">  5  6 -1 -1</clus>
<clus scale="  137.453">  2  7  1 -1</clus>
<clus scale="   83.608">  1  5  2 -1</clus>
</clustering>
</event>
<event>
10    2  0.3544405E-006  0.9305125E+02  0.7546771E-02  0.1295992E+00
         -3   -1    0    0    0  501 -0.00000000000E+00  0.00000000000E+00  0.12675432403E+03  0.12675432403E+03  0.00000000000E+00 0.  1.
         21   -1    0    0  503  502  0.00000000000E+00 -0.00000000000E+00 -0.16455071002E+03  0.16455071002E+03  0.00000000000E+00 0. -1.
         23    2    1    2    0    0  0.15232875570E+02  0.12633763217E+01  0.33727015816E+02  0.97392053030E+02  0.90078098224E+02 0.  0.
         23    2    1    2    0    0  0.24590876407E+02 -0.44249170684E+02 -0.64287500161E+02  0.12217297219E+03  0.90722941690E+02 0.  0.
        -11    1    3    3    0    0 -0.30596000880E+02 -0.14858601153E+02  0.34984931152E+02  0.48793838810E+02  0.00000000000E+00 0. -1.
         11    1    3    3    0    0  0.45828876451E+02  0.16121977475E+02 -0.12579153360E+01  0.48598214220E+02  0.00000000000E+00 0.  1.
        -13    1    4    4    0    0 -0.33101758209E+02 -0.73352814639E+01 -0.11860273086E+02  0.35919337805E+02  0.00000000000E+00 0.  1.
         13    1    4    4    0    0  0.57692634617E+02 -0.36913889220E+02 -0.52427227076E+02  0.86253634388E+02  0.00000000000E+00 0. -1.
         21    1    1    2  503  501 -0.23889242021E+02  0.16080479884E+02  0.15850469818E+02  0.32871189682E+02  0.00000000000E+00 0.  1.
         -3    1    1    2    0  502 -0.15934509956E+02  0.26905314477E+02 -0.23086371465E+02  0.38868819150E+02  0.00000000000E+00 0.  1.
<scales pt_clust_5="13000.00000" pt_clust_6="13000.00000" pt_clust_7="13000.00000" pt_clust_8="13000.00000" pt_clust_9="28.79718" pt_clust_10="33.28799"></scales>
<clustering>
<clus scale="   28.797">  1  9  2 -1</clus>
<clus scale="   33.288">  2 10  1 -1</clus>
<clus scale="   90.078">  5  6 -1 -1</clus>
<clus scale="   90.723">  7  8 -1 -1</clus>
<clus scale="   92.423">  1  5  2 -1</clus>
<clus scale="   33.288">  2  5  1 -1</clus>
</clustering>
</event>
<event>
10    2  0.3544405E-006  0.9520878E+02  0.7546771E-02  0.1293497E+00
         21   -1    0    0  503  502  0.00000000000E+00  0.00000000000E+00  0.95063505068E+02  0.95063505068E+02  0.00000000000E+00 0. -1.
         -4   -1    0    0    0  501 -0.00000000000E+00 -0.00000000000E+00 -0.28561044955E+03  0.28561044955E+03  0.00000000000E+00 0.  1.
         23    2    1    2    0    0 -0.44897102904E+01 -0.60690641035E+02 -0.11499168179E+03  0.15723932638E+03  0.88304062594E+02 0.  0.
         23    2    1    2    0    0  0.31893723833E+02 -0.94480712589E+01 -0.11658061981E+02  0.99683207650E+02  0.93243529576E+02 0.  0.
        -11    1    3    3    0    0  0.23679056872E+02 -0.27785823420E+02 -0.10717816869E+03  0.11322503946E+03  0.00000000000E+00 0. -1.
         11    1    3    3    0    0 -0.28168767162E+02 -0.32904817616E+02 -0.78135131019E+01  0.44014286916E+02  0.00000000000E+00 0.  1.
        -13    1    4    4    0    0 -0.29419583694E+02 -0.30484807556E+01  0.14229304353E+02  0.32821917099E+02  0.00000000000E+00 0.  1.
         13    1    4    4    0    0  0.61313307527E+02 -0.63995905033E+01 -0.25887366334E+02  0.66861290551E+02  0.00000000000E+00 0. -1.
         21    1    1    2  503  501  0.84596676122E+00  0.68586059917E+02 -0.66249474662E+02  0.95361187952E+02  0.00000000000E+00 0.  1.
         -4    1    1    2    0  502 -0.28249980304E+02  0.15526523770E+01  0.23522739498E+01  0.28390232639E+02  0.00000000000E+00 0.  1.
<scales pt_clust_5="13000.00000" pt_clust_6="13000.00000" pt_clust_7="13000.00000" pt_clust_8="13000.00000" pt_clust_9="69.00463" pt_clust_10="28.29262"></scales>
<clustering>
<clus scale="   28.293">  1 10  2 -1</clus>
<clus scale="   69.005">  2  9  1 -1</clus>
<clus scale="   88.304">  5  6 -1 -1</clus>
<clus scale="   90.377">  2  5  1 -1</clus>
<clus scale="   93.244">  7  8 -1 -1</clus>
<clus scale="   28.293">  1  5  2 -1</clus>
</clustering>
</event>
<event>
10    2  0.3544405E-006  0.1168955E+03  0.7546771E-02  0.1249016E+00
         21   -1    0    0  501  502  0.00000000000E+00  0.00000000000E+00  0.82502272796E+02  0.82502272796E+02  0.00000000000E+00 0.  1.
          2   -1    0    0  503    0 -0.00000000000E+00 -0.00000000000E+00 -0.78792487630E+03  0.78792487630E+03  0.00000000000E+00 0. -1.
         23    2    1    2    0    0 -0.14119107719E+02  0.99314982379E+02 -0.52813106720E+03  0.54531343404E+03  0.91550544887E+02 0.  0.
         23    2    1    2    0    0  0.67998726827E+01 -0.92727685807E+02 -0.20854140045E+02  0.13068678549E+03  0.89439805240E+02 0.  0.
        -11    1    3    3    0    0 -0.33347473005E+02  0.45220386000E+00 -0.96945782389E+02  0.10252191555E+03  0.00000000000E+00 0.  1.
         11    1    3    3    0    0  0.19228365286E+02  0.98862778519E+02 -0.43118528481E+03  0.44279151849E+03  0.00000000000E+00 0. -1.
        -13    1    4    4    0    0  0.20483472231E+02 -0.19328106568E+02 -0.44242049003E+02  0.52445278511E+02  0.00000000000E+00 0. -1.
         13    1    4    4    0    0 -0.13683599548E+02 -0.73399579239E+02  0.23387908958E+02  0.78241506980E+02  0.00000000000E+00 0.  1.
         21    1    1    2  503  502 -0.22594262756E+01 -0.37454874708E+02 -0.15768025035E+03  0.16208341679E+03  0.00000000000E+00 0.  1.
          2    1    1    2  501    0  0.95786613120E+01  0.30867578136E+02  0.12428540985E+01  0.32343512778E+02  0.00000000000E+00 0. -1.
<scales pt_clust_5="13000.00000" pt_clust_6="13000.00000" pt_clust_7="13000.00000" pt_clust_8="13000.00000" pt_clust_9="36.47221" pt_clust_10="32.31962"></scales>
<clustering>
<clus scale="   32.320">  1 10  2 -1</clus>
<clus scale="   36.472">  2  9  1 -1</clus>
<clus scale="   89.440">  7  8 -1 -1</clus>
<clus scale="   91.551">  5  6 -1 -1</clus>
<clus scale="  115.250">  1  7  2 -1</clus>
<clus scale="   32.320">  1  5  2 -1</clus>
</clustering>
</event>
<event>
10    2  0.3544405E-006  0.1003602E+03  0.7546771E-02  0.1279886E+00
         21   -1    0    0  503  502  0.00000000000E+00  0.00000000000E+00  0.14176310978E+03  0.14176310978E+03  0.00000000000E+00 0. -1.
         -3   -1    0    0    0  501 -0.00000000000E+00 -0.00000000000E+00 -0.24947097325E+03  0.24947097325E+03  0.00000000000E+00 0.  1.
         23    2    1    2    0    0 -0.65558339711E+02  0.94105011093E+01 -0.24967520849E+02  0.11445525322E+03  0.89945397073E+02 0.  0.
         23    2    1    2    0    0  0.32941322037E+02 -0.23713834696E+02  0.47120087581E+02  0.10995286264E+03  0.90674432429E+02 0.  0.
        -11    1    4    4    0    0  0.26806362145E+02  0.24300133900E+02  0.49705681339E+02  0.61479527620E+02  0.00000000000E+00 0. -1.
         11    1    4    4    0    0  0.61349598914E+01 -0.48013968596E+02 -0.25855937577E+01  0.48473335024E+02  0.00000000000E+00 0.  1.
        -11    1    3    3    0    0 -0.32463424529E+02 -0.35406351557E+02 -0.32841283703E+02  0.58189634627E+02  0.00000000000E+00 0.  1.
         11    1    3    3    0    0 -0.33094915182E+02  0.44816852666E+02  0.78737628545E+01  0.56265618590E+02  0.00000000000E+00 0. -1.
         21    1    1    2  503  501  0.41181063531E+02 -0.17211764148E+02 -0.12632388921E+03  0.13397704954E+03  0.00000000000E+00 0. -1.
         -3    1    1    2    0  502 -0.85640458569E+01  0.31515097735E+02 -0.35365409880E+01  0.32848917620E+02  0.00000000000E+00 0.  1.
<scales pt_clust_5="13000.00000" pt_clust_6="13000.00000" pt_clust_7="13000.00000" pt_clust_8="13000.00000" pt_clust_9="44.03631" pt_clust_10="32.65799"></scales>
<clustering>
<clus scale="   32.658">  1 10  2 -1</clus>
<clus scale="   44.036">  2  9  1 -1</clus>
<clus scale="   89.945">  7  8 -1 -1</clus>
<clus scale="   90.674">  5  6 -1 -1</clus>
<clus scale="   99.702">  2  7  1 -1</clus>
<clus scale="   32.658">  1  5  2 -1</clus>
</clustering>
</event>
<event>
10    2  0.3544405E-006  0.1771633E+03  0.7546771E-02  0.1197422E+00
         -1   -1    0    0    0  501 -0.00000000000E+00  0.00000000000E+00  0.11266696397E+03  0.11266696397E+03  0.00000000000E+00 0.  1.
         21   -1    0    0  503  502  0.00000000000E+00 -0.00000000000E+00 -0.12661606993E+04  0.12661606993E+04  0.00000000000E+00 0.  1.
         23    2    1    2    0    0  0.42309184368E+01 -0.17393234306E+02 -0.12075313162E+03  0.15324838080E+03  0.92646220385E+02 0.  0.
         23    2    1    2    0    0 -0.12181596408E+03 -0.43765473751E+02 -0.65103204847E+02  0.17639173564E+03  0.10060353535E+03 0.  0.
        -11    1    4    4    0    0 -0.29625101339E+01 -0.36250510250E+02 -0.41142736860E+02  0.54914485849E+02  0.00000000000E+00 0. -1.
         11    1    4    4    0    0 -0.11885345395E+03 -0.75149635015E+01 -0.23960467987E+02  0.12147724980E+03  0.00000000000E+00 0.  1.
        -13    1    3    3    0    0 -0.32810488014E+02  0.17033739645E+02 -0.80608758908E+02  0.88681725416E+02  0.00000000000E+00 0. -1.
         13    1    3    3    0    0  0.37041406451E+02 -0.34426973951E+02 -0.40144372716E+02  0.64566655388E+02  0.00000000000E+00 0.  1.
         21    1    1    2  503  501  0.21171032698E+02 -0.52583681280E+02  0.12271896690E+02  0.57998755253E+02  0.00000000000E+00 0. -1.
         -1    1    1    2    0  502  0.96414012946E+02  0.11374238934E+03 -0.97990929557E+03  0.99118879159E+03  0.00000000000E+00 0.  1.
<scales pt_clust_5="13000.00000" pt_clust_6="13000.00000" pt_clust_7="13000.00000" pt_clust_8="13000.00000" pt_clust_9="56.68559" pt_clust_10="145.82782"></scales>
<clustering>
<clus scale="   56.686">  1  9  2 -1</clus>
<clus scale="   92.646">  7  8 -1 -1</clus>
<clus scale="   97.292">  1  7  2 -1</clus>
<clus scale="  100.604">  5  6 -1 -1</clus>
<clus scale="  145.828">  2 10  1 -1</clus>
<clus scale="  145.828">  2  5  1 -1</clus>
</clustering>
</event>
<event>
10    2  0.3544405E-006  0.1161235E+03  0.7546771E-02  0.1253588E+00
         -1   -1    0    0    0  501 -0.00000000000E+00  0.00000000000E+00  0.22614469671E+03  0.22614469671E+03  0.00000000000E+00 0.  1.
         21   -1    0    0  503  502  0.00000000000E+00 -0.00000000000E+00 -0.28111932166E+03  0.28111932166E+03  0.00000000000E+00 0.  1.
         23    2    1    2    0    0 -0.62714414403E+02 -0.97760181836E+01  0.11653424520E+03  0.15525428811E+03  0.80591534091E+02 0.  0.
         23    2    1    2    0    0  0.34996728425E+02  0.20936204605E+02 -0.18755146388E+02  0.10235369611E+03  0.91986020283E+02 0.  0.
        -11    1    3    3    0    0 -0.67919232146E+02  0.17692011060E+02  0.10180725932E+03  0.12365576170E+03  0.00000000000E+00 0. -1.
         11    1    3    3    0    0  0.52048177431E+01 -0.27468029244E+02  0.14726985874E+02  0.31598526409E+02  0.00000000000E+00 0.  1.
        -13    1    4    4    0    0  0.13313297837E+02  0.42881724367E+02  0.22991164372E+02  0.50444819587E+02  0.00000000000E+00 0. -1.
         13    1    4    4    0    0  0.21683430587E+02 -0.21945519763E+02 -0.41746310760E+02  0.51908876522E+02  0.00000000000E+00 0.  1.
         21    1    1    2  503  501 -0.47781242494E+02 -0.49630515603E+02  0.65651679572E+01  0.69205033369E+02  0.00000000000E+00 0.  1.
         -1    1    1    2    0  502  0.75498928473E+02  0.38470329182E+02 -0.15931889172E+03  0.18045100079E+03  0.00000000000E+00 0.  1.
<scales pt_clust_5="13000.00000" pt_clust_6="13000.00000" pt_clust_7="13000.00000" pt_clust_8="13000.00000" pt_clust_9="68.89293" pt_clust_10="81.09101"></scales>
<clustering>
<clus scale="   68.893">  1  9  2 -1</clus>
<clus scale="   80.592">  5  6 -1 -1</clus>
<clus scale="   81.091">  2 10  1 -1</clus>
<clus scale="   91.986">  7  8 -1 -1</clus>
<clus scale="  107.323">  1  5  2 -1</clus>
<clus scale="   81.091">  2  5  1 -1</clus>
</clustering>
</event>
<event>
10    2  0.3544405E-006  0.1020966E+03  0.7546771E-02  0.1276363E+00
          1   -1    0    0  503    0 -0.00000000000E+00  0.00000000000E+00  0.20293620021E+02  0.20293620021E+02  0.00000000000E+00 0. -1.
         21   -1    0    0  501  502  0.00000000000E+00 -0.00000000000E+00 -0.10092199518E+04  0.10092199518E+04  0.00000000000E+00 0.  1.
         23    2    1    2    0    0  0.44449762069E+02  0.21393411737E+02 -0.26375551941E+03  0.28336014832E+03  0.91063385760E+02 0.  0.
         23    2    1    2    0    0 -0.36125214439E+02 -0.72282224780E+01 -0.37113528377E+03  0.38412940699E+03  0.91960448788E+02 0.  0.
        -11    1    3    3    0    0  0.60337202091E+02 -0.32719752658E+01 -0.98781248263E+02  0.11579731770E+03  0.00000000000E+00 0.  1.
         11    1    3    3    0    0 -0.15887440022E+02  0.24665387003E+02 -0.16497427114E+03  0.16756283062E+03  0.00000000000E+00 0. -1.
        -11    1    4    4    0    0 -0.66219673167E+02 -0.15245025804E+01 -0.28833310553E+03  0.29584345348E+03  0.00000000000E+00 0. -1.
         11    1    4    4    0    0  0.30094458728E+02 -0.57037198976E+01 -0.82802178237E+02  0.88285953512E+02  0.00000000000E+00 0.  1.
         21    1    1    2  503  502 -0.43336222191E+01  0.27364000137E+02 -0.76337601252E+02  0.81209593953E+02  0.00000000000E+00 0.  1.
          1    1    1    2  501    0 -0.39909254114E+01 -0.41529189396E+02 -0.27769792732E+03  0.28081442252E+03  0.00000000000E+00 0. -1.
<scales pt_clust_5="13000.00000" pt_clust_6="13000.00000" pt_clust_7="13000.00000" pt_clust_8="13000.00000" pt_clust_9="27.70503" pt_clust_10="39.38451"></scales>
<clustering>
<clus scale="   27.705">  1  9  2 -1</clus>
<clus scale="   39.385">  2 10  1 -1</clus>
<clus scale="   91.063">  5  6 -1 -1</clus>
<clus scale="   91.960">  7  8 -1 -1</clus>
<clus scale="  101.289">  1  5  2 -1</clus>
<clus scale="   39.385">  2  5  1 -1</clus>
</clustering>
</event>
<event>
10    2  0.3544405E-006  0.1242702E+03  0.7546771E-02  0.1251575E+00
          1   -1    0    0  503    0 -0.00000000000E+00  0.00000000000E+00  0.23946876062E+03  0.23946876062E+03  0.00000000000E+00 0. -1.
         21   -1    0    0  501  502  0.00000000000E+00 -0.00000000000E+00 -0.20936460263E+03  0.20936460263E+03  0.00000000000E+00 0. -1.
         23    2    1    2    0    0 -0.88816918140E+01 -0.40434487811E+02  0.42157495057E+02  0.10648409901E+03  0.88587678033E+02 0.  0.
         23    2    1    2    0    0  0.46437000487E+02 -0.57360975890E+02 -0.16730146581E+01  0.14294189952E+03  0.12240470208E+03 0.  0.
        -13    1    4    4    0    0 -0.30322084315E+02 -0.57263353893E+02 -0.10629210719E+02  0.65662018068E+02  0.00000000000E+00 0.  1.
         13    1    4    4    0    0  0.76759084802E+02 -0.97621997404E-01  0.89561960613E+01  0.77279881454E+02  0.00000000000E+00 0. -1.
        -13    1    3    3    0    0 -0.37143060702E+02 -0.18454713256E+02 -0.10522913795E+02  0.42789193898E+02  0.00000000000E+00 0. -1.
         13    1    3    3    0    0  0.28261368888E+02 -0.21979774556E+02  0.52680408852E+02  0.63694905116E+02  0.00000000000E+00 0.  1.
         21    1    1    2  503  502 -0.27650797389E+01  0.33766956434E+02  0.77893236201E+02  0.84942387879E+02  0.00000000000E+00 0.  1.
          1    1    1    2  501    0 -0.34790228934E+02  0.64028507268E+02 -0.88273558610E+02  0.11446497684E+03  0.00000000000E+00 0. -1.
<scales pt_clust_5="13000.00000" pt_clust_6="13000.00000" pt_clust_7="13000.00000" pt_clust_8="13000.00000" pt_clust_9="33.87998" pt_clust_10="75.44611"></scales>
<clustering>
<clus scale="   33.880">  1  9  2 -1</clus>
<clus scale="   75.446">  2 10  1 -1</clus>
<clus scale="   88.588">  7  8 -1 -1</clus>
<clus scale="   91.148">  1  7  2 -1</clus>
<clus scale="  122.405">  5  6 -1 -1</clus>
<clus scale="   75.446">  2  5  1 -1</clus>
</clustering>
</event>
<event>
10    2  0.3544405E-006  0.9946867E+02  0.7546771E-02  0.1281815E+00
         21   -1    0    0  503  502  0.00000000000E+00  0.00000000000E+00  0.15758349504E+03  0.15758349504E+03  0.00000000000E+00 0.  1.
         -1   -1    0    0    0  501 -0.00000000000E+00 -0.00000000000E+00 -0.16410177506E+03  0.16410177506E+03  0.00000000000E+00 0.  1.
         23    2    1    2    0    0  0.23687562222E+01 -0.17333396231E+02 -0.19495109730E+02  0.95994730023E+02  0.92351888220E+02 0.  0.
         23    2    1    2    0    0 -0.19493154787E+02  0.63254797574E+02  0.15794462132E+02  0.11535963057E+03  0.93151633536E+02 0.  0.
        -11    1    3    3    0    0  0.18468881357E+02  0.83923734930E+01  0.31019873730E+02  0.37064323515E+02  0.00000000000E+00 0. -1.
         11    1    3    3    0    0 -0.16100125135E+02 -0.25725769724E+02 -0.50514983459E+02  0.58930406507E+02  0.00000000000E+00 0.  1.
        -13    1    4    4    0    0  0.91635448491E+00  0.81671742869E+02 -0.35355374931E+01  0.81753368825E+02  0.00000000000E+00 0.  1.
         13    1    4    4    0    0 -0.20409509272E+02 -0.18416945295E+02  0.19329999625E+02  0.33606261741E+02  0.00000000000E+00 0. -1.
         21    1    1    2  503  501 -0.36044478667E+02  0.30173897324E+01 -0.10492133144E+02  0.37661571145E+02  0.00000000000E+00 0. -1.
         -1    1    1    2    0  502  0.53168877232E+02 -0.48938791076E+02  0.76745007163E+01  0.72669338371E+02  0.00000000000E+00 0.  1.
<scales pt_clust_5="13000.00000" pt_clust_6="13000.00000" pt_clust_7="13000.00000" pt_clust_8="13000.00000" pt_clust_9="36.17056" pt_clust_10="65.83550"></scales>
<clustering>
<clus scale="   36.171">  2  9  1 -1</clus>
<clus scale="   65.835">  1 10  2 -1</clus>
<clus scale="   92.352">  5  6 -1 -1</clus>
<clus scale="   93.152">  7  8 -1 -1</clus>
<clus scale="   98.720">  2  5  1 -1</clus>
<clus scale="   65.835">  1  5  2 -1</clus>
</clustering>
</event>
<event>
10    2  0.3544405E-006  0.1932748E+03  0.7546771E-02  0.1176223E+00
          1   -1    0    0  503    0 -0.00000000000E+00  0.00000000000E+00  0.47958417638E+03  0.47958417638E+03  0.00000000000E+00 0. -1.
         21   -1    0    0  501  502  0.00000000000E+00 -0.00000000000E+00 -0.28078032825E+03  0.28078032825E+03  0.00000000000E+00 0. -1.
         23    2    1    2    0    0 -0.75199891503E+02 -0.30139180281E+02  0.71818442913E+02  0.14626676141E+03  0.98349798575E+02 0.  0.
         23    2    1    2    0    0  0.19991509919E+03  0.34523001420E+02  0.11566053145E+03  0.25254957014E+03  0.96156343149E+02 0.  0.
        -11    1    3    3    0    0 -0.63508900013E+02 -0.64414756091E+02  0.58267649391E+02  0.10760000069E+03  0.00000000000E+00 0.  1.
         11    1    3    3    0    0 -0.11690991490E+02  0.34275575810E+02  0.13550793521E+02  0.38666760715E+02  0.00000000000E+00 0. -1.
        -13    1    4    4    0    0  0.21013383341E+02  0.77401654381E+01 -0.17090762874E+02  0.28170314448E+02  0.00000000000E+00 0.  1.
         13    1    4    4    0    0  0.17890171585E+03  0.26782835982E+02  0.13275129433E+03  0.22437925569E+03  0.00000000000E+00 0. -1.
         21    1    1    2  503  502  0.34990311712E+02  0.12463575788E+02  0.14681184349E+03  0.15143771005E+03  0.00000000000E+00 0.  1.
          1    1    1    2  501    0 -0.15970551940E+03 -0.16847396927E+02 -0.13548696973E+03  0.21011046304E+03  0.00000000000E+00 0. -1.
<scales pt_clust_5="13000.00000" pt_clust_6="13000.00000" pt_clust_7="13000.00000" pt_clust_8="13000.00000" pt_clust_9="37.14381" pt_clust_10="167.65775"></scales>
<clustering>
<clus scale="   37.144">  1  9  2 -1</clus>
<clus scale="   96.156">  7  8 -1 -1</clus>
<clus scale="   98.350">  5  6 -1 -1</clus>
<clus scale="  120.008">  1  5  2 -1</clus>
<clus scale="  167.658">  2 10  1 -1</clus>
<clus scale="  167.658">  2  5  1 -1</clus>
</clustering>
</event>
<event>
10    2  0.3544405E-006  0.9603338E+02  0.7546771E-02  0.1289171E+00
          2   -1    0    0  503    0 -0.00000000000E+00  0.00000000000E+00  0.59902511246E+02  0.59902511246E+02  0.00000000000E+00 0. -1.
         21   -1    0    0  501  502  0.00000000000E+00 -0.00000000000E+00 -0.29218556353E+03  0.29218556353E+03  0.00000000000E+00 0. -1.
         23    2    1    2    0    0 -0.27351438684E+02 -0.98338525117E+01 -0.45533313256E+02  0.10532427559E+03  0.90416340110E+02 0.  0.
         23    2    1    2    0    0  0.35782587930E+02 -0.64103324923E+01 -0.11139345025E+03  0.14835871888E+03  0.90996278763E+02 0.  0.
        -11    1    3    3    0    0  0.29285595973E+02 -0.84763193393E+01 -0.37142974827E+02  0.48053040487E+02  0.00000000000E+00 0.  1.
         11    1    3    3    0    0 -0.56637034657E+02 -0.13575331724E+01 -0.83903384284E+01  0.57271235101E+02  0.00000000000E+00 0. -1.
        -13    1    4    4    0    0 -0.90330292015E+01  0.35491296495E+02 -0.40469229285E+02  0.54580090348E+02  0.00000000000E+00 0.  1.
         13    1    4    4    0    0  0.44815617131E+02 -0.41901628987E+02 -0.70924220963E+02  0.93778628535E+02  0.00000000000E+00 0. -1.
         21    1    1    2  503  502  0.25328012183E+01 -0.22502734493E+02 -0.22131615127E+02  0.31663804727E+02  0.00000000000E+00 0. -1.
          2    1    1    2  501    0 -0.10963950464E+02  0.38746919497E+02 -0.53224673650E+02  0.66741275576E+02  0.00000000000E+00 0. -1.
<scales pt_clust_5="13000.00000" pt_clust_6="13000.00000" pt_clust_7="13000.00000" pt_clust_8="13000.00000" pt_clust_9="22.64483" pt_clust_10="35.22644"></scales>
<clustering>
<clus scale="   22.645">  2  9  1 -1</clus>
<clus scale="   35.226">  2 10  1 -1</clus>
<clus scale="   90.416">  5  6 -1 -1</clus>
<clus scale="   90.996">  7  8 -1 -1</clus>
<clus scale="   95.484">  1  5  2 -1</clus>
<clus scale="   22.645">  2  5  1 -1</clus>
</clustering>
</event>
<event>
10    2  0.3544405E-006  0.1078543E+03  0.7546771E-02  0.1265158E+00
         21   -1    0    0  501  502  0.00000000000E+00  0.00000000000E+00  0.23964145328E+03  0.23964145328E+03  0.00000000000E+00 0. -1.
          2   -1    0    0  503    0 -0.00000000000E+00 -0.00000000000E+00 -0.36834280445E+03  0.36834280445E+03  0.00000000000E+00 0. -1.
         23    2    1    2    0    0  0.27140031970E+02 -0.65688965741E+02 -0.27410651935E+03  0.29680019065E+03  0.88906398327E+02 0.  0.
         23    2    1    2    0    0 -0.35571257001E+01  0.18811738199E+02  0.63975383511E+02  0.11232163413E+03  0.90314811418E+02 0.  0.
        -11    1    4    4    0    0 -0.17165173518E+01  0.53058730181E+02  0.20406536166E+02  0.56873561507E+02  0.00000000000E+00 0.  1.
         11    1    4    4    0    0 -0.18406083483E+01 -0.34246991982E+02  0.43568847345E+02  0.55448072625E+02  0.00000000000E+00 0. -1.
        -13    1    3    3    0    0 -0.24820870259E+02 -0.25421619956E+02 -0.17002212892E+03  0.17369472843E+03  0.00000000000E+00 0. -1.
         13    1    3    3    0    0  0.51960902229E+02 -0.40267345785E+02 -0.10408439043E+03  0.12310546222E+03  0.00000000000E+00 0.  1.
         21    1    1    2  503  502 -0.28672467269E+02  0.23389236565E+00 -0.50922009248E+02  0.58439850366E+02  0.00000000000E+00 0. -1.
          2    1    1    2  501    0  0.50895609990E+01  0.46643335176E+02  0.13235179392E+03  0.14042258259E+03  0.00000000000E+00 0. -1.
<scales pt_clust_5="13000.00000" pt_clust_6="13000.00000" pt_clust_7="13000.00000" pt_clust_8="13000.00000" pt_clust_9="28.67342" pt_clust_10="46.88461"></scales>
<clustering>
<clus scale="   28.673">  2  9  1 -1</clus>
<clus scale="   46.885">  1 10  2 -1</clus>
<clus scale="   88.906">  7  8 -1 -1</clus>
<clus scale="   90.315">  5  6 -1 -1</clus>
<clus scale="  106.678">  2  7  1 -1</clus>
<clus scale="   46.885">  1  5  2 -1</clus>
</clustering>
</event>
<event>
10    2  0.3544405E-006  0.1034638E+03  0.7546771E-02  0.1273583E+00
         -3   -1    0    0    0  501 -0.00000000000E+00  0.00000000000E+00  0.34854294878E+03  0.34854294878E+03  0.00000000000E+00 0.  1.
         21   -1    0    0  503  502  0.00000000000E+00 -0.00000000000E+00 -0.24779665581E+03  0.24779665581E+03  0.00000000000E+00 0. -1.
         23    2    1    2    0    0  0.41859004696E+02  0.42123372274E+02  0.21178764584E+03  0.23821720481E+03  0.91470623539E+02 0.  0.
         23    2    1    2    0    0  0.48971240315E+01 -0.68637284431E+02 -0.10579042201E+03  0.15533011773E+03  0.90558121934E+02 0.  0.
        -11    1    3    3    0    0 -0.24382977876E+02  0.31851602167E+02  0.58702705504E+02  0.71098957828E+02  0.00000000000E+00 0. -1.
         11    1    3    3    0    0  0.66241982572E+02  0.10271770107E+02  0.15308494034E+03  0.16711824698E+03  0.00000000000E+00 0.  1.
        -13    1    4    4    0    0 -0.21056515621E+02 -0.69163110277E+02 -0.10723607820E+03  0.12933092879E+03  0.00000000000E+00 0. -1.
         13    1    4    4    0    0  0.25953639653E+02  0.52582584594E+00  0.14456561900E+01  0.25999188946E+02  0.00000000000E+00 0.  1.
         21    1    1    2  503  501 -0.37096850796E+02  0.34488375807E+01  0.93644851424E+02  0.10078407125E+03  0.00000000000E+00 0.  1.
         -3    1    1    2    0  502 -0.96592779313E+01  0.23065074577E+02 -0.98895782291E+02  0.10200821080E+03  0.00000000000E+00 0.  1.
<scales pt_clust_5="13000.00000" pt_clust_6="13000.00000" pt_clust_7="13000.00000" pt_clust_8="13000.00000" pt_clust_9="37.54536" pt_clust_10="25.00599"></scales>
<clustering>
<clus scale="   25.006">  2 10  1 -1</clus>
<clus scale="   37.545">  1  9  2 -1</clus>
<clus scale="   90.558">  7  8 -1 -1</clus>
<clus scale="   91.471">  5  6 -1 -1</clus>
<clus scale="  102.658">  2  7  1 -1</clus>
<clus scale="   25.006">  2  5  1 -1</clus>
</clustering>
</event>
<event>
10    2  0.3544405E-006  0.1513257E+03  0.7546771E-02  0.1199129E+00
         21   -1    0    0  501  502  0.00000000000E+00  0.00000000000E+00  0.18104504586E+03  0.18104504586E+03  0.00000000000E+00 0. -1.
          1   -1    0    0  503    0 -0.00000000000E+00 -0.00000000000E+00 -0.72387879536E+03  0.72387879536E+03  0.00000000000E+00 0. -1.
         23    2    1    2    0    0  0.55280720519E+02 -0.95709043920E+02 -0.26937470777E+03  0.30474580270E+03  0.89950497108E+02 0.  0.
         23    2    1    2    0    0  0.10777469741E+03  0.14469578886E+03 -0.69906801896E+02  0.21401632337E+03  0.91453644006E+02 0.  0.
        -11    1    3    3    0    0 -0.13857388535E+02 -0.65043889525E+02 -0.13697785376E+03  0.15226840513E+03  0.00000000000E+00 0.  1.
         11    1    3    3    0    0  0.69138109054E+02 -0.30665154394E+02 -0.13239685401E+03  0.15247739757E+03  0.00000000000E+00 0. -1.
        -11    1    4    4    0    0  0.77552840833E+02  0.12671127075E+03 -0.89819260608E+02  0.17360209916E+03  0.00000000000E+00 0. -1.
         11    1    4    4    0    0  0.30221856580E+02  0.17984518110E+02  0.19912458711E+02  0.40414224213E+02  0.00000000000E+00 0.  1.
         21    1    1    2  503  502 -0.23029952926E+02 -0.33580915450E+02 -0.23774019776E+03  0.24120211078E+03  0.00000000000E+00 0. -1.
          1    1    1    2  501    0 -0.14002546501E+03 -0.15405829493E+02  0.34187957915E+02  0.14495960437E+03  0.00000000000E+00 0. -1.
<scales pt_clust_5="13000.00000" pt_clust_6="13000.00000" pt_clust_7="13000.00000" pt_clust_8="13000.00000" pt_clust_9="40.71924" pt_clust_10="143.95094"></scales>
<clustering>
<clus scale="   40.719">  2  9  1 -1</clus>
<clus scale="   89.950">  5  6 -1 -1</clus>
<clus scale="   91.454">  7  8 -1 -1</clus>
<clus scale="  143.951">  1 10  2 -1</clus>
<clus scale="  150.422">  2  5  1 -1</clus>
<clus scale="  143.951">  1  5  2 -1</clus>
</clustering>
</event>
<event>
10    2  0.3544405E-006  0.1476489E+03  0.7546771E-02  0.1207129E+00
          2   -1    0    0  503    0 -0.00000000000E+00  0.00000000000E+00  0.75942668567E+02  0.75942668567E+02  0.00000000000E+00 0. -1.
         21   -1    0    0  501  502  0.00000000000E+00 -0.00000000000E+00 -0.10650860175E+04  0.10650860175E+04  0.00000000000E+00 0.  1.
         23    2    1    2    0    0 -0.18024761595E+02  0.94183780792E+02 -0.13363211809E+03  0.18742189543E+03  0.89855146257E+02 0.  0.
         23    2    1    2    0    0 -0.21906254528E+02 -0.17542754046E+03 -0.69618417102E+03  0.72611355660E+03  0.10636630651E+03 0.  0.
        -13    1    3    3    0    0  0.33756642766E+02  0.48258893999E+02 -0.82527505370E+02  0.10138649281E+03  0.00000000000E+00 0.  1.
         13    1    3    3    0    0 -0.51781404361E+02  0.45924886793E+02 -0.51104612717E+02  0.86035402629E+02  0.00000000000E+00 0. -1.
        -13    1    4    4    0    0  0.31190723625E+01 -0.11142543083E+03 -0.58408769593E+03  0.59462912120E+03  0.00000000000E+00 0.  1.
         13    1    4    4    0    0 -0.25025326890E+02 -0.64002109638E+02 -0.11209647509E+03  0.13148443540E+03  0.00000000000E+00 0. -1.
         21    1    1    2  503  502  0.11904711010E+02 -0.16102000030E+02  0.15578137660E+02  0.25370749342E+02  0.00000000000E+00 0.  1.
          2    1    1    2  501    0  0.28026305113E+02  0.97345759701E+02 -0.17490519748E+03  0.20212248469E+03  0.00000000000E+00 0. -1.
<scales pt_clust_5="13000.00000" pt_clust_6="13000.00000" pt_clust_7="13000.00000" pt_clust_8="13000.00000" pt_clust_9="20.02490" pt_clust_10="98.38905"></scales>
<clustering>
<clus scale="   20.025">  1  9  2 -1</clus>
<clus scale="   89.855">  5  6 -1 -1</clus>
<clus scale="   98.389">  2 10  1 -1</clus>
<clus scale="  106.366">  7  8 -1 -1</clus>
<clus scale="  136.236">  1  5  2 -1</clus>
<clus scale="   98.389">  2  5  1 -1</clus>
</clustering>
</event>
<event>
10    2  0.3544405E-006  0.1339619E+03  0.7546771E-02  0.1223210E+00
         21   -1    0    0  501  502  0.00000000000E+00  0.00000000000E+00  0.55315101504E+02  0.55315101504E+02  0.00000000000E+00 0.  1.
          2   -1    0    0  503    0 -0.00000000000E+00 -0.00000000000E+00 -0.79359885806E+03  0.79359885806E+03  0.00000000000E+00 0. -1.
         23    2    1    2    0    0 -0.81493787258E+02  0.36611723932E+02 -0.35686426440E+03  0.37879903248E+03  0.90304751302E+02 0.  0.
         23    2    1    2    0    0  0.97929070049E+02 -0.55035168241E+01 -0.24265432874E+03  0.27885395497E+03  0.96218571444E+02 0.  0.
        -11    1    4    4    0    0  0.26086518933E+02 -0.33201552671E+02 -0.27632473143E+02  0.50461897921E+02  0.00000000000E+00 0.  1.
         11    1    4    4    0    0  0.71842551116E+02  0.27698035847E+02 -0.21502185560E+03  0.22839205705E+03  0.00000000000E+00 0. -1.
        -11    1    3    3    0    0 -0.26910148792E+00 -0.24602826012E+02 -0.86707332290E+02  0.90130643714E+02  0.00000000000E+00 0. -1.
         11    1    3    3    0    0 -0.81224685770E+02  0.61214549943E+02 -0.27015693211E+03  0.28866838876E+03  0.00000000000E+00 0.  1.
         21    1    1    2  503  502 -0.21893163158E+02 -0.50739438711E+02 -0.15541520156E+03  0.16494752532E+03  0.00000000000E+00 0.  1.
          2    1    1    2  501    0  0.54578803663E+01  0.19631231603E+02  0.16650038138E+02  0.26313446797E+02  0.00000000000E+00 0. -1.
<scales pt_clust_5="13000.00000" pt_clust_6="13000.00000" pt_clust_7="13000.00000" pt_clust_8="13000.00000" pt_clust_9="52.41886" pt_clust_10="20.37581"></scales>
<clustering>
<clus scale="   20.376">  1 10  2 -1</clus>
<clus scale="   52.419">  2  9  1 -1</clus>
<clus scale="   90.305">  7  8 -1 -1</clus>
<clus scale="   96.219">  5  6 -1 -1</clus>
<clus scale="  129.779">  2  7  1 -1</clus>
<clus scale="   20.376">  1  5  2 -1</clus>
</clustering>
</event>
<event>
10    2  0.3544405E-006  0.1669945E+03  0.7546771E-02  0.1188596E+00
         21   -1    0    0  503  502  0.00000000000E+00  0.00000000000E+00  0.75060030386E+03  0.75060030386E+03  0.00000000000E+00 0. -1.
         -1   -1    0    0    0  501 -0.00000000000E+00 -0.00000000000E+00 -0.12082028609E+03  0.12082028609E+03  0.00000000000E+00 0.  1.
         23    2    1    2    0    0 -0.16686774307E+01  0.82927703766E+02  0.30224114282E+01  0.14578302430E+03  0.11984893269E+03 0.  0.
         23    2    1    2    0    0  0.63333516211E+02 -0.15861460654E+03  0.19783032060E+03  0.27326817219E+03  0.79805579404E+02 0.  0.
        -11    1    3    3    0    0 -0.58646957793E+02  0.24235927902E+02 -0.46281302482E+01  0.63625980929E+02  0.00000000000E+00 0. -1.
         11    1    3    3    0    0  0.56978280362E+02  0.58691775864E+02  0.76505416764E+01  0.82157043369E+02  0.00000000000E+00 0.  1.
        -11    1    4    4    0    0 -0.53619507908E+01 -0.81375386217E+02  0.61301229320E+02  0.10202227558E+03  0.00000000000E+00 0.  1.
         11    1    4    4    0    0  0.68695467002E+02 -0.77239220319E+02  0.13652909128E+03  0.17124589661E+03  0.00000000000E+00 0. -1.
         21    1    1    2  503  501 -0.14277490511E+02  0.21449724987E+02  0.10558229988E+02  0.27846250336E+02  0.00000000000E+00 0.  1.
         -1    1    1    2    0  502 -0.47387348269E+02  0.54237177782E+02  0.41836905576E+03  0.42452314312E+03  0.00000000000E+00 0.  1.
<scales pt_clust_5="13000.00000" pt_clust_6="13000.00000" pt_clust_7="13000.00000" pt_clust_8="13000.00000" pt_clust_9="25.76698" pt_clust_10="72.72326"></scales>
<clustering>
<clus scale="   25.767">  2  9  1 -1</clus>
<clus scale="   72.723">  1 10  2 -1</clus>
<clus scale="   79.806">  7  8 -1 -1</clus>
<clus scale="  119.849">  5  6 -1 -1</clus>
<clus scale="  141.040">  1  7  2 -1</clus>
<clus scale="   72.723">  1  5  2 -1</clus>
</clustering>
</event>
<event>
10    2  0.3544405E-006  0.9978206E+02  0.7546771E-02  0.1284657E+00
         21   -1    0    0  501  502  0.00000000000E+00  0.00000000000E+00  0.44285802035E+03  0.44285802035E+03  0.00000000000E+00 0. -1.
          1   -1    0    0  503    0 -0.00000000000E+00 -0.00000000000E+00 -0.26395280571E+03  0.26395280571E+03  0.00000000000E+00 0. -1.
         23    2    1    2    0    0 -0.60931953867E+02 -0.20566396712E+02 -0.15780271916E+03  0.19026404466E+03  0.84634678712E+02 0.  0.
         23    2    1    2    0    0  0.49272692946E+01 -0.35220162501E+02 -0.25699613600E+02  0.10225901326E+03  0.92367190199E+02 0.  0.
        -11    1    3    3    0    0 -0.20524858717E+02  0.28021084646E+02 -0.95084719762E+02  0.10123020766E+03  0.00000000000E+00 0. -1.
         11    1    3    3    0    0 -0.40407095150E+02 -0.48587481358E+02 -0.62717999401E+02  0.89033837006E+02  0.00000000000E+00 0.  1.
        -13    1    4    4    0    0  0.12835536104E+02 -0.65826986232E+02 -0.13735869048E+02  0.68458872339E+02  0.00000000000E+00 0.  1.
         13    1    4    4    0    0 -0.79082668093E+01  0.30606823731E+02 -0.11963744552E+02  0.33800140925E+02  0.00000000000E+00 0. -1.
         21    1    1    2  503  502  0.11977554313E+02  0.38089394874E+02 -0.81105180418E+01  0.40743641370E+02  0.00000000000E+00 0. -1.
          1    1    1    2  501    0  0.44027130259E+02  0.17697164340E+02  0.37051806544E+03  0.37354412677E+03  0.00000000000E+00 0. -1.
<scales pt_clust_5="13000.00000" pt_clust_6="13000.00000" pt_clust_7="13000.00000" pt_clust_8="13000.00000" pt_clust_9="39.92823" pt_clust_10="47.61113"></scales>
<clustering>
<clus scale="   39.928">  2  9  1 -1</clus>
<clus scale="   47.611">  1 10  2 -1</clus>
<clus scale="   84.635">  5  6 -1 -1</clus>
<clus scale="   92.367">  7  8 -1 -1</clus>
<clus scale="   92.670">  2  5  1 -1</clus>
<clus scale="   47.611">  1  5  2 -1</clus>
</clustering>
</event>
<event>
10    2  0.3544405E-006  0.1067707E+03  0.7546771E-02  0.1270356E+00
         -1   -1    0    0    0  501 -0.00000000000E+00  0.00000000000E+00  0.55662910780E+03  0.55662910780E+03  0.00000000000E+00 0.  1.
         21   -1    0    0  503  502  0.00000000000E+00 -0.00000000000E+00 -0.14328289370E+03  0.14328289370E+03  0.00000000000E+00 0. -1.
         23    2    1    2    0    0 -0.32885605153E+02 -0.24532429087E+01  0.38092649524E+03  0.39123351793E+03  0.82892637471E+02 0.  0.
         23    2    1    2    0    0  0.74896287769E+02 -0.61799592166E+00 -0.72505982506E+02  0.13876710992E+03  0.91593435655E+02 0.  0.
        -11    1    3    3    0    0 -0.60890548428E+02 -0.45354632203E+01  0.26800712399E+03  0.27487460382E+03  0.00000000000E+00 0.  1.
         11    1    3    3    0    0  0.28004943275E+02  0.20822203116E+01  0.11291937125E+03  0.11635891411E+03  0.00000000000E+00 0. -1.
        -13    1    4    4    0    0  0.26256398044E+02 -0.33708912207E+02  0.32499173582E+01  0.42851501296E+02  0.00000000000E+00 0.  1.
         13    1    4    4    0    0  0.48639889725E+02  0.33090916286E+02 -0.75755899864E+02  0.95915608621E+02  0.00000000000E+00 0. -1.
         21    1    1    2  503  501 -0.22440632445E+02 -0.21468402037E+01  0.13322066563E+03  0.13511453163E+03  0.00000000000E+00 0.  1.
         -1    1    1    2    0  502 -0.19570050171E+02  0.52180790341E+01 -0.28294964263E+02  0.34796842028E+02  0.00000000000E+00 0.  1.
<scales pt_clust_5="13000.00000" pt_clust_6="13000.00000" pt_clust_7="13000.00000" pt_clust_8="13000.00000" pt_clust_9="22.70405" pt_clust_10="20.25377"></scales>
<clustering>
<clus scale="   20.254">  2 10  1 -1</clus>
<clus scale="   22.704">  1  9  2 -1</clus>
<clus scale="   82.893">  5  6 -1 -1</clus>
<clus scale="   91.593">  7  8 -1 -1</clus>
<clus scale="   99.407">  1  5  2 -1</clus>
<clus scale="   20.254">  2  5  1 -1</clus>
</clustering>
</event>
<event>
10    2  0.3544405E-006  0.1598447E+03  0.7546771E-02  0.1189175E+00
         21   -1    0    0  501  502  0.00000000000E+00  0.00000000000E+00  0.21473306828E+03  0.21473306828E+03  0.00000000000E+00 0.  1.
          1   -1    0    0  503    0 -0.00000000000E+00 -0.00000000000E+00 -0.36485486493E+03  0.36485486493E+03  0.00000000000E+00 0. -1.
         23    2    1    2    0    0 -0.27218808315E+02 -0.14610573877E+03 -0.19426212414E+02  0.17624628964E+03  0.92723386774E+02 0.  0.
         23    2    1    2    0    0 -0.10364691394E+03  0.10294684575E+03 -0.29997071715E+02  0.17463790420E+03  0.90872644141E+02 0.  0.
        -11    1    4    4    0    0 -0.11841717553E+03  0.78643384317E+02 -0.16339430952E+02  0.14308873597E+03  0.00000000000E+00 0.  1.
         11    1    4    4    0    0  0.14770261589E+02  0.24303461433E+02 -0.13657640763E+02  0.31549168234E+02  0.00000000000E+00 0. -1.
        -13    1    3    3    0    0 -0.11416235262E+02 -0.54753729577E+02  0.37607401976E+02  0.67398946680E+02  0.00000000000E+00 0.  1.
         13    1    3    3    0    0 -0.15802573053E+02 -0.91352009192E+02 -0.57033614390E+02  0.10884734296E+03  0.00000000000E+00 0. -1.
         21    1    1    2  503  502  0.14608715904E+02  0.28398073588E+02 -0.10668335269E+03  0.11136068833E+03  0.00000000000E+00 0. -1.
          1    1    1    2  501    0  0.11625700635E+03  0.14760819430E+02  0.59848401722E+01  0.11734305104E+03  0.00000000000E+00 0. -1.
<scales pt_clust_5="13000.00000" pt_clust_6="13000.00000" pt_clust_7="13000.00000" pt_clust_8="13000.00000" pt_clust_9="31.93533" pt_clust_10="121.25840"></scales>
<clustering>
<clus scale="   31.935">  2  9  1 -1</clus>
<clus scale="   90.873">  5  6 -1 -1</clus>
<clus scale="   92.723">  7  8 -1 -1</clus>
<clus scale="  121.258">  1 10  2 -1</clus>
<clus scale="  158.778">  1  5  2 -1</clus>
<clus scale="  121.258">  1  5  2 -1</clus>
</clustering>
</event>
<event>
10    2  0.3544405E-006  0.9033241E+02  0.7546771E-02  0.1303033E+00
         21   -1    0    0  503  502  0.00000000000E+00  0.00000000000E+00  0.89889778350E+02  0.89889778350E+02  0.00000000000E+00 0.  1.
         -1   -1    0    0    0  501 -0.00000000000E+00 -0.00000000000E+00 -0.18300636274E+03  0.18300636274E+03  0.00000000000E+00 0.  1.
         23    2    1    2    0    0  0.26293998374E+02  0.14362133976E+02 -0.48099333720E+02  0.10470576356E+03  0.88046043492E+02 0.  0.
         23    2    1    2    0    0  0.24538520806E+02 -0.54778169730E+01 -0.31762144204E+02  0.98401297460E+02  0.89676284798E+02 0.  0.
        -11    1    3    3    0    0  0.24307231681E+02  0.45119958549E+02 -0.46872054384E+01  0.51464765290E+02  0.00000000000E+00 0.  1.
         11    1    3    3    0    0  0.19867666936E+01 -0.30757824573E+02 -0.43412128282E+02  0.53240998266E+02  0.00000000000E+00 0. -1.
        -13    1    4    4    0    0 -0.21392764758E+02 -0.20512623798E+02  0.13150865920E+02  0.32424734286E+02  0.00000000000E+00 0. -1.
         13    1    4    4    0    0  0.45931285563E+02  0.15034806825E+02 -0.44913010124E+02  0.65976563174E+02  0.00000000000E+00 0.  1.
         21    1    1    2  503  501 -0.36452421418E+02  0.12104585943E+02 -0.20225058534E+02  0.43409135223E+02  0.00000000000E+00 0.  1.
         -1    1    1    2    0  502 -0.14380097762E+02 -0.20988902946E+02  0.69699520689E+01  0.26379944851E+02  0.00000000000E+00 0.  1.
<scales pt_clust_5="13000.00000" pt_clust_6="13000.00000" pt_clust_7="13000.00000" pt_clust_8="13000.00000" pt_clust_9="39.71228" pt_clust_10="25.44251"></scales>
<clustering>
<clus scale="   25.443">  1 10  2 -1</clus>
<clus scale="   39.712">  2  9  1 -1</clus>
<clus scale="   88.046">  5  6 -1 -1</clus>
<clus scale="   88.714">  2  5  1 -1</clus>
<clus scale="   89.676">  7  8 -1 -1</clus>
<clus scale="   25.443">  1  5  2 -1</clus>
</clustering>
</event>
<event>
10    2  0.3544405E-006  0.1787268E+03  0.7546771E-02  0.1169142E+00
         21   -1    0    0  503  502  0.00000000000E+00  0.00000000000E+00  0.72284437941E+03  0.72284437941E+03  0.00000000000E+00 0. -1.
         -1   -1    0    0    0  501 -0.00000000000E+00 -0.00000000000E+00 -0.10707493691E+03  0.10707493691E+03  0.00000000000E+00 0.  1.
         23    2    1    2    0    0  0.14759841352E+03 -0.15647499485E+01  0.24507036125E+02  0.17562154125E+03  0.91948848911E+02 0.  0.
         23    2    1    2    0    0 -0.13012291601E+03  0.29026591553E+02  0.40361170907E+03  0.43506161800E+03  0.92745261148E+02 0.  0.
        -11    1    3    3    0    0  0.40227747470E+02 -0.39008806343E+02  0.26287882875E+02  0.61895164794E+02  0.00000000000E+00 0. -1.
         11    1    3    3    0    0  0.10737066605E+03  0.37444056394E+02 -0.17808467499E+01  0.11372637645E+03  0.00000000000E+00 0.  1.
        -11    1    4    4    0    0 -0.73164649701E+02 -0.27174886065E+02  0.14946742197E+03  0.16861806139E+03  0.00000000000E+00 0.  1.
         11    1    4    4    0    0 -0.56958266309E+02  0.56201477618E+02  0.25414428710E+03  0.26644355660E+03  0.00000000000E+00 0. -1.
         21    1    1    2  503  501  0.12718045133E+02 -0.26624879263E+02  0.34281995494E+00  0.29508480023E+02  0.00000000000E+00 0.  1.
         -1    1    1    2    0  502 -0.30193542638E+02 -0.83696234102E+00  0.18730787735E+03  0.18972767705E+03  0.00000000000E+00 0.  1.
<scales pt_clust_5="13000.00000" pt_clust_6="13000.00000" pt_clust_7="13000.00000" pt_clust_8="13000.00000" pt_clust_9="29.50649" pt_clust_10="30.05056"></scales>
<clustering>
<clus scale="   29.506">  2  9  1 -1</clus>
<clus scale="   30.051">  1 10  2 -1</clus>
<clus scale="   91.949">  5  6 -1 -1</clus>
<clus scale="   92.745">  7  8 -1 -1</clus>
<clus scale="  178.315">  2  5  1 -1</clus>
<clus scale="   30.051">  1  5  2 -1</clus>
</clustering>
</event>
<event>
10    2  0.3544405E-006  0.1328076E+03  0.7546771E-02  0.1223768E+00
         21   -1    0    0  501  502  0.00000000000E+00  0.00000000000E+00  0.38339427610E+03  0.38339427610E+03  0.00000000000E+00 0. -1.
          2   -1    0    0  503    0 -0.00000000000E+00 -0.00000000000E+00 -0.22579929708E+03  0.22579929708E+03  0.00000000000E+00 0. -1.
         23    2    1    2    0    0 -0.77755375018E+02  0.34724338224E+02 -0.79759963410E+02  0.14782999170E+03  0.90776520504E+02 0.  0.
         23    2    1    2    0    0  0.54150451155E+02 -0.59778031898E+02  0.28384763350E+03  0.30922778327E+03  0.92448139208E+02 0.  0.
        -11    1    4    4    0    0  0.48879882889E+02  0.10909134084E+01  0.61103453249E+02  0.78256405759E+02  0.00000000000E+00 0. -1.
         11    1    4    4    0    0  0.52705682657E+01 -0.60868945306E+02  0.22274418025E+03  0.23097137751E+03  0.00000000000E+00 0.  1.
        -13    1    3    3    0    0 -0.63020730597E+02  0.17318160475E+02 -0.50470433947E+00  0.65358900646E+02  0.00000000000E+00 0.  1.
         13    1    3    3    0    0 -0.14734644421E+02  0.17406177749E+02 -0.79255259070E+02  0.82471091058E+02  0.00000000000E+00 0. -1.
         21    1    1    2  503  502  0.15977463402E+02  0.45365254825E+02 -0.90827897226E+02  0.10277642043E+03  0.00000000000E+00 0.  1.
          2    1    1    2  501    0  0.76274604617E+01 -0.20311561151E+02  0.44335206158E+02  0.49359377777E+02  0.00000000000E+00 0. -1.
<scales pt_clust_5="13000.00000" pt_clust_6="13000.00000" pt_clust_7="13000.00000" pt_clust_8="13000.00000" pt_clust_9="47.80216" pt_clust_10="21.69649"></scales>
<clustering>
<clus scale="   21.696">  1 10  2 -1</clus>
<clus scale="   47.802">  2  9  1 -1</clus>
<clus scale="   90.777">  7  8 -1 -1</clus>
<clus scale="   92.448">  5  6 -1 -1</clus>
<clus scale="  131.649">  2  7  1 -1</clus>
<clus scale="   21.696">  1  5  2 -1</clus>
</clustering>
</event>
<event>
10    2  0.3544405E-006  0.1165523E+03  0.7546771E-02  0.1254733E+00
          1   -1    0    0  503    0 -0.00000000000E+00  0.00000000000E+00  0.28704662563E+03  0.28704662563E+03  0.00000000000E+00 0. -1.
         21   -1    0    0  501  502  0.00000000000E+00 -0.00000000000E+00 -0.14950604143E+03  0.14950604143E+03  0.00000000000E+00 0.  1.
         23    2    1    2    0    0  0.44596706021E+02 -0.16646865889E+02  0.17868276163E+03  0.21228097634E+03  0.10425784996E+03 0.  0.
         23    2    1    2    0    0 -0.52338927803E+02  0.30945399417E+02 -0.45421552079E+01  0.10848351095E+03  0.89727698431E+02 0.  0.
        -11    1    4    4    0    0  0.58317229384E+01  0.36645903619E+02  0.23222874490E+02  0.43774800332E+02  0.00000000000E+00 0. -1.
         11    1    4    4    0    0 -0.58170650742E+02 -0.57005042029E+01 -0.27765029698E+02  0.64708710619E+02  0.00000000000E+00 0.  1.
        -13    1    3    3    0    0 -0.42485818876E+01  0.27929951695E+02  0.81923550245E+01  0.29415086786E+02  0.00000000000E+00 0.  1.
         13    1    3    3    0    0  0.48845287908E+02 -0.44576817584E+02  0.17049040660E+03  0.18286588955E+03  0.00000000000E+00 0. -1.
         21    1    1    2  503  502 -0.13242358279E+02 -0.25136752143E+02  0.32261695449E+02  0.42988758465E+02  0.00000000000E+00 0. -1.
          1    1    1    2  501    0  0.20984580062E+02  0.10838218614E+02 -0.68861717668E+02  0.72799421312E+02  0.00000000000E+00 0. -1.
<scales pt_clust_5="13000.00000" pt_clust_6="13000.00000" pt_clust_7="13000.00000" pt_clust_8="13000.00000" pt_clust_9="27.10673" pt_clust_10="23.61820"></scales>
<clustering>
<clus scale="   23.618">  2 10  1 -1</clus>
<clus scale="   27.107">  1  9  2 -1</clus>
<clus scale="   89.728">  5  6 -1 -1</clus>
<clus scale="  103.758">  2  5  1 -1</clus>
<clus scale="  104.258">  7  8 -1 -1</clus>
<clus scale="   23.618">  2  5  1 -1</clus>
</clustering>
</event>
<event>
10    2  0.3544405E-006  0.1041886E+03  0.7546771E-02  0.1272319E+00
          2   -1    0    0  503    0 -0.00000000000E+00  0.00000000000E+00  0.63715767868E+03  0.63715767868E+03  0.00000000000E+00 0. -1.
         21   -1    0    0  501  502  0.00000000000E+00 -0.00000000000E+00 -0.39371503990E+02  0.39371503990E+02  0.00000000000E+00 0. -1.
         23    2    1    2    0    0  0.24702161239E+02  0.25865316594E+02  0.26102915891E+03  0.27970288260E+03  0.93905640718E+02 0.  0.
         23    2    1    2    0    0 -0.58314664668E+01 -0.63584857236E+02  0.23917887002E+03  0.26430465949E+03  0.92592554199E+02 0.  0.
        -11    1    4    4    0    0 -0.23523528659E+02  0.17545061897E+02  0.57864319931E+02  0.64880390864E+02  0.00000000000E+00 0.  1.
         11    1    4    4    0    0  0.17692062192E+02 -0.81129919133E+02  0.18131455009E+03  0.19942426862E+03  0.00000000000E+00 0. -1.
        -13    1    3    3    0    0  0.37776947874E+02  0.53850488287E+02  0.13830347189E+03  0.15314967586E+03  0.00000000000E+00 0. -1.
         13    1    3    3    0    0 -0.13074786635E+02 -0.27985171693E+02  0.12272568703E+03  0.12655320674E+03  0.00000000000E+00 0.  1.
         21    1    1    2  503  502  0.26035423426E+01  0.45871294461E+02  0.99374884304E+02  0.10948206117E+03  0.00000000000E+00 0. -1.
          2    1    1    2  501    0 -0.21474237115E+02 -0.81517538187E+01 -0.17967385452E+01  0.23039579410E+02  0.00000000000E+00 0. -1.
<scales pt_clust_5="13000.00000" pt_clust_6="13000.00000" pt_clust_7="13000.00000" pt_clust_8="13000.00000" pt_clust_9="44.36571" pt_clust_10="22.96941"></scales>
<clustering>
<clus scale="   22.969">  2 10  1 -1</clus>
<clus scale="   44.366">  2  9  1 -1</clus>
<clus scale="   92.593">  5  6 -1 -1</clus>
<clus scale="   93.906">  7  8 -1 -1</clus>
<clus scale="  103.007">  2  5  1 -1</clus>
<clus scale="   22.969">  2  5  1 -1</clus>
</clustering>
</event>
<event>
10    2  0.3544405E-006  0.1283052E+03  0.7546771E-02  0.1230274E+00
          1   -1    0    0  503    0 -0.00000000000E+00  0.00000000000E+00  0.34152774208E+03  0.34152774208E+03  0.00000000000E+00 0. -1.
         21   -1    0    0  501  502  0.00000000000E+00 -0.00000000000E+00 -0.57227111803E+03  0.57227111803E+03  0.00000000000E+00 0. -1.
         23    2    1    2    0    0  0.85359835459E+02 -0.81829082947E+02  0.77927851203E+02  0.16828083816E+03  0.90903191212E+02 0.  0.
         23    2    1    2    0    0 -0.10798123786E+03 -0.41076850365E+02 -0.68694734149E+02  0.16285027266E+03  0.91945578685E+02 0.  0.
        -13    1    3    3    0    0  0.45203454767E+02  0.11135902622E+02  0.35219833845E+02  0.58376342350E+02  0.00000000000E+00 0.  1.
         13    1    3    3    0    0  0.40156380691E+02 -0.92964985570E+02  0.42708017359E+02  0.10990449581E+03  0.00000000000E+00 0. -1.
        -13    1    4    4    0    0  0.73628089532E+01 -0.19964560847E+02 -0.34798915846E+02  0.40789204326E+02  0.00000000000E+00 0.  1.
         13    1    4    4    0    0 -0.11534404682E+03 -0.21112289518E+02 -0.33895818303E+02  0.12206106834E+03  0.00000000000E+00 0. -1.
         21    1    1    2  503  502 -0.21761351419E+02  0.29212387757E+02  0.16276755575E+03  0.16679387644E+03  0.00000000000E+00 0. -1.
          1    1    1    2  501    0  0.44382753825E+02  0.93693545555E+02 -0.40274404875E+03  0.41587387285E+03  0.00000000000E+00 0. -1.
<scales pt_clust_5="13000.00000" pt_clust_6="13000.00000" pt_clust_7="13000.00000" pt_clust_8="13000.00000" pt_clust_9="36.42691" pt_clust_10="104.31545"></scales>
<clustering>
<clus scale="   36.427">  1  9  2 -1</clus>
<clus scale="   90.903">  5  6 -1 -1</clus>
<clus scale="   91.946">  7  8 -1 -1</clus>
<clus scale="  104.315">  2 10  1 -1</clus>
<clus scale="  127.560">  1  5  2 -1</clus>
<clus scale="  104.315">  2  5  1 -1</clus>
</clustering>
</event>
<event>
10    2  0.3544405E-006  0.2465613E+03  0.7546771E-02  0.1115501E+00
         21   -1    0    0  503  502  0.00000000000E+00  0.00000000000E+00  0.22127776642E+03  0.22127776642E+03  0.00000000000E+00 0.  1.
         -1   -1    0    0    0  501 -0.00000000000E+00 -0.00000000000E+00 -0.60783088778E+03  0.60783088778E+03  0.00000000000E+00 0.  1.
         23    2    1    2    0    0  0.14616519791E+03 -0.22622128815E+03 -0.22310208478E+03  0.36131094011E+03  0.90723309695E+02 0.  0.
         23    2    1    2    0    0 -0.43406222789E+02  0.17833897138E+03 -0.18752863487E+02  0.20562835294E+03  0.90787998944E+02 0.  0.
        -13    1    3    3    0    0  0.11064212575E+03 -0.87676966472E+02 -0.11206227259E+03  0.18024118114E+03  0.00000000000E+00 0.  1.
         13    1    3    3    0    0  0.35523072156E+02 -0.13854432168E+03 -0.11103981219E+03  0.18106975898E+03  0.00000000000E+00 0. -1.
        -13    1    4    4    0    0 -0.22018000582E+02  0.15233041341E+03 -0.47792235472E+02  0.16116279028E+03  0.00000000000E+00 0.  1.
         13    1    4    4    0    0 -0.21388222207E+02  0.26008557967E+02  0.29039371986E+02  0.44465562653E+02  0.00000000000E+00 0. -1.
         21    1    1    2  503  501  0.28882834343E+02  0.19804872853E+02 -0.12040153347E+03  0.12539130899E+03  0.00000000000E+00 0.  1.
         -1    1    1    2    0  502 -0.13164180946E+03  0.28077443913E+02 -0.24296639625E+02  0.13677805216E+03  0.00000000000E+00 0.  1.
<scales pt_clust_5="13000.00000" pt_clust_6="13000.00000" pt_clust_7="13000.00000" pt_clust_8="13000.00000" pt_clust_9="35.02072" pt_clust_10="130.66566"></scales>
<clustering>
<clus scale="   35.021">  2  9  1 -1</clus>
<clus scale="   90.723">  5  6 -1 -1</clus>
<clus scale="   90.788">  7  8 -1 -1</clus>
<clus scale="  130.666">  1 10  2 -1</clus>
<clus scale="  246.538">  2  5  1 -1</clus>
<clus scale="  130.666">  1  5  2 -1</clus>
</clustering>
</event>
<event>
10    2  0.3544405E-006  0.1472408E+03  0.7546771E-02  0.1221641E+00
         21   -1    0    0  501  502  0.00000000000E+00  0.00000000000E+00  0.22213386756E+03  0.22213386756E+03  0.00000000000E+00 0. -1.
          1   -1    0    0  503    0 -0.00000000000E+00 -0.00000000000E+00 -0.87730252471E+03  0.87730252471E+03  0.00000000000E+00 0. -1.
         23    2    1    2    0    0 -0.33164545537E+02  0.40439521091E+02 -0.24124823474E+03  0.26329965509E+03  0.91601067989E+02 0.  0.
         23    2    1    2    0    0  0.81528874171E+02 -0.10262284899E+03 -0.34829002139E+03  0.38295971480E+03  0.90409057606E+02 0.  0.
        -13    1    4    4    0    0  0.18719972321E+00 -0.48742457855E+02 -0.53177810502E+02  0.72136965360E+02  0.00000000000E+00 0.  1.
         13    1    4    4    0    0  0.81341674448E+02 -0.53880391132E+02 -0.29511221089E+03  0.31082274944E+03  0.00000000000E+00 0. -1.
        -13    1    3    3    0    0  0.22399550249E+02  0.26491600466E+02 -0.16103483116E+03  0.16472935863E+03  0.00000000000E+00 0.  1.
         13    1    3    3    0    0 -0.55564095786E+02  0.13947920625E+02 -0.80213403577E+02  0.98570296458E+02  0.00000000000E+00 0. -1.
         21    1    1    2  503  502 -0.81495206538E+01 -0.46410465673E+02 -0.23960069310E+03  0.24419016799E+03  0.00000000000E+00 0. -1.
          1    1    1    2  501    0 -0.40214807981E+02  0.10859379357E+03  0.17397029208E+03  0.20898685439E+03  0.00000000000E+00 0. -1.
<scales pt_clust_5="13000.00000" pt_clust_6="13000.00000" pt_clust_7="13000.00000" pt_clust_8="13000.00000" pt_clust_9="47.12055" pt_clust_10="116.21561"></scales>
<clustering>
<clus scale="   47.121">  2  9  1 -1</clus>
<clus scale="   90.409">  5  6 -1 -1</clus>
<clus scale="   91.601">  7  8 -1 -1</clus>
<clus scale="  100.997">  2  7  1 -1</clus>
<clus scale="  116.216">  1 10  2 -1</clus>
<clus scale="  116.216">  1  5  2 -1</clus>
</clustering>
</event>
<event>
10    2  0.3544405E-006  0.1709982E+03  0.7546771E-02  0.1195999E+00
         21   -1    0    0  501  502  0.00000000000E+00  0.00000000000E+00  0.67260244522E+03  0.67260244522E+03  0.00000000000E+00 0. -1.
          1   -1    0    0  503    0 -0.00000000000E+00 -0.00000000000E+00 -0.20828290145E+03  0.20828290145E+03  0.00000000000E+00 0. -1.
         23    2    1    2    0    0  0.74341630173E+02  0.12106276154E+02 -0.50861647071E+02  0.12860628819E+03  0.90991374969E+02 0.  0.
         23    2    1    2    0    0 -0.46950446348E+02  0.13076018953E+03 -0.11552626484E+02  0.16700639487E+03  0.91951624083E+02 0.  0.
        -11    1    4    4    0    0 -0.18523407548E+01  0.33324067111E+02  0.36428536015E+02  0.49406101357E+02  0.00000000000E+00 0.  1.
         11    1    4    4    0    0 -0.45098105593E+02  0.97436122419E+02 -0.47981162499E+02  0.11760029352E+03  0.00000000000E+00 0. -1.
        -11    1    3    3    0    0  0.39702843694E+02 -0.30175159901E+02  0.54069282767E+01  0.50160651370E+02  0.00000000000E+00 0.  1.
         11    1    3    3    0    0  0.34638786480E+02  0.42281436055E+02 -0.56268575348E+02  0.78445636816E+02  0.00000000000E+00 0. -1.
         21    1    1    2  503  502 -0.23358028217E+02  0.27527719015E+01 -0.12550919383E+02  0.26658972462E+02  0.00000000000E+00 0.  1.
          1    1    1    2  501    0 -0.40331556082E+01 -0.14561923758E+03  0.53928473670E+03  0.55861369115E+03  0.00000000000E+00 0. -1.
<scales pt_clust_5="13000.00000" pt_clust_6="13000.00000" pt_clust_7="13000.00000" pt_clust_8="13000.00000" pt_clust_9="23.51968" pt_clust_10="144.17097"></scales>
<clustering>
<clus scale="   23.520">  2  9  1 -1</clus>
<clus scale="   90.991">  7  8 -1 -1</clus>
<clus scale="   91.952">  5  6 -1 -1</clus>
<clus scale="  111.614">  2  7  1 -1</clus>
<clus scale="  144.171">  1 10  2 -1</clus>
<clus scale="  144.171">  1  5  2 -1</clus>
</clustering>
</event>
<event>
10    2  0.3544405E-006  0.1338418E+03  0.7546771E-02  0.1222463E+00
         21   -1    0    0  501  502  0.00000000000E+00  0.00000000000E+00  0.54200327063E+02  0.54200327063E+02  0.00000000000E+00 0. -1.
          2   -1    0    0  503    0 -0.00000000000E+00 -0.00000000000E+00 -0.53429055024E+03  0.53429055024E+03  0.00000000000E+00 0. -1.
         23    2    1    2    0    0  0.18991619328E+02  0.92731128023E+02 -0.20890542948E+03  0.24693036191E+03  0.91506182601E+02 0.  0.
         23    2    1    2    0    0  0.11845647489E+02 -0.10584225026E+03 -0.16057736741E+03  0.21434651872E+03  0.93895888397E+02 0.  0.
        -11    1    3    3    0    0 -0.26093745605E+02  0.37438978525E+01 -0.19256734198E+02  0.32645400025E+02  0.00000000000E+00 0. -1.
         11    1    3    3    0    0  0.45085364933E+02  0.88987230171E+02 -0.18964869529E+03  0.21428496188E+03  0.00000000000E+00 0.  1.
        -13    1    4    4    0    0 -0.40931363142E+02 -0.54791063495E+02 -0.72297309043E+02  0.99520540706E+02  0.00000000000E+00 0.  1.
         13    1    4    4    0    0  0.52777010631E+02 -0.51051186767E+02 -0.88280058369E+02  0.11482597801E+03  0.00000000000E+00 0. -1.
         21    1    1    2  503  502 -0.24687650533E+02 -0.17315725347E+02 -0.69010027121E+02  0.75310678369E+02  0.00000000000E+00 0. -1.
          2    1    1    2  501    0 -0.61496162844E+01  0.30426847586E+02 -0.41597399162E+02  0.51903318309E+02  0.00000000000E+00 0. -1.
<scales pt_clust_5="13000.00000" pt_clust_6="13000.00000" pt_clust_7="13000.00000" pt_clust_8="13000.00000" pt_clust_9="30.15484" pt_clust_10="29.95057"></scales>
<clustering>
<clus scale="   30.155">  2  9  1 -1</clus>
<clus scale="   29.951">  1 10  2 -1</clus>
<clus scale="   91.506">  5  6 -1 -1</clus>
<clus scale="   93.896">  7  8 -1 -1</clus>
<clus scale="  132.176">  2  5  1 -1</clus>
<clus scale="   29.951">  1  5  2 -1</clus>
</clustering>
</event>
<event>
10    2  0.3544405E-006  0.9408604E+02  0.7546771E-02  0.1293258E+00
         21   -1    0    0  501  502  0.00000000000E+00  0.00000000000E+00  0.24998381153E+03  0.24998381153E+03  0.00000000000E+00 0.  1.
          4   -1    0    0  503    0 -0.00000000000E+00 -0.00000000000E+00 -0.41494330895E+03  0.41494330895E+03  0.00000000000E+00 0. -1.
         23    2    1    2    0    0 -0.10772656029E+00  0.68743532459E+01 -0.16286853317E+03  0.18616833394E+03  0.89917857672E+02 0.  0.
         23    2    1    2    0    0 -0.46178599527E+02  0.53806878373E+02 -0.19745052536E+03  0.22826040179E+03  0.89935854059E+02 0.  0.
        -11    1    4    4    0    0 -0.29394550610E+02  0.68680004604E+02 -0.83149688408E+02  0.11178037985E+03  0.00000000000E+00 0.  1.
         11    1    4    4    0    0 -0.16784048917E+02 -0.14873126232E+02 -0.11430083695E+03  0.11648002194E+03  0.00000000000E+00 0. -1.
        -13    1    3    3    0    0 -0.77397459268E+01 -0.30808643897E+02 -0.13498824522E+03  0.13867552975E+03  0.00000000000E+00 0.  1.
         13    1    3    3    0    0  0.76320193665E+01  0.37682997143E+02 -0.27880287952E+02  0.47492804187E+02  0.00000000000E+00 0. -1.
         21    1    1    2  503  502  0.18684844101E+02 -0.10221513974E+03  0.15364594881E+03  0.18548351889E+03  0.00000000000E+00 0.  1.
          4    1    1    2  501    0  0.27601481987E+02  0.41533908122E+02  0.41713612294E+02  0.65014865857E+02  0.00000000000E+00 0. -1.
<scales pt_clust_5="13000.00000" pt_clust_6="13000.00000" pt_clust_7="13000.00000" pt_clust_8="13000.00000" pt_clust_9="78.82721" pt_clust_10="49.86890"></scales>
<clustering>
<clus scale="   49.869">  1 10  2 -1</clus>
<clus scale="   78.827">  1  9  2 -1</clus>
<clus scale="   89.918">  7  8 -1 -1</clus>
<clus scale="   89.936">  5  6 -1 -1</clus>
<clus scale="   94.069">  2  7  1 -1</clus>
<clus scale="   49.869">  1  5  2 -1</clus>
</clustering>
</event>
<event>
10    2  0.3544405E-006  0.1244176E+03  0.7546771E-02  0.1241350E+00
         21   -1    0    0  501  502  0.00000000000E+00  0.00000000000E+00  0.67950834503E+02  0.67950834503E+02  0.00000000000E+00 0.  1.
          1   -1    0    0  503    0 -0.00000000000E+00 -0.00000000000E+00 -0.44475493546E+03  0.44475493546E+03  0.00000000000E+00 0. -1.
         23    2    1    2    0    0  0.50861456804E+02  0.21888185517E+02 -0.28299725857E+03  0.30232816388E+03  0.90823399307E+02 0.  0.
         23    2    1    2    0    0 -0.31204648292E+02 -0.58130312572E+02 -0.46578339220E+02  0.13345355486E+03  0.10624239410E+03 0.  0.
        -13    1    4    4    0    0 -0.20453954688E+01 -0.68359150577E+02  0.98722367598E+01  0.69098611917E+02  0.00000000000E+00 0.  1.
         13    1    4    4    0    0 -0.29159252823E+02  0.10228838005E+02 -0.56450575980E+02  0.64354942938E+02  0.00000000000E+00 0. -1.
        -13    1    3    3    0    0  0.66953285583E+02  0.41986807092E+02 -0.18874079856E+03  0.20461848270E+03  0.00000000000E+00 0.  1.
         13    1    3    3    0    0 -0.16091828779E+02 -0.20098621575E+02 -0.94256460011E+02  0.97709681181E+02  0.00000000000E+00 0. -1.
         21    1    1    2  503  502  0.11849592300E+02  0.16598968909E+02 -0.29286011521E+02  0.35687660015E+02  0.00000000000E+00 0.  1.
          1    1    1    2  501    0 -0.31506400812E+02  0.19643158145E+02 -0.17942491646E+02  0.41236391216E+02  0.00000000000E+00 0. -1.
<scales pt_clust_5="13000.00000" pt_clust_6="13000.00000" pt_clust_7="13000.00000" pt_clust_8="13000.00000" pt_clust_9="20.39457" pt_clust_10="37.06565"></scales>
<clustering>
<clus scale="   20.395">  2  9  1 -1</clus>
<clus scale="   37.066">  1 10  2 -1</clus>
<clus scale="   90.823">  7  8 -1 -1</clus>
<clus scale="  106.242">  5  6 -1 -1</clus>
<clus scale="  111.540">  2  7  1 -1</clus>
<clus scale="   37.066">  1  5  2 -1</clus>
</clustering>
</event>
<event>
10    2  0.3544405E-006  0.1748184E+03  0.7546771E-02  0.1172915E+00
          1   -1    0    0  503    0 -0.00000000000E+00  0.00000000000E+00  0.56001978213E+03  0.56001978213E+03  0.00000000000E+00 0. -1.
         21   -1    0    0  501  502  0.00000000000E+00 -0.00000000000E+00 -0.17034987082E+03  0.17034987082E+03  0.00000000000E+00 0.  1.
         23    2    1    2    0    0  0.99880406253E+02  0.15178496375E+02  0.38295767248E+03  0.40645315558E+03  0.91329658171E+02 0.  0.
         23    2    1    2    0    0 -0.17876371444E+03 -0.47752232605E+02 -0.16433365927E+02  0.20700102533E+03  0.91337985810E+02 0.  0.
        -11    1    4    4    0    0 -0.11936940863E+03 -0.74592912091E+02 -0.51450309248E+01  0.14085322003E+03  0.00000000000E+00 0.  1.
         11    1    4    4    0    0 -0.59394305816E+02  0.26840679486E+02 -0.11288335002E+02  0.66147805298E+02  0.00000000000E+00 0. -1.
        -13    1    3    3    0    0  0.11413948699E+02 -0.24749025479E+02  0.30624997248E+02  0.40996133275E+02  0.00000000000E+00 0.  1.
         13    1    3    3    0    0  0.88466457554E+02  0.39927521854E+02  0.35233267523E+03  0.36545702230E+03  0.00000000000E+00 0. -1.
         21    1    1    2  503  502  0.51001069829E+02  0.10240467516E+02  0.50055057224E+02  0.72190616096E+02  0.00000000000E+00 0. -1.
          1    1    1    2  501    0  0.27882238360E+02  0.22333268714E+02 -0.26909452470E+02  0.44724855949E+02  0.00000000000E+00 0. -1.
<scales pt_clust_5="13000.00000" pt_clust_6="13000.00000" pt_clust_7="13000.00000" pt_clust_8="13000.00000" pt_clust_9="54.64631" pt_clust_10="35.72386"></scales>
<clustering>
<clus scale="   35.724">  2 10  1 -1</clus>
<clus scale="   54.646">  1  9  2 -1</clus>
<clus scale="   91.330">  7  8 -1 -1</clus>
<clus scale="   91.338">  5  6 -1 -1</clus>
<clus scale="  174.814">  1  7  2 -1</clus>
<clus scale="   35.724">  2  5  1 -1</clus>
</clustering>
</event>
<event>
10    2  0.3544405E-006  0.2232081E+03  0.7546771E-02  0.1134463E+00
          1   -1    0    0  503    0 -0.00000000000E+00  0.00000000000E+00  0.43363369741E+03  0.43363369741E+03  0.00000000000E+00 0. -1.
         21   -1    0    0  501  502  0.00000000000E+00 -0.00000000000E+00 -0.72632786094E+03  0.72632786094E+03  0.00000000000E+00 0. -1.
         23    2    1    2    0    0 -0.11493380879E+03 -0.24572696111E+03  0.24429537893E+03  0.38516561062E+03  0.12280389090E+03 0.  0.
         23    2    1    2    0    0  0.49507512981E+02  0.12472130576E+03 -0.28764637246E+03  0.33036816042E+03  0.91631260375E+02 0.  0.
        -13    1    4    4    0    0  0.76013578034E+02  0.10167293331E+03 -0.21513157131E+03  0.24979399990E+03  0.00000000000E+00 0.  1.
         13    1    4    4    0    0 -0.26506065053E+02  0.23048372454E+02 -0.72514801148E+02  0.80574160516E+02  0.00000000000E+00 0. -1.
        -13    1    3    3    0    0  0.13475565301E+02 -0.64411172596E+02  0.10179623235E+03  0.12121412020E+03  0.00000000000E+00 0.  1.
         13    1    3    3    0    0 -0.12840937409E+03 -0.18131578851E+03  0.14249914657E+03  0.26395149041E+03  0.00000000000E+00 0. -1.
         21    1    1    2  503  502  0.63836682819E+02  0.62155622857E+02  0.73968058347E+02  0.11580033325E+03  0.00000000000E+00 0. -1.
          1    1    1    2  501    0  0.15896129869E+01  0.58850032488E+02 -0.32331122835E+03  0.32862745407E+03  0.00000000000E+00 0. -1.
<scales pt_clust_5="13000.00000" pt_clust_6="13000.00000" pt_clust_7="13000.00000" pt_clust_8="13000.00000" pt_clust_9="91.32746" pt_clust_10="58.87150"></scales>
<clustering>
<clus scale="   58.871">  2 10  1 -1</clus>
<clus scale="   91.327">  1  9  2 -1</clus>
<clus scale="   91.631">  5  6 -1 -1</clus>
<clus scale="  122.804">  7  8 -1 -1</clus>
<clus scale="  207.695">  2  5  1 -1</clus>
<clus scale="   58.871">  2  5  1 -1</clus>
</clustering>
</event>
<event>
10    2  0.3544405E-006  0.1318473E+03  0.7546771E-02  0.1228872E+00
         21   -1    0    0  503  502  0.00000000000E+00  0.00000000000E+00  0.35461047612E+03  0.35461047612E+03  0.00000000000E+00 0.  1.
         -4   -1    0    0    0  501 -0.00000000000E+00 -0.00000000000E+00 -0.16206575582E+03  0.16206575582E+03  0.00000000000E+00 0.  1.
         23    2    1    2    0    0  0.13469211623E+02  0.79165367452E+02  0.12197936828E+03  0.17111510485E+03  0.89178684439E+02 0.  0.
         23    2    1    2    0    0 -0.22504053925E+02 -0.76238092954E+02  0.82936202709E+02  0.15456446078E+03  0.10340734770E+03 0.  0.
        -11    1    3    3    0    0  0.21104336023E+02  0.97692969508E+02  0.10276511794E+03  0.14335263777E+03  0.00000000000E+00 0. -1.
         11    1    3    3    0    0 -0.76351244000E+01 -0.18527602056E+02  0.19214250338E+02  0.27762467085E+02  0.00000000000E+00 0.  1.
        -13    1    4    4    0    0  0.68821949502E+01 -0.83741777546E+02  0.22562206629E+02  0.87000592423E+02  0.00000000000E+00 0.  1.
         13    1    4    4    0    0 -0.29386248875E+02  0.75036845919E+01  0.60373996080E+02  0.67563868362E+02  0.00000000000E+00 0. -1.
         21    1    1    2  503  501  0.21143744915E+01 -0.39887474360E+02 -0.93446519521E+02  0.10162545548E+03  0.00000000000E+00 0.  1.
         -4    1    1    2    0  502  0.69204678103E+01  0.36960199863E+02  0.81075668830E+02  0.89371210828E+02  0.00000000000E+00 0.  1.
<scales pt_clust_5="13000.00000" pt_clust_6="13000.00000" pt_clust_7="13000.00000" pt_clust_8="13000.00000" pt_clust_9="39.38897" pt_clust_10="37.60252"></scales>
<clustering>
<clus scale="   37.603">  1 10  2 -1</clus>
<clus scale="   39.389">  2  9  1 -1</clus>
<clus scale="   89.179">  5  6 -1 -1</clus>
<clus scale="  103.407">  7  8 -1 -1</clus>
<clus scale="  121.010">  2  5  1 -1</clus>
<clus scale="   37.603">  1  5  2 -1</clus>
</clustering>
</event>
<event>
10    2  0.3544405E-006  0.1381347E+03  0.7546771E-02  0.1237022E+00
         -4   -1    0    0    0  501 -0.00000000000E+00  0.00000000000E+00  0.29703506611E+03  0.29703506611E+03  0.00000000000E+00 0.  1.
         21   -1    0    0  503  502  0.00000000000E+00 -0.00000000000E+00 -0.19486067569E+03  0.19486067569E+03  0.00000000000E+00 0. -1.
         23    2    1    2    0    0 -0.43590943721E+01 -0.41423013611E+02  0.93660711755E+02  0.12448846707E+03  0.70641218474E+02 0.  0.
         23    2    1    2    0    0  0.87252981257E+02 -0.28091296316E+02 -0.64363574708E+02  0.14378313763E+03  0.90159399119E+02 0.  0.
        -11    1    4    4    0    0 -0.17052805686E+02 -0.11308497072E+02 -0.21759103392E+02  0.29868693782E+02  0.00000000000E+00 0.  1.
         11    1    4    4    0    0  0.10430578694E+03 -0.16782799245E+02 -0.42604471316E+02  0.11391444384E+03  0.00000000000E+00 0. -1.
        -13    1    3    3    0    0 -0.33331325786E+02 -0.18614678569E+02  0.72597219842E+02  0.82023410473E+02  0.00000000000E+00 0.  1.
         13    1    3    3    0    0  0.28972231414E+02 -0.22808335042E+02  0.21063491913E+02  0.42465056601E+02  0.00000000000E+00 0. -1.
         21    1    1    2  503  501  0.95460754598E+01 -0.24208561938E+02  0.87393968872E+02  0.91186006728E+02  0.00000000000E+00 0.  1.
         -4    1    1    2    0  502 -0.92439962345E+02  0.93722871866E+02 -0.14516715497E+02  0.13243813038E+03  0.00000000000E+00 0.  1.
<scales pt_clust_5="13000.00000" pt_clust_6="13000.00000" pt_clust_7="13000.00000" pt_clust_8="13000.00000" pt_clust_9="26.02272" pt_clust_10="104.65412"></scales>
<clustering>
<clus scale="   26.023">  1  9  2 -1</clus>
<clus scale="   70.641">  7  8 -1 -1</clus>
<clus scale="   89.000">  1  7  2 -1</clus>
<clus scale="   90.159">  5  6 -1 -1</clus>
<clus scale="  104.654">  2 10  1 -1</clus>
<clus scale="  104.654">  2  5  1 -1</clus>
</clustering>
</event>
<event>
10    2  0.3544405E-006  0.9870574E+02  0.7546771E-02  0.1283125E+00
         21   -1    0    0  501  502  0.00000000000E+00  0.00000000000E+00  0.82595347810E+02  0.82595347810E+02  0.00000000000E+00 0.  1.
          4   -1    0    0  503    0 -0.00000000000E+00 -0.00000000000E+00 -0.24568164232E+03  0.24568164232E+03  0.00000000000E+00 0. -1.
         23    2    1    2    0    0 -0.34056832562E+02 -0.24066125215E+02 -0.40888170251E+02  0.10678345870E+03  0.89396970638E+02 0.  0.
         23    2    1    2    0    0  0.16229697125E+02  0.40419326392E+02 -0.25806707524E+02  0.10288673402E+03  0.89568794065E+02 0.  0.
        -11    1    3    3    0    0 -0.53646086559E+02 -0.33005571915E+02 -0.28223187242E+01  0.63049471556E+02  0.00000000000E+00 0.  1.
         11    1    3    3    0    0  0.19589253996E+02  0.89394466996E+01 -0.38065851527E+02  0.43733987148E+02  0.00000000000E+00 0. -1.
        -11    1    4    4    0    0  0.39169827759E+02 -0.12296292298E+02 -0.18152792540E+02  0.44888730077E+02  0.00000000000E+00 0. -1.
         11    1    4    4    0    0 -0.22940130634E+02  0.52715618689E+02 -0.76539149846E+01  0.57998003948E+02  0.00000000000E+00 0.  1.
         21    1    1    2  503  502  0.21251388164E+02 -0.36571694668E+02 -0.85492809700E+02  0.95384122684E+02  0.00000000000E+00 0. -1.
          4    1    1    2  501    0 -0.34242527267E+01  0.20218493492E+02 -0.10898607037E+02  0.23222674720E+02  0.00000000000E+00 0. -1.
<scales pt_clust_5="13000.00000" pt_clust_6="13000.00000" pt_clust_7="13000.00000" pt_clust_8="13000.00000" pt_clust_9="41.05806" pt_clust_10="20.50641"></scales>
<clustering>
<clus scale="   20.506">  1 10  2 -1</clus>
<clus scale="   41.058">  2  9  1 -1</clus>
<clus scale="   89.397">  5  6 -1 -1</clus>
<clus scale="   89.569">  7  8 -1 -1</clus>
<clus scale="   98.550">  2  5  1 -1</clus>
<clus scale="   20.506">  1  5  2 -1</clus>
</clustering>
</event>
<event>
10    2  0.3544405E-006  0.9892302E+02  0.7546771E-02  0.1284701E+00
         21   -1    0    0  501  502  0.00000000000E+00  0.00000000000E+00  0.26519921526E+03  0.26519921526E+03  0.00000000000E+00 0. -1.
          1   -1    0    0  503    0 -0.00000000000E+00 -0.00000000000E+00 -0.14183549354E+03  0.14183549354E+03  0.00000000000E+00 0. -1.
         23    2    1    2    0    0 -0.68572219410E+01 -0.18731805415E+02 -0.49116950620E+02  0.10725410804E+03  0.93236617410E+02 0.  0.
         23    2    1    2    0    0  0.16308473887E+02  0.56517633713E+02  0.70342603650E+01  0.10699170150E+03  0.89092839953E+02 0.  0.
        -11    1    4    4    0    0 -0.11909471040E+02  0.18567732231E+02 -0.36542798428E+02  0.42684567441E+02  0.00000000000E+00 0. -1.
         11    1    4    4    0    0  0.28217944927E+02  0.37949901482E+02  0.43577058793E+02  0.64307134063E+02  0.00000000000E+00 0.  1.
        -13    1    3    3    0    0 -0.34298816545E+02 -0.42177651977E+02 -0.45661766835E+02  0.70995493471E+02  0.00000000000E+00 0.  1.
         13    1    3    3    0    0  0.27441594604E+02  0.23445846561E+02 -0.34551837853E+01  0.36258614568E+02  0.00000000000E+00 0. -1.
         21    1    1    2  503  502 -0.16349955453E+02  0.24359947610E+02  0.23187858538E+02  0.37395252031E+02  0.00000000000E+00 0. -1.
          1    1    1    2  501    0  0.68987035068E+01 -0.62145775907E+02  0.14225855344E+03  0.15539364723E+03  0.00000000000E+00 0. -1.
<scales pt_clust_5="13000.00000" pt_clust_6="13000.00000" pt_clust_7="13000.00000" pt_clust_8="13000.00000" pt_clust_9="29.33817" pt_clust_10="46.84045"></scales>
<clustering>
<clus scale="   29.338">  1  9  2 -1</clus>
<clus scale="   46.840">  1 10  2 -1</clus>
<clus scale="   89.093">  5  6 -1 -1</clus>
<clus scale="   93.237">  7  8 -1 -1</clus>
<clus scale="   95.028">  1  5  2 -1</clus>
<clus scale="   29.338">  1  5  2 -1</clus>
</clustering>
</event>
<event>
10    2  0.3544405E-006  0.9793900E+02  0.7546771E-02  0.1284835E+00
         21   -1    0    0  501  502  0.00000000000E+00  0.00000000000E+00  0.27446611889E+03  0.27446611889E+03  0.00000000000E+00 0. -1.
          2   -1    0    0  503    0 -0.00000000000E+00 -0.00000000000E+00 -0.10886183270E+03  0.10886183270E+03  0.00000000000E+00 0. -1.
         23    2    1    2    0    0 -0.38484125590E+02  0.30874694053E+02  0.61462272528E+02  0.12016867318E+03  0.90711765575E+02 0.  0.
         23    2    1    2    0    0 -0.54745500670E+02 -0.43253351087E+02  0.70393493505E+02  0.13416275205E+03  0.90423878965E+02 0.  0.
        -11    1    3    3    0    0  0.10370970694E+02 -0.21940367788E+02 -0.18410738591E+01  0.24337755130E+02  0.00000000000E+00 0.  1.
         11    1    3    3    0    0 -0.48855096284E+02  0.52815061841E+02  0.63303346387E+02  0.95830918048E+02  0.00000000000E+00 0. -1.
        -11    1    4    4    0    0 -0.76874364807E+02 -0.34545546892E+02  0.71258047425E+02  0.11036653522E+03  0.00000000000E+00 0. -1.
         11    1    4    4    0    0  0.22128864137E+02 -0.87078041950E+01 -0.86455392056E+00  0.23796216829E+02  0.00000000000E+00 0.  1.
         21    1    1    2  503  502  0.31749845701E+02 -0.10216232646E+02 -0.24466799230E+02  0.41364820513E+02  0.00000000000E+00 0. -1.
          2    1    1    2  501    0  0.61479780559E+02  0.22594889680E+02  0.58215319395E+02  0.87631705846E+02  0.00000000000E+00 0. -1.
<scales pt_clust_5="13000.00000" pt_clust_6="13000.00000" pt_clust_7="13000.00000" pt_clust_8="13000.00000" pt_clust_9="33.35302" pt_clust_10="70.70127"></scales>
<clustering>
<clus scale="   33.353">  2  9  1 -1</clus>
<clus scale="   70.701">  1 10  2 -1</clus>
<clus scale="   90.424">  7  8 -1 -1</clus>
<clus scale="   90.712">  5  6 -1 -1</clus>
<clus scale="   97.672">  1  7  2 -1</clus>
<clus scale="   70.701">  1  5  2 -1</clus>
</clustering>
</event>
<event>
10    2  0.3544405E-006  0.1360909E+03  0.7546771E-02  0.1218867E+00
          2   -1    0    0  503    0 -0.00000000000E+00  0.00000000000E+00  0.69643014829E+03  0.69643014829E+03  0.00000000000E+00 0. -1.
         21   -1    0    0  501  502  0.00000000000E+00 -0.00000000000E+00 -0.13880540835E+03  0.13880540835E+03  0.00000000000E+00 0. -1.
         23    2    1    2    0    0 -0.34107621402E+00  0.11252936334E+03  0.31372472295E+03  0.34568112606E+03  0.91702045659E+02 0.  0.
         23    2    1    2    0    0 -0.14519047690E+03 -0.57619978898E+02  0.69383637834E+01  0.18088293555E+03  0.90940414182E+02 0.  0.
        -11    1    3    3    0    0 -0.33358033568E+02  0.84545467851E+02  0.14207857466E+03  0.16866243184E+03  0.00000000000E+00 0.  1.
         11    1    3    3    0    0  0.33016957354E+02  0.27983895486E+02  0.17164614829E+03  0.17701869422E+03  0.00000000000E+00 0. -1.
        -13    1    4    4    0    0 -0.65405823295E+02 -0.48507526849E+02 -0.36891066331E+02  0.89397162466E+02  0.00000000000E+00 0. -1.
         13    1    4    4    0    0 -0.79784653603E+02 -0.91124520484E+01  0.43829430114E+02  0.91485773085E+02  0.00000000000E+00 0.  1.
         21    1    1    2  503  502  0.95013489074E+02 -0.89448871403E+02  0.19437103726E+03  0.23411271607E+03  0.00000000000E+00 0. -1.
          2    1    1    2  501    0  0.50518064038E+02  0.34539486964E+02  0.42590615945E+02  0.74558778963E+02  0.00000000000E+00 0. -1.
<scales pt_clust_5="13000.00000" pt_clust_6="13000.00000" pt_clust_7="13000.00000" pt_clust_8="13000.00000" pt_clust_9="132.96662" pt_clust_10="61.19682"></scales>
<clustering>
<clus scale="   61.197">  2 10  1 -1</clus>
<clus scale="   90.940">  7  8 -1 -1</clus>
<clus scale="   91.702">  5  6 -1 -1</clus>
<clus scale="  132.967">  1  9  2 -1</clus>
<clus scale="  135.579">  2  7  1 -1</clus>
<clus scale="   61.197">  2  5  1 -1</clus>
</clustering>
</event>
<event>
10    2  0.3544405E-006  0.9440077E+02  0.7546771E-02  0.1293135E+00
         21   -1    0    0  503  502  0.00000000000E+00  0.00000000000E+00  0.42383131927E+03  0.42383131927E+03  0.00000000000E+00 0.  1.
         -1   -1    0    0    0  501 -0.00000000000E+00 -0.00000000000E+00 -0.49233592876E+03  0.49233592876E+03  0.00000000000E+00 0.  1.
         23    2    1    2    0    0 -0.53766615787E+02  0.12243900698E+02 -0.32529904977E+03  0.34289470185E+03  0.93362426598E+02 0.  0.
         23    2    1    2    0    0  0.84668891025E+01 -0.43859033649E+02  0.15684764749E+03  0.18738877225E+03  0.92293360531E+02 0.  0.
        -11    1    3    3    0    0  0.18211682570E+02  0.25540377533E+02 -0.60280211386E+02  0.67953514635E+02  0.00000000000E+00 0. -1.
         11    1    3    3    0    0 -0.71978298357E+02 -0.13296476834E+02 -0.26501883839E+03  0.27494118722E+03  0.00000000000E+00 0.  1.
        -11    1    4    4    0    0  0.23799621869E+02 -0.67915337289E+02  0.94127834961E+02  0.11848613571E+03  0.00000000000E+00 0.  1.
         11    1    4    4    0    0 -0.15332732766E+02  0.24056303639E+02  0.62719812531E+02  0.68902636545E+02  0.00000000000E+00 0. -1.
         21    1    1    2  503  501  0.74753664194E+02 -0.18008788307E+02 -0.12878035589E+03  0.14998935572E+03  0.00000000000E+00 0. -1.
         -1    1    1    2    0  502 -0.29453937510E+02  0.49623921258E+02  0.22872714868E+03  0.23589441820E+03  0.00000000000E+00 0.  1.
<scales pt_clust_5="13000.00000" pt_clust_6="13000.00000" pt_clust_7="13000.00000" pt_clust_8="13000.00000" pt_clust_9="74.69836" pt_clust_10="57.70674"></scales>
<clustering>
<clus scale="   57.707">  1 10  2 -1</clus>
<clus scale="   74.698">  2  9  1 -1</clus>
<clus scale="   92.293">  7  8 -1 -1</clus>
<clus scale="   93.344">  1  7  2 -1</clus>
<clus scale="   93.362">  5  6 -1 -1</clus>
<clus scale="   57.707">  1  5  2 -1</clus>
</clustering>
</event>
<event>
10    2  0.3544405E-006  0.1516306E+03  0.7546771E-02  0.1198540E+00
          1   -1    0    0  503    0 -0.00000000000E+00  0.00000000000E+00  0.80107443694E+03  0.80107443694E+03  0.00000000000E+00 0. -1.
         21   -1    0    0  501  502  0.00000000000E+00 -0.00000000000E+00 -0.20845339252E+03  0.20845339252E+03  0.00000000000E+00 0.  1.
         23    2    1    2    0    0 -0.12508812237E+03 -0.44765025534E+02  0.65324360022E+03  0.67292958967E+03  0.91956976649E+02 0.  0.
         23    2    1    2    0    0  0.97053417352E+02  0.26003501795E+02 -0.15481726136E+03  0.20634055352E+03  0.92263165380E+02 0.  0.
        -11    1    3    3    0    0 -0.12019761279E+03 -0.66464343808E+02  0.51956642554E+03  0.53741440775E+03  0.00000000000E+00 0. -1.
         11    1    3    3    0    0 -0.48905095763E+01  0.21699318275E+02  0.13367717468E+03  0.13551518191E+03  0.00000000000E+00 0.  1.
        -13    1    4    4    0    0  0.40535828080E+02 -0.15384504426E+02 -0.12103981616E+03  0.12857088874E+03  0.00000000000E+00 0.  1.
         13    1    4    4    0    0  0.56517589272E+02  0.41388006220E+02 -0.33777445202E+02  0.77769664782E+02  0.00000000000E+00 0. -1.
         21    1    1    2  503  502  0.59430984927E+01  0.23837098676E+02  0.10303826837E+03  0.10592644826E+03  0.00000000000E+00 0.  1.
          1    1    1    2  501    0  0.22091606522E+02 -0.50755749375E+01 -0.88435628125E+01  0.24331238006E+02  0.00000000000E+00 0. -1.
<scales pt_clust_5="13000.00000" pt_clust_6="13000.00000" pt_clust_7="13000.00000" pt_clust_8="13000.00000" pt_clust_9="24.57055" pt_clust_10="22.66717"></scales>
<clustering>
<clus scale="   22.667">  2 10  1 -1</clus>
<clus scale="   24.571">  1  9  2 -1</clus>
<clus scale="   91.957">  5  6 -1 -1</clus>
<clus scale="   92.263">  7  8 -1 -1</clus>
<clus scale="  151.444">  1  5  2 -1</clus>
<clus scale="   22.667">  2  5  1 -1</clus>
</clustering>
</event>
<event>
10    2  0.3544405E-006  0.1682593E+03  0.7546771E-02  0.1203243E+00
         -2   -1    0    0    0  501 -0.00000000000E+00  0.00000000000E+00  0.28520185629E+03  0.28520185629E+03  0.00000000000E+00 0.  1.
         21   -1    0    0  503  502  0.00000000000E+00 -0.00000000000E+00 -0.40246305031E+03  0.40246305031E+03  0.00000000000E+00 0.  1.
         23    2    1    2    0    0 -0.50894569207E+01 -0.45336240216E+02  0.27395917513E+02  0.10423213051E+03  0.89624346503E+02 0.  0.
         23    2    1    2    0    0 -0.11360106491E+03  0.94195497236E+01  0.93685637816E+02  0.17360447343E+03  0.91474502435E+02 0.  0.
        -11    1    3    3    0    0  0.39487429546E+02 -0.31954764764E+02  0.27345526488E+02  0.57690050287E+02  0.00000000000E+00 0. -1.
         11    1    3    3    0    0 -0.44576886467E+02 -0.13381475452E+02  0.50391025195E-01  0.46542080224E+02  0.00000000000E+00 0.  1.
        -13    1    4    4    0    0 -0.65041795852E+02 -0.30852373755E+02  0.82573054864E+02  0.10954731199E+03  0.00000000000E+00 0.  1.
         13    1    4    4    0    0 -0.48559269057E+02  0.40271923478E+02  0.11112582952E+02  0.64057161441E+02  0.00000000000E+00 0. -1.
         21    1    1    2  503  501 -0.23673037056E+02  0.82419194922E+01  0.67140206448E+02  0.71666932698E+02  0.00000000000E+00 0.  1.
         -2    1    1    2    0  502  0.14236355889E+03  0.27674771000E+02 -0.30548295580E+03  0.33816136996E+03  0.00000000000E+00 0.  1.
<scales pt_clust_5="13000.00000" pt_clust_6="13000.00000" pt_clust_7="13000.00000" pt_clust_8="13000.00000" pt_clust_9="25.06675" pt_clust_10="141.22181"></scales>
<clustering>
<clus scale="   25.067">  1  9  2 -1</clus>
<clus scale="   89.624">  5  6 -1 -1</clus>
<clus scale="   91.475">  7  8 -1 -1</clus>
<clus scale="  100.089">  1  5  2 -1</clus>
<clus scale="  141.222">  2 10  1 -1</clus>
<clus scale="  141.222">  2  5  1 -1</clus>
</clustering>
</event>
<event>
10    2  0.3544405E-006  0.1165411E+03  0.7546771E-02  0.1256295E+00
         21   -1    0    0  501  502  0.00000000000E+00  0.00000000000E+00  0.60402523698E+03  0.60402523698E+03  0.00000000000E+00 0.  1.
          3   -1    0    0  503    0 -0.00000000000E+00 -0.00000000000E+00 -0.11331763995E+03  0.11331763995E+03  0.00000000000E+00 0. -1.
         23    2    1    2    0    0  0.96885405828E+01  0.47105067054E+02 -0.60695814323E+02  0.13356076712E+03  0.10881976602E+03 0.  0.
         23    2    1    2    0    0  0.14332685261E+02 -0.85055467513E+01  0.19407160014E+03  0.21523830729E+03  0.91574957019E+02 0.  0.
        -13    1    3    3    0    0  0.16066753976E+02 -0.31459333355E+02 -0.37224406320E+02  0.51317508361E+02  0.00000000000E+00 0.  1.
         13    1    3    3    0    0 -0.63782133937E+01  0.78564400409E+02 -0.23471408003E+02  0.82243258760E+02  0.00000000000E+00 0. -1.
        -13    1    4    4    0    0 -0.23912879098E+02 -0.34880892305E+02  0.60482758203E+02  0.73801534365E+02  0.00000000000E+00 0. -1.
         13    1    4    4    0    0  0.38245564359E+02  0.26375345554E+02  0.13358884193E+03  0.14143677292E+03  0.00000000000E+00 0.  1.
         21    1    1    2  503  502  0.78290925596E+01 -0.51381054641E+02  0.26480412651E+03  0.26985650424E+03  0.00000000000E+00 0.  1.
          3    1    1    2  501    0 -0.31850318403E+02  0.12781534338E+02  0.92527684718E+02  0.98687298279E+02  0.00000000000E+00 0. -1.
<scales pt_clust_5="13000.00000" pt_clust_6="13000.00000" pt_clust_7="13000.00000" pt_clust_8="13000.00000" pt_clust_9="45.54212" pt_clust_10="34.31924"></scales>
<clustering>
<clus scale="   34.319">  1 10  2 -1</clus>
<clus scale="   45.542">  1  9  2 -1</clus>
<clus scale="   91.575">  7  8 -1 -1</clus>
<clus scale="  100.628">  1  7  2 -1</clus>
<clus scale="  108.820">  5  6 -1 -1</clus>
<clus scale="   34.319">  1  5  2 -1</clus>
</clustering>
</event>
<event>
10    2  0.3544405E-006  0.1042228E+03  0.7546771E-02  0.1271816E+00
         21   -1    0    0  501  502  0.00000000000E+00  0.00000000000E+00  0.65804803181E+02  0.65804803181E+02  0.00000000000E+00 0.  1.
          2   -1    0    0  503    0 -0.00000000000E+00 -0.00000000000E+00 -0.30595638216E+03  0.30595638216E+03  0.00000000000E+00 0. -1.
         23    2    1    2    0    0 -0.29687125338E+02 -0.21449363055E+02 -0.11050673935E+03  0.14755729559E+03  0.90664300882E+02 0.  0.
         23    2    1    2    0    0  0.63898576942E+02  0.21076270087E+01 -0.66443506080E+02  0.12956867044E+03  0.91026538064E+02 0.  0.
        -11    1    4    4    0    0  0.79772895779E+02 -0.19936733890E+02 -0.59600185199E+02  0.10155476520E+03  0.00000000000E+00 0.  1.
         11    1    4    4    0    0 -0.15874318836E+02  0.22044360899E+02 -0.68433208809E+01  0.28013905237E+02  0.00000000000E+00 0. -1.
        -13    1    3    3    0    0 -0.61513570942E+02 -0.23562669808E+02 -0.75618499191E+02  0.10028597229E+03  0.00000000000E+00 0.  1.
         13    1    3    3    0    0  0.31826445604E+02  0.21133067527E+01 -0.34888240156E+02  0.47271323298E+02  0.00000000000E+00 0. -1.
         21    1    1    2  503  502 -0.35469024419E+02 -0.13676436200E+01 -0.64738466951E+02  0.73830828557E+02  0.00000000000E+00 0. -1.
          2    1    1    2  501    0  0.12575728146E+01  0.20709379667E+02  0.15371334005E+01  0.20804390754E+02  0.00000000000E+00 0. -1.
<scales pt_clust_5="13000.00000" pt_clust_6="13000.00000" pt_clust_7="13000.00000" pt_clust_8="13000.00000" pt_clust_9="35.36617" pt_clust_10="20.74753"></scales>
<clustering>
<clus scale="   20.748">  1 10  2 -1</clus>
<clus scale="   35.366">  2  9  1 -1</clus>
<clus scale="   90.664">  7  8 -1 -1</clus>
<clus scale="   91.027">  5  6 -1 -1</clus>
<clus scale="  103.907">  2  7  1 -1</clus>
<clus scale="   20.748">  1  5  2 -1</clus>
</clustering>
</event>
<event>
10    2  0.3544405E-006  0.1012665E+03  0.7546771E-02  0.1278219E+00
          2   -1    0    0  503    0 -0.00000000000E+00  0.00000000000E+00  0.20200741537E+03  0.20200741537E+03  0.00000000000E+00 0. -1.
         21   -1    0    0  501  502  0.00000000000E+00 -0.00000000000E+00 -0.29275804305E+03  0.29275804305E+03  0.00000000000E+00 0. -1.
         23    2    1    2    0    0 -0.34433662344E+02 -0.18544176053E+02  0.41914879298E+02  0.10972560451E+03  0.93559006042E+02 0.  0.
         23    2    1    2    0    0  0.43564532687E+01  0.26801049154E+02 -0.17569885379E+03  0.20144259595E+03  0.94719360846E+02 0.  0.
        -11    1    3    3    0    0  0.88045512871E+01 -0.26731068812E+02 -0.19451354686E+02  0.34211479979E+02  0.00000000000E+00 0.  1.
         11    1    3    3    0    0 -0.43238213631E+02  0.81868927591E+01  0.61366233984E+02  0.75514124536E+02  0.00000000000E+00 0. -1.
        -13    1    4    4    0    0 -0.18074156265E+01  0.61702977736E+02 -0.12705152033E+03  0.14125371864E+03  0.00000000000E+00 0.  1.
         13    1    4    4    0    0  0.61638688952E+01 -0.34901928582E+02 -0.48647333463E+02  0.60188877308E+02  0.00000000000E+00 0. -1.
         21    1    1    2  503  502  0.73973433386E+02  0.12702130593E+00 -0.43778917163E+02  0.85957423003E+02  0.00000000000E+00 0. -1.
          2    1    1    2  501    0 -0.43896224311E+02 -0.83838944067E+01  0.86812263972E+02  0.97639834955E+02  0.00000000000E+00 0. -1.
<scales pt_clust_5="13000.00000" pt_clust_6="13000.00000" pt_clust_7="13000.00000" pt_clust_8="13000.00000" pt_clust_9="64.08816" pt_clust_10="44.68971"></scales>
<clustering>
<clus scale="   44.690">  2 10  1 -1</clus>
<clus scale="   64.088">  2  9  1 -1</clus>
<clus scale="   93.559">  5  6 -1 -1</clus>
<clus scale="   94.719">  7  8 -1 -1</clus>
<clus scale="  100.182">  1  5  2 -1</clus>
<clus scale="   44.690">  2  5  1 -1</clus>
</clustering>
</event>
<event>
10    2  0.3544405E-006  0.4605798E+03  0.7546771E-02  0.1024669E+00
          1   -1    0    0  503    0 -0.00000000000E+00  0.00000000000E+00  0.96929452118E+03  0.96929452118E+03  0.00000000000E+00 0. -1.
         21   -1    0    0  501  502  0.00000000000E+00 -0.00000000000E+00 -0.48639057175E+03  0.48639057175E+03  0.00000000000E+00 0. -1.
         23    2    1    2    0    0 -0.41429266349E+03  0.13995344469E+03  0.50955108096E+03  0.67734612199E+03  0.89051036863E+02 0.  0.
         23    2    1    2    0    0  0.45106573038E+03 -0.22207026537E+03 -0.71622809353E+02  0.51628049818E+03  0.92952838009E+02 0.  0.
        -11    1    3    3    0    0 -0.10200988502E+03 -0.44898483483E+01  0.12236237962E+03  0.15936978172E+03  0.00000000000E+00 0. -1.
         11    1    3    3    0    0 -0.31228277847E+03  0.14444329304E+03  0.38718870134E+03  0.51797634027E+03  0.00000000000E+00 0.  1.
        -11    1    4    4    0    0  0.49655001048E+02  0.53294479069E+01 -0.72918714052E+01  0.50469728874E+02  0.00000000000E+00 0.  1.
         11    1    4    4    0    0  0.40141072934E+03 -0.22739971328E+03 -0.64330937948E+02  0.46581076931E+03  0.00000000000E+00 0. -1.
         21    1    1    2  503  502  0.96553206560E+02 -0.83534301869E+01  0.20968463563E+02  0.99156330898E+02  0.00000000000E+00 0. -1.
          1    1    1    2  501    0 -0.13332627346E+03  0.90470250870E+02  0.24007214265E+02  0.16290214186E+03  0.00000000000E+00 0. -1.
<scales pt_clust_5="13000.00000" pt_clust_6="13000.00000" pt_clust_7="13000.00000" pt_clust_8="13000.00000" pt_clust_9="96.91389" pt_clust_10="148.17267"></scales>
<clustering>
<clus scale="   89.051">  5  6 -1 -1</clus>
<clus scale="   92.953">  7  8 -1 -1</clus>
<clus scale="   96.914">  2  9  1 -1</clus>
<clus scale="  148.173">  2 10  1 -1</clus>
<clus scale="  459.808">  1  5  2 -1</clus>
<clus scale="   96.914">  2  5  1 -1</clus>
</clustering>
</event>
<event>
10    2  0.3544405E-006  0.1085036E+03  0.7546771E-02  0.1269041E+00
         21   -1    0    0  503  502  0.00000000000E+00  0.00000000000E+00  0.92201817146E+03  0.92201817146E+03  0.00000000000E+00 0. -1.
         -1   -1    0    0    0  501 -0.00000000000E+00 -0.00000000000E+00 -0.49670945135E+02  0.49670945135E+02  0.00000000000E+00 0.  1.
         23    2    1    2    0    0  0.59903385141E+01 -0.48946591891E+02  0.69260836216E+02  0.12348060283E+03  0.89547433398E+02 0.  0.
         23    2    1    2    0    0  0.71984294247E+02  0.14545554210E+02  0.56413676224E+03  0.57792311221E+03  0.10174244613E+03 0.  0.
        -11    1    4    4    0    0  0.56788076566E+02  0.56621819565E+02  0.33552036267E+03  0.34497076667E+03  0.00000000000E+00 0.  1.
         11    1    4    4    0    0  0.15196217681E+02 -0.42076265355E+02  0.22861639958E+03  0.23295234554E+03  0.00000000000E+00 0. -1.
        -13    1    3    3    0    0  0.27242939235E+02 -0.55823398259E+02  0.13716119097E+02  0.63612588805E+02  0.00000000000E+00 0. -1.
         13    1    3    3    0    0 -0.21252600721E+02  0.68768063681E+01  0.55544717119E+02  0.59868014024E+02  0.00000000000E+00 0.  1.
         21    1    1    2  503  501 -0.42243843062E+02  0.47342745346E+02  0.59935298367E+02  0.87281829746E+02  0.00000000000E+00 0.  1.
         -1    1    1    2    0  502 -0.35730789699E+02 -0.12941707666E+02  0.17901432950E+03  0.18300357182E+03  0.00000000000E+00 0.  1.
<scales pt_clust_5="13000.00000" pt_clust_6="13000.00000" pt_clust_7="13000.00000" pt_clust_8="13000.00000" pt_clust_9="64.94828" pt_clust_10="38.00233"></scales>
<clustering>
<clus scale="   38.002">  1 10  2 -1</clus>
<clus scale="   64.948">  2  9  1 -1</clus>
<clus scale="   89.547">  7  8 -1 -1</clus>
<clus scale="   97.161">  2  7  1 -1</clus>
<clus scale="  101.742">  5  6 -1 -1</clus>
<clus scale="   38.002">  1  5  2 -1</clus>
</clustering>
</event>
<event>
10    2  0.3544405E-006  0.4564983E+03  0.7546771E-02  0.1025906E+00
         21   -1    0    0  503  502  0.00000000000E+00  0.00000000000E+00  0.45903458756E+03  0.45903458756E+03  0.00000000000E+00 0.  1.
         -1   -1    0    0    0  501 -0.00000000000E+00 -0.00000000000E+00 -0.61588102780E+03  0.61588102780E+03  0.00000000000E+00 0.  1.
         23    2    1    2    0    0 -0.45683584177E+03  0.16002897839E+03 -0.69393186798E+02  0.49644696446E+03  0.85649949776E+02 0.  0.
         23    2    1    2    0    0  0.41828642498E+03 -0.46314808421E+02 -0.43231692940E+02  0.43314154533E+03  0.92919450115E+02 0.  0.
        -13    1    4    4    0    0  0.97240936549E+02 -0.36836913724E+02  0.19739362605E+02  0.10584139261E+03  0.00000000000E+00 0.  1.
         13    1    4    4    0    0  0.32104548843E+03 -0.94778946970E+01 -0.62971055546E+02  0.32730015271E+03  0.00000000000E+00 0. -1.
        -13    1    3    3    0    0 -0.34875512723E+03  0.10555245216E+03 -0.85697648195E+02  0.37432011145E+03  0.00000000000E+00 0.  1.
         13    1    3    3    0    0 -0.10808071453E+03  0.54476526232E+02  0.16304461397E+02  0.12212685301E+03  0.00000000000E+00 0. -1.
         21    1    1    2  503  501  0.54661891054E+02 -0.57794474178E+02 -0.32670929455E+02  0.85997169783E+02  0.00000000000E+00 0. -1.
         -1    1    1    2    0  502 -0.16112474269E+02 -0.55919695791E+02 -0.11550631045E+02  0.59329935800E+02  0.00000000000E+00 0.  1.
<scales pt_clust_5="13000.00000" pt_clust_6="13000.00000" pt_clust_7="13000.00000" pt_clust_8="13000.00000" pt_clust_9="81.41845" pt_clust_10="58.19474"></scales>
<clustering>
<clus scale="   58.195">  1 10  2 -1</clus>
<clus scale="   81.418">  2  9  1 -1</clus>
<clus scale="   85.650">  7  8 -1 -1</clus>
<clus scale="   92.919">  5  6 -1 -1</clus>
<clus scale="  455.074">  2  7  1 -1</clus>
<clus scale="   58.195">  1  5  2 -1</clus>
</clustering>
</event>
<event>
10    2  0.3544405E-006  0.1618938E+03  0.7546771E-02  0.1186645E+00
         21   -1    0    0  501  502  0.00000000000E+00  0.00000000000E+00  0.68742850158E+02  0.68742850158E+02  0.00000000000E+00 0. -1.
          2   -1    0    0  503    0 -0.00000000000E+00 -0.00000000000E+00 -0.99510890662E+03  0.99510890662E+03  0.00000000000E+00 0. -1.
         23    2    1    2    0    0  0.99330789789E+01 -0.10958324177E+03 -0.50769717817E+03  0.52740818475E+03  0.91081368531E+02 0.  0.
         23    2    1    2    0    0  0.32800244701E+02  0.18153565630E+03 -0.15957548679E+03  0.26052235359E+03  0.91523276688E+02 0.  0.
        -11    1    4    4    0    0 -0.24676307814E+02  0.11253155684E+03 -0.77382055629E+02  0.13878131714E+03  0.00000000000E+00 0.  1.
         11    1    4    4    0    0  0.57476552515E+02  0.69004099452E+02 -0.82193431159E+02  0.12174103645E+03  0.00000000000E+00 0. -1.
        -13    1    3    3    0    0  0.31957717185E+02 -0.83452445579E+02 -0.46077244653E+03  0.46935791656E+03  0.00000000000E+00 0.  1.
         13    1    3    3    0    0 -0.22024638206E+02 -0.26130796195E+02 -0.46924731636E+02  0.58050268191E+02  0.00000000000E+00 0. -1.
         21    1    1    2  503  502  0.56540575722E+01 -0.22627616606E+02 -0.96045367669E+02  0.98836683731E+02  0.00000000000E+00 0.  1.
          2    1    1    2  501    0 -0.48387381252E+02 -0.49324797915E+02 -0.16304802384E+03  0.17708453471E+03  0.00000000000E+00 0. -1.
<scales pt_clust_5="13000.00000" pt_clust_6="13000.00000" pt_clust_7="13000.00000" pt_clust_8="13000.00000" pt_clust_9="23.32332" pt_clust_10="71.50552"></scales>
<clustering>
<clus scale="   23.323">  2  9  1 -1</clus>
<clus scale="   71.506">  1 10  2 -1</clus>
<clus scale="   91.081">  7  8 -1 -1</clus>
<clus scale="   91.523">  5  6 -1 -1</clus>
<clus scale="  161.644">  2  7  1 -1</clus>
<clus scale="   71.506">  1  5  2 -1</clus>
</clustering>
</event>
<event>
10    2  0.3544405E-006  0.1057380E+03  0.7546771E-02  0.1274986E+00
         21   -1    0    0  503  502  0.00000000000E+00  0.00000000000E+00  0.18363558661E+03  0.18363558661E+03  0.00000000000E+00 0. -1.
          2   -1    0    0  502    0 -0.00000000000E+00 -0.00000000000E+00 -0.53375522319E+03  0.53375522319E+03  0.00000000000E+00 0. -1.
         23    2    1    2    0    0  0.24076467811E+02  0.34451336382E+02 -0.36278801743E+03  0.37973333965E+03  0.10399852293E+03 0.  0.
         23    2    1    2    0    0  0.23066093989E+02  0.56712427348E+02 -0.77083435447E+02  0.13449806719E+03  0.91648949528E+02 0.  0.
        -11    1    3    3    0    0  0.59173987674E+02  0.20747069354E+02 -0.13502612450E+03  0.14887597523E+03  0.00000000000E+00 0. -1.
         11    1    3    3    0    0 -0.35097519863E+02  0.13704267028E+02 -0.22776189293E+03  0.23085736442E+03  0.00000000000E+00 0.  1.
        -13    1    4    4    0    0 -0.25891754300E+01  0.73122200848E+02 -0.31461852390E+02  0.79645516146E+02  0.00000000000E+00 0. -1.
         13    1    4    4    0    0  0.25655269419E+02 -0.16409773500E+02 -0.45621583057E+02  0.54852551043E+02  0.00000000000E+00 0.  1.
         21    1    1    2  503  501  0.11779416624E+02  0.37138842388E+02  0.72342959939E+01  0.39628062134E+02  0.00000000000E+00 0. -1.
          2    1    1    2  501    0 -0.58921978425E+02 -0.12830260612E+03  0.82517520296E+02  0.16353134083E+03  0.00000000000E+00 0. -1.
<scales pt_clust_5="13000.00000" pt_clust_6="13000.00000" pt_clust_7="13000.00000" pt_clust_8="13000.00000" pt_clust_9="38.96214" pt_clust_10="111.55389"></scales>
<clustering>
<clus scale="   38.962">  1  9  2 -1</clus>
<clus scale="   91.649">  7  8 -1 -1</clus>
<clus scale="  103.999">  5  6 -1 -1</clus>
<clus scale="  111.554">  1 10  2 -1</clus>
<clus scale="   93.618">  1  7  2 -1</clus>
<clus scale="   38.962">  1  5  2 -1</clus>
</clustering>
</event>
<event>
10    2  0.3544405E-006  0.2053659E+03  0.7546771E-02  0.1145504E+00
         21   -1    0    0  501  502  0.00000000000E+00  0.00000000000E+00  0.11237729067E+03  0.11237729067E+03  0.00000000000E+00 0.  1.
          2   -1    0    0  503    0 -0.00000000000E+00 -0.00000000000E+00 -0.61791721403E+03  0.61791721403E+03  0.00000000000E+00 0. -1.
         23    2    1    2    0    0 -0.62562306372E+01 -0.17804071734E+03 -0.22830949062E+03  0.30302588529E+03  0.89229065857E+02 0.  0.
         23    2    1    2    0    0 -0.10693397777E+02  0.20350134842E+03 -0.15797384153E+03  0.27363548005E+03  0.91616012621E+02 0.  0.
        -11    1    3    3    0    0 -0.22036559374E+02 -0.32941177848E+01 -0.38959098241E+02  0.44880647241E+02  0.00000000000E+00 0.  1.
         11    1    3    3    0    0  0.15780328737E+02 -0.17474659956E+03 -0.18935039238E+03  0.25814523805E+03  0.00000000000E+00 0. -1.
        -13    1    4    4    0    0 -0.38865782602E+02  0.18649760147E+03 -0.13595608817E+03  0.23404265065E+03  0.00000000000E+00 0.  1.
         13    1    4    4    0    0  0.28172384825E+02  0.17003746954E+02 -0.22017753357E+02  0.39592829402E+02  0.00000000000E+00 0. -1.
         21    1    1    2  503  502  0.22573808065E+02  0.19909256604E+02 -0.99279446681E+02  0.10374181337E+03  0.00000000000E+00 0.  1.
          2    1    1    2  501    0 -0.56241796502E+01 -0.45369887683E+02 -0.19977144539E+02  0.49891325990E+02  0.00000000000E+00 0. -1.
<scales pt_clust_5="13000.00000" pt_clust_6="13000.00000" pt_clust_7="13000.00000" pt_clust_8="13000.00000" pt_clust_9="30.09909" pt_clust_10="44.21329"></scales>
<clustering>
<clus scale="   30.099">  2  9  1 -1</clus>
<clus scale="   44.213">  1 10  2 -1</clus>
<clus scale="   89.229">  5  6 -1 -1</clus>
<clus scale="   91.616">  7  8 -1 -1</clus>
<clus scale="  204.312">  2  5  1 -1</clus>
<clus scale="   44.213">  1  5  2 -1</clus>
</clustering>
</event>
<event>
10    2  0.3544405E-006  0.1014697E+03  0.7546771E-02  0.1277247E+00
          1   -1    0    0  503    0 -0.00000000000E+00  0.00000000000E+00  0.38366608607E+03  0.38366608607E+03  0.00000000000E+00 0. -1.
         21   -1    0    0  501  502  0.00000000000E+00 -0.00000000000E+00 -0.11943399845E+03  0.11943399845E+03  0.00000000000E+00 0. -1.
         23    2    1    2    0    0  0.92438362457E+01 -0.60819796585E+02  0.10835675869E+03  0.15394768066E+03  0.90411310470E+02 0.  0.
         23    2    1    2    0    0  0.52802074293E+02  0.27033215936E+02  0.63231433548E+02  0.12524708388E+03  0.90386746914E+02 0.  0.
        -13    1    4    4    0    0  0.39806377525E+02  0.42659545704E+02 -0.50431312476E+00  0.58349283312E+02  0.00000000000E+00 0. -1.
         13    1    4    4    0    0  0.12995696769E+02 -0.15626329768E+02  0.63735746673E+02  0.66897800565E+02  0.00000000000E+00 0.  1.
        -13    1    3    3    0    0 -0.40306026591E+02 -0.34583668818E+02  0.48310518728E+02  0.71794931215E+02  0.00000000000E+00 0.  1.
         13    1    3    3    0    0  0.49549862837E+02 -0.26236127768E+02  0.60046239960E+02  0.82152749441E+02  0.00000000000E+00 0. -1.
         21    1    1    2  503  502 -0.51699250546E+01  0.24283470462E+02  0.14434057149E+03  0.14646028691E+03  0.00000000000E+00 0. -1.
          1    1    1    2  501    0 -0.56875985484E+02  0.95031101879E+01 -0.51696676109E+02  0.77445033080E+02  0.00000000000E+00 0. -1.
<scales pt_clust_5="13000.00000" pt_clust_6="13000.00000" pt_clust_7="13000.00000" pt_clust_8="13000.00000" pt_clust_9="24.82771" pt_clust_10="58.16959"></scales>
<clustering>
<clus scale="   24.828">  1  9  2 -1</clus>
<clus scale="   58.170">  2 10  1 -1</clus>
<clus scale="   90.387">  5  6 -1 -1</clus>
<clus scale="   90.411">  7  8 -1 -1</clus>
<clus scale="  101.448">  2  5  1 -1</clus>
<clus scale="   58.170">  2  5  1 -1</clus>
</clustering>
</event>
<event>
10    2  0.3544405E-006  0.1176780E+03  0.7546771E-02  0.1247360E+00
          2   -1    0    0  503    0 -0.00000000000E+00  0.00000000000E+00  0.17979245058E+03  0.17979245058E+03  0.00000000000E+00 0. -1.
         21   -1    0    0  501  502  0.00000000000E+00 -0.00000000000E+00 -0.19901878578E+03  0.19901878578E+03  0.00000000000E+00 0.  1.
         23    2    1    2    0    0 -0.30423254799E+02  0.38545173551E+02  0.47697245317E+02  0.11428949211E+03  0.91519156242E+02 0.  0.
         23    2    1    2    0    0 -0.54311185179E+01 -0.84796106696E+02 -0.93325516030E+02  0.15522266305E+03  0.90357879702E+02 0.  0.
        -11    1    3    3    0    0 -0.46996569229E+02 -0.11845868300E+02  0.10750881590E+02  0.49644572412E+02  0.00000000000E+00 0.  1.
         11    1    3    3    0    0  0.16573314430E+02  0.50391041851E+02  0.36946363728E+02  0.64644919697E+02  0.00000000000E+00 0. -1.
        -11    1    4    4    0    0  0.20393519182E+02 -0.93840923152E+02 -0.78919878266E+02  0.12429948378E+03  0.00000000000E+00 0.  1.
         11    1    4    4    0    0 -0.25824637700E+02  0.90448164556E+01 -0.14405637764E+02  0.30923179274E+02  0.00000000000E+00 0. -1.
         21    1    1    2  503  502  0.54559799027E+02  0.54592598704E+02  0.37711643601E+02  0.85902803017E+02  0.00000000000E+00 0. -1.
          2    1    1    2  501    0 -0.18705425710E+02 -0.83416655589E+01 -0.11309708095E+02  0.23396278176E+02  0.00000000000E+00 0. -1.
<scales pt_clust_5="13000.00000" pt_clust_6="13000.00000" pt_clust_7="13000.00000" pt_clust_8="13000.00000" pt_clust_9="74.65233" pt_clust_10="20.48112"></scales>
<clustering>
<clus scale="   20.481">  2 10  1 -1</clus>
<clus scale="   74.652">  1  9  2 -1</clus>
<clus scale="   90.358">  7  8 -1 -1</clus>
<clus scale="   91.519">  5  6 -1 -1</clus>
<clus scale="  116.777">  2  7  1 -1</clus>
<clus scale="   20.481">  2  5  1 -1</clus>
</clustering>
</event>
<event>
10    2  0.3544405E-006  0.1641878E+03  0.7546771E-02  0.1184068E+00
          3   -1    0    0  503    0 -0.00000000000E+00  0.00000000000E+00  0.35442338067E+03  0.35442338067E+03  0.00000000000E+00 0. -1.
         21   -1    0    0  501  502  0.00000000000E+00 -0.00000000000E+00 -0.10921265362E+03  0.10921265362E+03  0.00000000000E+00 0.  1.
         23    2    1    2    0    0 -0.55860072775E+02  0.13549845205E+03  0.15337195586E+03  0.23072179002E+03  0.90716091779E+02 0.  0.
         23    2    1    2    0    0  0.16187266134E+02 -0.12532038350E+03  0.63050306544E+02  0.16777507473E+03  0.90586469400E+02 0.  0.
        -11    1    3    3    0    0 -0.66531833103E+02  0.45687581180E+02  0.58741797251E+02  0.99822034814E+02  0.00000000000E+00 0. -1.
         11    1    3    3    0    0  0.10671760328E+02  0.89810870868E+02  0.94630158610E+02  0.13089975521E+03  0.00000000000E+00 0.  1.
        -13    1    4    4    0    0  0.22908834421E+02  0.21986422083E+01 -0.42906613307E+01  0.23410649217E+02  0.00000000000E+00 0.  1.
         13    1    4    4    0    0 -0.67215682876E+01 -0.12751902571E+03  0.67340967875E+02  0.14436442551E+03  0.00000000000E+00 0. -1.
         21    1    1    2  503  502  0.18716446915E+02  0.16161319041E+02  0.10934943162E+02  0.27038243290E+02  0.00000000000E+00 0. -1.
          3    1    1    2  501    0  0.20956359726E+02 -0.26339387584E+02  0.17853521484E+02  0.38100926244E+02  0.00000000000E+00 0. -1.
<scales pt_clust_5="13000.00000" pt_clust_6="13000.00000" pt_clust_7="13000.00000" pt_clust_8="13000.00000" pt_clust_9="24.72840" pt_clust_10="33.65058"></scales>
<clustering>
<clus scale="   24.728">  2  9  1 -1</clus>
<clus scale="   33.651">  2 10  1 -1</clus>
<clus scale="   90.586">  7  8 -1 -1</clus>
<clus scale="   90.716">  5  6 -1 -1</clus>
<clus scale="  164.116">  2  7  1 -1</clus>
<clus scale="   24.728">  2  5  1 -1</clus>
</clustering>
</event>
<event>
10    2  0.3544405E-006  0.1391385E+03  0.7546771E-02  0.1222144E+00
          2   -1    0    0  503    0 -0.00000000000E+00  0.00000000000E+00  0.56683201765E+03  0.56683201765E+03  0.00000000000E+00 0. -1.
         21   -1    0    0  501  502  0.00000000000E+00 -0.00000000000E+00 -0.35261746973E+03  0.35261746973E+03  0.00000000000E+00 0. -1.
         23    2    1    2    0    0  0.51271837276E+02  0.68890937839E+02  0.24224116949E+03  0.27231867041E+03  0.90010618504E+02 0.  0.
         23    2    1    2    0    0 -0.78270496576E+02  0.36751341767E+02 -0.40462120676E+02  0.13231071233E+03  0.91607912498E+02 0.  0.
        -13    1    4    4    0    0 -0.60482968669E+02  0.62134690867E+01  0.18513074395E+02  0.63557301867E+02  0.00000000000E+00 0. -1.
         13    1    4    4    0    0 -0.17787527907E+02  0.30537872681E+02 -0.58975195071E+02  0.68753410465E+02  0.00000000000E+00 0.  1.
        -13    1    3    3    0    0  0.50140418702E+02  0.66261815924E+01  0.53738918555E+02  0.73795929681E+02  0.00000000000E+00 0.  1.
         13    1    3    3    0    0  0.11314185741E+01  0.62264756247E+02  0.18850225093E+03  0.19852274073E+03  0.00000000000E+00 0. -1.
         21    1    1    2  503  502 -0.18276174653E+02 -0.13734396851E+03  0.24191225986E+03  0.27878114305E+03  0.00000000000E+00 0. -1.
          2    1    1    2  501    0  0.45274833953E+02  0.31701688906E+02 -0.22947676074E+03  0.23603896159E+03  0.00000000000E+00 0. -1.
<scales pt_clust_5="13000.00000" pt_clust_6="13000.00000" pt_clust_7="13000.00000" pt_clust_8="13000.00000" pt_clust_9="106.10195" pt_clust_10="55.27031"></scales>
<clustering>
<clus scale="   55.270">  2 10  1 -1</clus>
<clus scale="   90.011">  7  8 -1 -1</clus>
<clus scale="   91.608">  5  6 -1 -1</clus>
<clus scale="  118.436">  2  5  1 -1</clus>
<clus scale="  106.102">  2  9  1 -1</clus>
<clus scale="   55.270">  2  5  1 -1</clus>
</clustering>
</event>
<event>
10    2  0.3544405E-006  0.1521636E+03  0.7546771E-02  0.1197936E+00
         21   -1    0    0  503  502  0.00000000000E+00  0.00000000000E+00  0.10433397161E+04  0.10433397161E+04  0.00000000000E+00 0. -1.
         -1   -1    0    0    0  501 -0.00000000000E+00 -0.00000000000E+00 -0.75325262532E+02  0.75325262532E+02  0.00000000000E+00 0.  1.
         23    2    1    2    0    0 -0.89882519939E+02 -0.88215517155E+02  0.30877941032E+03  0.34602164328E+03  0.92333138820E+02 0.  0.
         23    2    1    2    0    0 -0.17217395598E+02  0.13474141278E+03  0.49039943795E+03  0.51707977243E+03  0.91805202904E+02 0.  0.
        -11    1    3    3    0    0 -0.36304497378E+01 -0.45179692781E+02  0.17724553470E+03  0.18294907591E+03  0.00000000000E+00 0. -1.
         11    1    3    3    0    0 -0.86252070201E+02 -0.43035824374E+02  0.13153387561E+03  0.16307256737E+03  0.00000000000E+00 0.  1.
        -13    1    4    4    0    0 -0.54009345783E+02  0.82840791137E+02  0.26409509092E+03  0.28200323253E+03  0.00000000000E+00 0.  1.
         13    1    4    4    0    0  0.36791950184E+02  0.51900621641E+02  0.22630434703E+03  0.23507653990E+03  0.00000000000E+00 0. -1.
         21    1    1    2  503  501  0.90617891432E+02 -0.74622096064E+02  0.42101163023E+02  0.12470993303E+03  0.00000000000E+00 0.  1.
         -1    1    1    2    0  502  0.16482024105E+02  0.28096200442E+02  0.12673444229E+03  0.13085362991E+03  0.00000000000E+00 0.  1.
<scales pt_clust_5="13000.00000" pt_clust_6="13000.00000" pt_clust_7="13000.00000" pt_clust_8="13000.00000" pt_clust_9="116.95680" pt_clust_10="32.57382"></scales>
<clustering>
<clus scale="   32.574">  1 10  2 -1</clus>
<clus scale="   91.805">  7  8 -1 -1</clus>
<clus scale="   92.333">  5  6 -1 -1</clus>
<clus scale="  116.957">  2  9  1 -1</clus>
<clus scale="  151.844">  1  7  2 -1</clus>
<clus scale="   32.574">  1  5  2 -1</clus>
</clustering>
</event>
<event>
10    2  0.3544405E-006  0.1093222E+03  0.7546771E-02  0.1262714E+00
          2   -1    0    0  503    0 -0.00000000000E+00  0.00000000000E+00  0.51535282149E+03  0.51535282149E+03  0.00000000000E+00 0. -1.
         21   -1    0    0  501  502  0.00000000000E+00 -0.00000000000E+00 -0.26333810694E+03  0.26333810694E+03  0.00000000000E+00 0. -1.
         23    2    1    2    0    0  0.68531803617E+02  0.43016764762E+02  0.44766181692E+03  0.46447632749E+03  0.93755566881E+02 0.  0.
         23    2    1    2    0    0 -0.55004204794E+02 -0.48333806125E+02 -0.10324180104E+03  0.15621831611E+03  0.91562401929E+02 0.  0.
        -11    1    3    3    0    0  0.83439782536E+02  0.59642053097E+01  0.28883879329E+03  0.30070852593E+03  0.00000000000E+00 0.  1.
         11    1    3    3    0    0 -0.14907978919E+02  0.37052559452E+02  0.15882302362E+03  0.16376780157E+03  0.00000000000E+00 0. -1.
        -13    1    4    4    0    0 -0.67685280727E+02 -0.23020919631E+02 -0.10590932024E+03  0.12778123525E+03  0.00000000000E+00 0.  1.
         13    1    4    4    0    0  0.12681075933E+02 -0.25312886494E+02  0.26675191969E+01  0.28437080865E+02  0.00000000000E+00 0. -1.
         21    1    1    2  503  502 -0.28976506226E+02 -0.80696197564E+01  0.24822893495E+02  0.38999137395E+02  0.00000000000E+00 0.  1.
          2    1    1    2  501    0  0.15448907402E+02  0.13386661120E+02 -0.11722819482E+03  0.11899714743E+03  0.00000000000E+00 0. -1.
<scales pt_clust_5="13000.00000" pt_clust_6="13000.00000" pt_clust_7="13000.00000" pt_clust_8="13000.00000" pt_clust_9="29.18063" pt_clust_10="20.44190"></scales>
<clustering>
<clus scale="   20.442">  2 10  1 -1</clus>
<clus scale="   29.181">  1  9  2 -1</clus>
<clus scale="   91.562">  7  8 -1 -1</clus>
<clus scale="   93.756">  5  6 -1 -1</clus>
<clus scale="  107.447">  2  7  1 -1</clus>
<clus scale="   20.442">  2  5  1 -1</clus>
</clustering>
</event>
<event>
10    2  0.3544405E-006  0.1250268E+03  0.7546771E-02  0.1235202E+00
          1   -1    0    0  503    0 -0.00000000000E+00  0.00000000000E+00  0.11835799156E+04  0.11835799156E+04  0.00000000000E+00 0. -1.
         21   -1    0    0  501  502  0.00000000000E+00 -0.00000000000E+00 -0.49113454453E+02  0.49113454453E+02  0.00000000000E+00 0. -1.
         23    2    1    2    0    0 -0.55530675850E+02  0.58007100276E+02  0.41704076626E+03  0.43457780557E+03  0.92121597527E+02 0.  0.
         23    2    1    2    0    0  0.36950102743E+01 -0.91169555436E+02  0.27862553417E+03  0.30713676799E+03  0.91516474036E+02 0.  0.
        -13    1    3    3    0    0  0.21853721104E+02  0.10498436583E+02  0.40147360095E+02  0.46900030057E+02  0.00000000000E+00 0.  1.
         13    1    3    3    0    0 -0.77384396954E+02  0.47508663692E+02  0.37689340616E+03  0.38767777551E+03  0.00000000000E+00 0. -1.
        -13    1    4    4    0    0 -0.26130395527E+02 -0.91468373085E+02  0.24118928425E+03  0.25927115475E+03  0.00000000000E+00 0.  1.
         13    1    4    4    0    0  0.29825405801E+02  0.29881764980E+00  0.37436249914E+02  0.47865613240E+02  0.00000000000E+00 0. -1.
         21    1    1    2  503  502  0.34427950772E+02  0.62514707281E+02  0.44956552708E+03  0.45519505222E+03  0.00000000000E+00 0.  1.
          1    1    1    2  501    0  0.17407714804E+02 -0.29352252121E+02 -0.10765366388E+02  0.35783744253E+02  0.00000000000E+00 0. -1.
<scales pt_clust_5="13000.00000" pt_clust_6="13000.00000" pt_clust_7="13000.00000" pt_clust_8="13000.00000" pt_clust_9="69.55562" pt_clust_10="34.12599"></scales>
<clustering>
<clus scale="   34.126">  2 10  1 -1</clus>
<clus scale="   69.556">  1  9  2 -1</clus>
<clus scale="   91.516">  7  8 -1 -1</clus>
<clus scale="   92.122">  5  6 -1 -1</clus>
<clus scale="  124.582">  2  7  1 -1</clus>
<clus scale="   34.126">  2  5  1 -1</clus>
</clustering>
</event>
<event>
10    2  0.3544405E-006  0.1935999E+03  0.7546771E-02  0.1187929E+00
         21   -1    0    0  503  502  0.00000000000E+00  0.00000000000E+00  0.29283010822E+03  0.29283010822E+03  0.00000000000E+00 0.  1.
         -1   -1    0    0    0  501 -0.00000000000E+00 -0.00000000000E+00 -0.30055505994E+03  0.30055505994E+03  0.00000000000E+00 0.  1.
         23    2    1    2    0    0  0.60770918657E+00 -0.18023172504E+02 -0.62798662483E+02  0.11271059206E+03  0.91841175386E+02 0.  0.
         23    2    1    2    0    0  0.89222473602E+02  0.12957030232E+03  0.53888959933E+02  0.18987190325E+03  0.91641729595E+02 0.  0.
        -11    1    4    4    0    0  0.68712811054E+02  0.28652133419E+02  0.43852618153E+02  0.86402819811E+02  0.00000000000E+00 0. -1.
         11    1    4    4    0    0  0.20509662548E+02  0.10091816890E+03  0.10036341779E+02  0.10346908344E+03  0.00000000000E+00 0.  1.
        -13    1    3    3    0    0  0.82766225198E+01  0.29759676581E+02 -0.55845939829E+02  0.63819353068E+02  0.00000000000E+00 0.  1.
         13    1    3    3    0    0 -0.76689133332E+01 -0.47782849085E+02 -0.69527226533E+01  0.48891238997E+02  0.00000000000E+00 0. -1.
         21    1    1    2  503  501  0.35973198201E+01  0.44901810195E+02 -0.79611034237E+02  0.91471471186E+02  0.00000000000E+00 0.  1.
         -1    1    1    2    0  502 -0.93427502608E+02 -0.15644894001E+03  0.80795785063E+02  0.19933120166E+03  0.00000000000E+00 0.  1.
<scales pt_clust_5="13000.00000" pt_clust_6="13000.00000" pt_clust_7="13000.00000" pt_clust_8="13000.00000" pt_clust_9="45.04568" pt_clust_10="170.53652"></scales>
<clustering>
<clus scale="   45.046">  2  9  1 -1</clus>
<clus scale="   91.642">  5  6 -1 -1</clus>
<clus scale="   91.841">  7  8 -1 -1</clus>
<clus scale="   91.865">  2  7  1 -1</clus>
<clus scale="  170.537">  1 10  2 -1</clus>
<clus scale="  170.537">  1  5  2 -1</clus>
</clustering>
</event>
<event>
10    2  0.3544405E-006  0.9215602E+02  0.7546771E-02  0.1298350E+00
          2   -1    0    0  503    0 -0.00000000000E+00  0.00000000000E+00  0.19806560902E+03  0.19806560902E+03  0.00000000000E+00 0.  1.
         21   -1    0    0  501  502  0.00000000000E+00 -0.00000000000E+00 -0.49557075029E+03  0.49557075029E+03  0.00000000000E+00 0.  1.
         23    2    1    2    0    0 -0.28332472189E+02 -0.13952275471E+02  0.19078846154E+02  0.98695940278E+02  0.91539561315E+02 0.  0.
         23    2    1    2    0    0 -0.32069591771E+02 -0.17299880499E+02 -0.10070666102E+03  0.14018323885E+03  0.90453105534E+02 0.  0.
        -11    1    4    4    0    0 -0.23453686331E+01  0.28364266440E+02 -0.34039422051E+01  0.28663900419E+02  0.00000000000E+00 0. -1.
         11    1    4    4    0    0 -0.29724223138E+02 -0.45664146939E+02 -0.97302718811E+02  0.11151933843E+03  0.00000000000E+00 0.  1.
        -13    1    3    3    0    0 -0.56685359654E+02 -0.28502981398E+02  0.20828528785E+02  0.66779319846E+02  0.00000000000E+00 0.  1.
         13    1    3    3    0    0  0.28352887464E+02  0.14550705927E+02 -0.17496826315E+01  0.31916620433E+02  0.00000000000E+00 0. -1.
         21    1    1    2  503  502  0.20664823296E+02 -0.84904255156E+01  0.11601174881E+03  0.11814333713E+03  0.00000000000E+00 0.  1.
          2    1    1    2  501    0  0.39737240664E+02  0.39742581486E+02 -0.33188907522E+03  0.33661384304E+03  0.00000000000E+00 0.  1.
<scales pt_clust_5="13000.00000" pt_clust_6="13000.00000" pt_clust_7="13000.00000" pt_clust_8="13000.00000" pt_clust_9="22.34104" pt_clust_10="56.45499"></scales>
<clustering>
<clus scale="   22.341">  1  9  2 -1</clus>
<clus scale="   56.455">  2 10  1 -1</clus>
<clus scale="   90.453">  5  6 -1 -1</clus>
<clus scale="   91.077">  2  5  1 -1</clus>
<clus scale="   91.540">  7  8 -1 -1</clus>
<clus scale="   56.455">  2  5  1 -1</clus>
</clustering>
</event>
<event>
10    2  0.3544405E-006  0.1602194E+03  0.7546771E-02  0.1189465E+00
         21   -1    0    0  501  502  0.00000000000E+00  0.00000000000E+00  0.13172480059E+03  0.13172480059E+03  0.00000000000E+00 0. -1.
          2   -1    0    0  503    0 -0.00000000000E+00 -0.00000000000E+00 -0.37627087513E+03  0.37627087513E+03  0.00000000000E+00 0. -1.
         23    2    1    2    0    0  0.37591270859E+01 -0.12624596069E+03 -0.19403160750E+03  0.24907517138E+03  0.91858601449E+02 0.  0.
         23    2    1    2    0    0  0.14155365034E+02  0.14951944014E+03 -0.71229883495E+01  0.17296462484E+03  0.85496123559E+02 0.  0.
        -13    1    4    4    0    0  0.15772613165E+02  0.11622519037E+03  0.31989680779E+02  0.12157470904E+03  0.00000000000E+00 0. -1.
         13    1    4    4    0    0 -0.16172481304E+01  0.33294249773E+02 -0.39112669128E+02  0.51389915798E+02  0.00000000000E+00 0.  1.
        -13    1    3    3    0    0  0.26687203222E+02 -0.38935270516E+02 -0.16666143674E+02  0.50059189476E+02  0.00000000000E+00 0.  1.
         13    1    3    3    0    0 -0.22928076136E+02 -0.87310690179E+02 -0.17736546383E+03  0.19901598191E+03  0.00000000000E+00 0. -1.
         21    1    1    2  503  502 -0.33859600448E+02  0.53343874059E+01 -0.40527815882E+02  0.53079488427E+02  0.00000000000E+00 0. -1.
          2    1    1    2  501    0  0.15945108328E+02 -0.28607866850E+02 -0.28636627989E+01  0.32876391072E+02  0.00000000000E+00 0. -1.
<scales pt_clust_5="13000.00000" pt_clust_6="13000.00000" pt_clust_7="13000.00000" pt_clust_8="13000.00000" pt_clust_9="33.21986" pt_clust_10="32.75144"></scales>
<clustering>
<clus scale="   32.751">  1 10  2 -1</clus>
<clus scale="   33.220">  2  9  1 -1</clus>
<clus scale="   85.496">  5  6 -1 -1</clus>
<clus scale="   91.859">  7  8 -1 -1</clus>
<clus scale="  156.658">  1  5  2 -1</clus>
<clus scale="   32.751">  1  5  2 -1</clus>
</clustering>
</event>
<event>
10    2  0.3544405E-006  0.1226801E+03  0.7546771E-02  0.1248272E+00
         21   -1    0    0  501  502  0.00000000000E+00  0.00000000000E+00  0.78047181367E+02  0.78047181367E+02  0.00000000000E+00 0.  1.
          3   -1    0    0  503    0 -0.00000000000E+00 -0.00000000000E+00 -0.32741488951E+03  0.32741488951E+03  0.00000000000E+00 0. -1.
         23    2    1    2    0    0 -0.21728222240E+02 -0.31447241845E+02 -0.12774337226E+03  0.17503015842E+03  0.11338493083E+03 0.  0.
         23    2    1    2    0    0  0.70939893368E+01  0.43778864879E+02 -0.28170100297E+02  0.10396085162E+03  0.89707248450E+02 0.  0.
        -13    1    3    3    0    0 -0.12073589436E+02 -0.49439409478E+02 -0.56087330419E+01  0.51200436109E+02  0.00000000000E+00 0.  1.
         13    1    3    3    0    0 -0.96546328039E+01  0.17992167633E+02 -0.12213463922E+03  0.12382972231E+03  0.00000000000E+00 0. -1.
        -13    1    4    4    0    0 -0.16400127404E+02 -0.22445617953E+02 -0.17600052983E+02  0.32901851151E+02  0.00000000000E+00 0.  1.
         13    1    4    4    0    0  0.23494116741E+02  0.66224482832E+02 -0.10570047313E+02  0.71059000471E+02  0.00000000000E+00 0. -1.
         21    1    1    2  503  502  0.10718333571E+02 -0.33767868581E+02 -0.98003262190E+02  0.10421032110E+03  0.00000000000E+00 0.  1.
          3    1    1    2  501    0  0.39158993320E+01  0.21436245547E+02  0.45490266023E+01  0.22260739740E+02  0.00000000000E+00 0. -1.
<scales pt_clust_5="13000.00000" pt_clust_6="13000.00000" pt_clust_7="13000.00000" pt_clust_8="13000.00000" pt_clust_9="34.50754" pt_clust_10="21.79098"></scales>
<clustering>
<clus scale="   21.791">  1 10  2 -1</clus>
<clus scale="   34.508">  2  9  1 -1</clus>
<clus scale="   89.707">  7  8 -1 -1</clus>
<clus scale="  101.201">  1  7  2 -1</clus>
<clus scale="  113.385">  5  6 -1 -1</clus>
<clus scale="   21.791">  1  5  2 -1</clus>
</clustering>
</event>
<event>
10    2  0.3544405E-006  0.1037430E+03  0.7546771E-02  0.1273406E+00
         21   -1    0    0  501  502  0.00000000000E+00  0.00000000000E+00  0.16314294034E+03  0.16314294034E+03  0.00000000000E+00 0. -1.
          1   -1    0    0  503    0 -0.00000000000E+00 -0.00000000000E+00 -0.28388365599E+03  0.28388365599E+03  0.00000000000E+00 0. -1.
         23    2    1    2    0    0 -0.11291917579E+02 -0.39743604889E+02 -0.19018406940E+03  0.21406284645E+03  0.89139555997E+02 0.  0.
         23    2    1    2    0    0 -0.38106523456E+01  0.74347479081E+02  0.29180886293E+02  0.12108605478E+03  0.90929862087E+02 0.  0.
        -11    1    3    3    0    0 -0.34774179694E+02 -0.54839874484E+02 -0.96545622517E+02  0.11635167654E+03  0.00000000000E+00 0.  1.
         11    1    3    3    0    0  0.23482262114E+02  0.15096269595E+02 -0.93638446882E+02  0.97711169905E+02  0.00000000000E+00 0. -1.
        -13    1    4    4    0    0 -0.25970303234E+02 -0.11774266521E+02  0.89568033499E+01  0.29888364432E+02  0.00000000000E+00 0.  1.
         13    1    4    4    0    0  0.22159650889E+02  0.86121745602E+02  0.20224082943E+02  0.91197690343E+02  0.00000000000E+00 0. -1.
         21    1    1    2  503  502  0.32040211660E+02 -0.29944474749E+01 -0.22726325124E+02  0.39395783183E+02  0.00000000000E+00 0.  1.
          1    1    1    2  501    0 -0.16937641735E+02 -0.31609426718E+02  0.62988792586E+02  0.72481911926E+02  0.00000000000E+00 0. -1.
<scales pt_clust_5="13000.00000" pt_clust_6="13000.00000" pt_clust_7="13000.00000" pt_clust_8="13000.00000" pt_clust_9="32.17984" pt_clust_10="35.63119"></scales>
<clustering>
<clus scale="   32.180">  2  9  1 -1</clus>
<clus scale="   35.631">  1 10  2 -1</clus>
<clus scale="   89.140">  5  6 -1 -1</clus>
<clus scale="   90.930">  7  8 -1 -1</clus>
<clus scale="  102.177">  2  5  1 -1</clus>
<clus scale="   35.631">  1  5  2 -1</clus>
</clustering>
</event>
<event>
10    2  0.3544405E-006  0.1058071E+03  0.7546771E-02  0.1269786E+00
          3   -1    0    0  503    0 -0.00000000000E+00  0.00000000000E+00  0.13588554207E+03  0.13588554207E+03  0.00000000000E+00 0. -1.
         21   -1    0    0  501  502  0.00000000000E+00 -0.00000000000E+00 -0.28999642185E+03  0.28999642185E+03  0.00000000000E+00 0.  1.
         23    2    1    2    0    0  0.33996838860E+02 -0.57457348361E+02 -0.79629580655E+02  0.13942393538E+03  0.92957149845E+02 0.  0.
         23    2    1    2    0    0 -0.45122822770E+02  0.11924699716E+01 -0.41565070838E+02  0.10898469172E+03  0.90069510909E+02 0.  0.
        -11    1    4    4    0    0  0.14999656469E+01  0.22082845692E+02 -0.52290426750E+02  0.56781957526E+02  0.00000000000E+00 0.  1.
         11    1    4    4    0    0 -0.46622788416E+02 -0.20890375720E+02  0.10725355912E+02  0.52202734190E+02  0.00000000000E+00 0. -1.
        -13    1    3    3    0    0 -0.20365061294E+02  0.32703280682E+01 -0.47554024097E+02  0.51834505641E+02  0.00000000000E+00 0. -1.
         13    1    3    3    0    0  0.54361900154E+02 -0.60727676430E+02 -0.32075556557E+02  0.87589429735E+02  0.00000000000E+00 0.  1.
         21    1    1    2  503  502 -0.13632246919E+02  0.63703459037E+02  0.55359218489E+02  0.85490420054E+02  0.00000000000E+00 0. -1.
          3    1    1    2  501    0  0.24758230829E+02 -0.74385806471E+01 -0.88275446772E+02  0.91982916776E+02  0.00000000000E+00 0. -1.
<scales pt_clust_5="13000.00000" pt_clust_6="13000.00000" pt_clust_7="13000.00000" pt_clust_8="13000.00000" pt_clust_9="64.22964" pt_clust_10="25.85155"></scales>
<clustering>
<clus scale="   25.852">  2 10  1 -1</clus>
<clus scale="   64.230">  1  9  2 -1</clus>
<clus scale="   90.070">  5  6 -1 -1</clus>
<clus scale="   92.957">  7  8 -1 -1</clus>
<clus scale="  103.279">  2  5  1 -1</clus>
<clus scale="   25.852">  2  5  1 -1</clus>
</clustering>
</event>
<event>
10    2  0.3544405E-006  0.1094813E+03  0.7546771E-02  0.1261884E+00
         21   -1    0    0  501  502  0.00000000000E+00  0.00000000000E+00  0.89400522500E+02  0.89400522500E+02  0.00000000000E+00 0.  1.
          1   -1    0    0  503    0 -0.00000000000E+00 -0.00000000000E+00 -0.53099804363E+03  0.53099804363E+03  0.00000000000E+00 0. -1.
         23    2    1    2    0    0 -0.12916018503E+02 -0.66363297876E+02 -0.76902615382E+02  0.13774451849E+03  0.92133757566E+02 0.  0.
         23    2    1    2    0    0  0.32591213004E+02  0.29484620347E+02 -0.91754854020E+01  0.10168949294E+03  0.91241621207E+02 0.  0.
        -11    1    4    4    0    0  0.57375361376E+02  0.23096205540E+02 -0.29955324839E+02  0.68721818149E+02  0.00000000000E+00 0.  1.
         11    1    4    4    0    0 -0.24784148372E+02  0.63884148073E+01  0.20779839437E+02  0.32967674794E+02  0.00000000000E+00 0. -1.
        -13    1    3    3    0    0  0.57045495727E+01  0.20416630839E+02 -0.31717520028E+02  0.38149466279E+02  0.00000000000E+00 0.  1.
         13    1    3    3    0    0 -0.18620568076E+02 -0.86779928715E+02 -0.45185095354E+02  0.99595052214E+02  0.00000000000E+00 0. -1.
         21    1    1    2  503  502 -0.42413977453E+02 -0.21898763897E+02 -0.27294679326E+03  0.27708925150E+03  0.00000000000E+00 0. -1.
          1    1    1    2  501    0  0.22738782952E+02  0.58777441426E+02 -0.82572627082E+02  0.10387530320E+03  0.00000000000E+00 0. -1.
<scales pt_clust_5="13000.00000" pt_clust_6="13000.00000" pt_clust_7="13000.00000" pt_clust_8="13000.00000" pt_clust_9="47.73365" pt_clust_10="51.32298"></scales>
<clustering>
<clus scale="   47.734">  2  9  1 -1</clus>
<clus scale="   51.323">  1 10  2 -1</clus>
<clus scale="   91.242">  5  6 -1 -1</clus>
<clus scale="   92.134">  7  8 -1 -1</clus>
<clus scale="  108.732">  1  5  2 -1</clus>
<clus scale="   51.323">  1  5  2 -1</clus>
</clustering>
</event>
<event>
10    2  0.3544405E-006  0.1206186E+03  0.7546771E-02  0.1243168E+00
         21   -1    0    0  501  502  0.00000000000E+00  0.00000000000E+00  0.62580595475E+02  0.62580595475E+02  0.00000000000E+00 0.  1.
          4   -1    0    0  503    0 -0.00000000000E+00 -0.00000000000E+00 -0.38164683780E+03  0.38164683780E+03  0.00000000000E+00 0. -1.
         23    2    1    2    0    0  0.67031922531E+02  0.19405723617E+02 -0.12109406147E+03  0.16722684461E+03  0.91821484893E+02 0.  0.
         23    2    1    2    0    0 -0.81038264638E+02 -0.36291383499E+01 -0.95303624489E+02  0.15722837753E+03  0.95171481440E+02 0.  0.
        -13    1    3    3    0    0 -0.14055168162E+02  0.19087851290E+02 -0.28852846088E+01  0.23879252212E+02  0.00000000000E+00 0.  1.
         13    1    3    3    0    0  0.81087090693E+02  0.31787232733E+00 -0.11820877686E+03  0.14334759240E+03  0.00000000000E+00 0. -1.
        -13    1    4    4    0    0 -0.40128211518E+02  0.14563747551E+02 -0.10327610486E+03  0.11175119658E+03  0.00000000000E+00 0. -1.
         13    1    4    4    0    0 -0.40910053120E+02 -0.18192885901E+02  0.79724803724E+01  0.45477180948E+02  0.00000000000E+00 0.  1.
         21    1    1    2  503  502 -0.20187189761E+02 -0.17012093795E+01 -0.16936435897E+02  0.26405673722E+02  0.00000000000E+00 0. -1.
          4    1    1    2  501    0  0.34193531868E+02 -0.14075375888E+02 -0.85732120477E+02  0.93366537418E+02  0.00000000000E+00 0. -1.
<scales pt_clust_5="13000.00000" pt_clust_6="13000.00000" pt_clust_7="13000.00000" pt_clust_8="13000.00000" pt_clust_9="20.25874" pt_clust_10="35.79332"></scales>
<clustering>
<clus scale="   20.259">  1  9  2 -1</clus>
<clus scale="   35.793">  1 10  2 -1</clus>
<clus scale="   91.821">  5  6 -1 -1</clus>
<clus scale="   95.171">  7  8 -1 -1</clus>
<clus scale="  117.993">  2  5  1 -1</clus>
<clus scale="   20.259">  1  5  2 -1</clus>
</clustering>
</event>
<event>
10    2  0.3544405E-006  0.9895243E+02  0.7546771E-02  0.1284121E+00
         21   -1    0    0  501  502  0.00000000000E+00  0.00000000000E+00  0.11500581332E+03  0.11500581332E+03  0.00000000000E+00 0.  1.
          2   -1    0    0  503    0 -0.00000000000E+00 -0.00000000000E+00 -0.44506833241E+03  0.44506833241E+03  0.00000000000E+00 0. -1.
         23    2    1    2    0    0  0.18668724002E+02  0.84130510226E+02 -0.20825614657E+03  0.24369047175E+03  0.92671243826E+02 0.  0.
         23    2    1    2    0    0  0.41088464248E+02 -0.67432308657E+01  0.29714952866E+02  0.10308636131E+03  0.89499086068E+02 0.  0.
        -13    1    3    3    0    0  0.53582628357E+02  0.65489088544E+02 -0.11864150210E+03  0.14572482561E+03  0.00000000000E+00 0.  1.
         13    1    3    3    0    0 -0.34913904355E+02  0.18641421682E+02 -0.89614644469E+02  0.97965646137E+02  0.00000000000E+00 0. -1.
        -13    1    4    4    0    0  0.68045553209E+02 -0.16433986264E+02  0.22747380303E+02  0.73605139268E+02  0.00000000000E+00 0.  1.
         13    1    4    4    0    0 -0.26957088961E+02  0.96907553983E+01  0.69675725631E+01  0.29481222039E+02  0.00000000000E+00 0. -1.
         21    1    1    2  503  502 -0.23948947919E+02 -0.55994012294E+02 -0.15958707060E+03  0.17081251307E+03  0.00000000000E+00 0. -1.
          2    1    1    2  501    0 -0.35808240331E+02 -0.21393267066E+02  0.80657452105E+01  0.42484799601E+02  0.00000000000E+00 0. -1.
<scales pt_clust_5="13000.00000" pt_clust_6="13000.00000" pt_clust_7="13000.00000" pt_clust_8="13000.00000" pt_clust_9="63.03040" pt_clust_10="41.71213"></scales>
<clustering>
<clus scale="   41.712">  1 10  2 -1</clus>
<clus scale="   63.030">  2  9  1 -1</clus>
<clus scale="   89.499">  7  8 -1 -1</clus>
<clus scale="   92.671">  5  6 -1 -1</clus>
<clus scale="   95.988">  1  7  2 -1</clus>
<clus scale="   41.712">  1  5  2 -1</clus>
</clustering>
</event>
<event>
10    2  0.3544405E-006  0.2622639E+03  0.7546771E-02  0.1105923E+00
         21   -1    0    0  501  502  0.00000000000E+00  0.00000000000E+00  0.28584156092E+03  0.28584156092E+03  0.00000000000E+00 0. -1.
          2   -1    0    0  503    0 -0.00000000000E+00 -0.00000000000E+00 -0.43636328922E+03  0.43636328922E+03  0.00000000000E+00 0. -1.
         23    2    1    2    0    0  0.23021617544E+03 -0.73456244759E+02 -0.11105831071E+03  0.28135763942E+03  0.91830635157E+02 0.  0.
         23    2    1    2    0    0 -0.22362010655E+03  0.86648435333E+02 -0.70355659334E+01  0.25599138123E+03  0.89264688856E+02 0.  0.
        -11    1    3    3    0    0  0.20694844418E+03 -0.94004447085E+02 -0.10098807284E+03  0.24872290903E+03  0.00000000000E+00 0. -1.
         11    1    3    3    0    0  0.23267731260E+02  0.20548202326E+02 -0.10070237869E+02  0.32634730389E+02  0.00000000000E+00 0.  1.
        -13    1    4    4    0    0 -0.16969484830E+03  0.21467929480E+02  0.63562972951E+00  0.17104858245E+03  0.00000000000E+00 0.  1.
         13    1    4    4    0    0 -0.53925258258E+02  0.65180505853E+02 -0.76711956630E+01  0.84942798779E+02  0.00000000000E+00 0. -1.
         21    1    1    2  503  502  0.40372697013E+02 -0.22218070942E+02 -0.95301452705E+02  0.10585822702E+03  0.00000000000E+00 0.  1.
          2    1    1    2  501    0 -0.46968765899E+02  0.90258803676E+01  0.62873601048E+02  0.78997602465E+02  0.00000000000E+00 0. -1.
<scales pt_clust_5="13000.00000" pt_clust_6="13000.00000" pt_clust_7="13000.00000" pt_clust_8="13000.00000" pt_clust_9="46.08251" pt_clust_10="46.77681"></scales>
<clustering>
<clus scale="   46.083">  2  9  1 -1</clus>
<clus scale="   46.777">  1 10  2 -1</clus>
<clus scale="   89.265">  7  8 -1 -1</clus>
<clus scale="   91.831">  5  6 -1 -1</clus>
<clus scale="  261.376">  1  7  2 -1</clus>
<clus scale="   46.777">  1  5  2 -1</clus>
</clustering>
</event>
<event>
10    2  0.3544405E-006  0.1248564E+03  0.7546771E-02  0.1235385E+00
         21   -1    0    0  503  502  0.00000000000E+00  0.00000000000E+00  0.14709961926E+03  0.14709961926E+03  0.00000000000E+00 0.  1.
          3   -1    0    0  502    0 -0.00000000000E+00 -0.00000000000E+00 -0.29136564158E+03  0.29136564158E+03  0.00000000000E+00 0. -1.
         23    2    1    2    0    0  0.15080676199E+01 -0.66153268757E+02 -0.10058705811E+03  0.15202588026E+03  0.92820163614E+02 0.  0.
         23    2    1    2    0    0 -0.59629475691E+02  0.10918232340E+03 -0.70038905205E+02  0.17011559693E+03  0.92506291477E+02 0.  0.
        -11    1    3    3    0    0  0.37616632307E+02 -0.47498706858E+02 -0.92514007056E+02  0.11058923854E+03  0.00000000000E+00 0. -1.
         11    1    3    3    0    0 -0.36108564687E+02 -0.18654561899E+02 -0.80730510546E+01  0.41436641717E+02  0.00000000000E+00 0.  1.
        -13    1    4    4    0    0 -0.60535944610E+02  0.21712525691E+02 -0.47006760978E+02  0.79659713403E+02  0.00000000000E+00 0. -1.
         13    1    4    4    0    0  0.90646891918E+00  0.87469797712E+02 -0.23032144227E+02  0.90455883531E+02  0.00000000000E+00 0.  1.
         21    1    1    2  503  501  0.94454916570E+01  0.23757131440E+02 -0.80509737819E+01  0.26803671124E+02  0.00000000000E+00 0. -1.
          3    1    1    2  501    0  0.48675916414E+02 -0.66786186085E+02  0.34410914780E+02  0.89520112525E+02  0.00000000000E+00 0. -1.
<scales pt_clust_5="13000.00000" pt_clust_6="13000.00000" pt_clust_7="13000.00000" pt_clust_8="13000.00000" pt_clust_9="25.56597" pt_clust_10="77.12344"></scales>
<clustering>
<clus scale="   25.566">  1  9  2 -1</clus>
<clus scale="   77.123">  1 10  2 -1</clus>
<clus scale="   92.506">  7  8 -1 -1</clus>
<clus scale="   92.820">  5  6 -1 -1</clus>
<clus scale="  124.623">  1  7  2 -1</clus>
<clus scale="   25.566">  1  5  2 -1</clus>
</clustering>
</event>
<event>
10    2  0.3544405E-006  0.9618446E+02  0.7546771E-02  0.1289266E+00
         21   -1    0    0  503  502  0.00000000000E+00  0.00000000000E+00  0.67234094205E+02  0.67234094205E+02  0.00000000000E+00 0. -1.
         -2   -1    0    0    0  501 -0.00000000000E+00 -0.00000000000E+00 -0.53925613780E+03  0.53925613780E+03  0.00000000000E+00 0.  1.
         23    2    1    2    0    0  0.23152050769E+02 -0.11743182583E+02 -0.17308722358E+03  0.19691534054E+03  0.90236049229E+02 0.  0.
         23    2    1    2    0    0 -0.37123008748E+02 -0.36167073036E+01 -0.19602574609E+03  0.21957194431E+03  0.91621761857E+02 0.  0.
        -11    1    3    3    0    0  0.55500229249E+02 -0.20360116784E+02 -0.94124808944E+02  0.11114985138E+03  0.00000000000E+00 0.  1.
         11    1    3    3    0    0 -0.32348178480E+02  0.86169342011E+01 -0.78962414633E+02  0.85765489159E+02  0.00000000000E+00 0. -1.
        -13    1    4    4    0    0  0.66603811950E+01 -0.32578280577E+02 -0.13518376194E+03  0.13921334180E+03  0.00000000000E+00 0.  1.
         13    1    4    4    0    0 -0.43783389943E+02  0.28961573274E+02 -0.60841984154E+02  0.80358602509E+02  0.00000000000E+00 0. -1.
         21    1    1    2  503  501 -0.39629321789E+02  0.88994985699E+01 -0.12517788078E+03  0.13160237862E+03  0.00000000000E+00 0. -1.
         -2    1    1    2    0  502  0.53600279768E+02  0.64603913169E+01  0.22268806860E+02  0.58400568543E+02  0.00000000000E+00 0.  1.
<scales pt_clust_5="13000.00000" pt_clust_6="13000.00000" pt_clust_7="13000.00000" pt_clust_8="13000.00000" pt_clust_9="40.61630" pt_clust_10="52.30845"></scales>
<clustering>
<clus scale="   40.616">  2  9  1 -1</clus>
<clus scale="   52.308">  1 10  2 -1</clus>
<clus scale="   90.236">  5  6 -1 -1</clus>
<clus scale="   91.622">  7  8 -1 -1</clus>
<clus scale="   94.865">  2  5  1 -1</clus>
<clus scale="   52.308">  1  5  2 -1</clus>
</clustering>
</event>
<event>
10    2  0.3544405E-006  0.1347757E+03  0.7546771E-02  0.1226346E+00
          2   -1    0    0  503    0 -0.00000000000E+00  0.00000000000E+00  0.16140174978E+03  0.16140174978E+03  0.00000000000E+00 0. -1.
         21   -1    0    0  501  502  0.00000000000E+00 -0.00000000000E+00 -0.43630859216E+03  0.43630859216E+03  0.00000000000E+00 0. -1.
         23    2    1    2    0    0 -0.43887988033E+02 -0.11895078542E+02  0.10900797062E+02  0.10243845608E+03  0.91143631261E+02 0.  0.
         23    2    1    2    0    0  0.12435357341E+03 -0.29544339265E+02  0.59507236108E+01  0.16908940518E+03  0.11054020368E+03 0.  0.
        -11    1    4    4    0    0 -0.95832183791E+01 -0.28096790069E+02  0.17813282258E+02  0.34620524425E+02  0.00000000000E+00 0.  1.
         11    1    4    4    0    0  0.13393679179E+03 -0.14475491964E+01 -0.11862558647E+02  0.13446888076E+03  0.00000000000E+00 0. -1.
        -11    1    3    3    0    0 -0.49955679395E+02  0.30451913855E+02  0.93230583931E+00  0.58512888797E+02  0.00000000000E+00 0.  1.
         11    1    3    3    0    0  0.60676913616E+01 -0.42346992397E+02  0.99684912229E+01  0.43925567279E+02  0.00000000000E+00 0. -1.
         21    1    1    2  503  502 -0.23872687354E+02  0.39812326251E+01  0.23772771931E+01  0.24318858146E+02  0.00000000000E+00 0. -1.
          2    1    1    2  501    0 -0.56592898026E+02  0.37458185182E+02 -0.29413564025E+03  0.30186362253E+03  0.00000000000E+00 0. -1.
<scales pt_clust_5="13000.00000" pt_clust_6="13000.00000" pt_clust_7="13000.00000" pt_clust_8="13000.00000" pt_clust_9="24.20238" pt_clust_10="68.44395"></scales>
<clustering>
<clus scale="   24.202">  1  9  2 -1</clus>
<clus scale="   68.444">  2 10  1 -1</clus>
<clus scale="   91.144">  7  8 -1 -1</clus>
<clus scale="  110.540">  5  6 -1 -1</clus>
<clus scale="  119.384">  1  7  2 -1</clus>
<clus scale="   68.444">  2  5  1 -1</clus>
</clustering>
</event>
<event>
10    2  0.3544405E-006  0.2101653E+03  0.7546771E-02  0.1160233E+00
         21   -1    0    0  501  502  0.00000000000E+00  0.00000000000E+00  0.35884664730E+03  0.35884664730E+03  0.00000000000E+00 0. -1.
          2   -1    0    0  503    0 -0.00000000000E+00 -0.00000000000E+00 -0.69063219089E+03  0.69063219089E+03  0.00000000000E+00 0. -1.
         23    2    1    2    0    0 -0.64017116720E+02  0.75086610859E+02 -0.16162084415E+03  0.21003186374E+03  0.90861962113E+02 0.  0.
         23    2    1    2    0    0  0.24709079797E+03 -0.11601316854E+03 -0.41511785989E+03  0.50569338416E+03  0.94287027025E+02 0.  0.
        -11    1    4    4    0    0  0.13843168226E+03 -0.11428085081E+03 -0.27433501697E+03  0.32784622165E+03  0.00000000000E+00 0.  1.
         11    1    4    4    0    0  0.10865911571E+03 -0.17323177384E+01 -0.14078284292E+03  0.17784716251E+03  0.00000000000E+00 0. -1.
        -11    1    3    3    0    0 -0.26459074537E+02 -0.10933722982E+02 -0.75275522803E+01  0.29602245978E+02  0.00000000000E+00 0.  1.
         11    1    3    3    0    0 -0.37558042183E+02  0.86020333841E+02 -0.15409329187E+03  0.18042961776E+03  0.00000000000E+00 0. -1.
         21    1    1    2  503  502 -0.48002813709E+02 -0.28749788489E+02  0.14681374913E+02  0.57847759088E+02  0.00000000000E+00 0.  1.
          2    1    1    2  501    0 -0.13507086755E+03  0.69676346174E+02  0.23027178554E+03  0.27590583120E+03  0.00000000000E+00 0. -1.
<scales pt_clust_5="13000.00000" pt_clust_6="13000.00000" pt_clust_7="13000.00000" pt_clust_8="13000.00000" pt_clust_9="55.95374" pt_clust_10="187.82809"></scales>
<clustering>
<clus scale="   55.954">  1  9  2 -1</clus>
<clus scale="   90.862">  7  8 -1 -1</clus>
<clus scale="   94.287">  5  6 -1 -1</clus>
<clus scale="  134.711">  2  7  1 -1</clus>
<clus scale="  187.828">  1 10  2 -1</clus>
<clus scale="   55.954">  1  5  2 -1</clus>
</clustering>
</event>
<event>
10    2  0.3544405E-006  0.1782176E+03  0.7546771E-02  0.1169874E+00
         -1   -1    0    0    0  501 -0.00000000000E+00  0.00000000000E+00  0.49265987642E+03  0.49265987642E+03  0.00000000000E+00 0.  1.
         21   -1    0    0  501  502  0.00000000000E+00 -0.00000000000E+00 -0.22939084981E+03  0.22939084981E+03  0.00000000000E+00 0.  1.
         23    2    1    2    0    0 -0.32584174086E+02  0.14842948671E+03  0.32850475442E+03  0.37329371516E+03  0.91322413332E+02 0.  0.
         23    2    1    2    0    0  0.14715167627E+03 -0.11284354307E+03 -0.63458828273E+02  0.21733977241E+03  0.93926954305E+02 0.  0.
        -13    1    3    3    0    0  0.86027663055E+01  0.74822603818E+02  0.23775575016E+03  0.24939973209E+03  0.00000000000E+00 0. -1.
         13    1    3    3    0    0 -0.41186940391E+02  0.73606882895E+02  0.90749004253E+02  0.12389398307E+03  0.00000000000E+00 0.  1.
        -13    1    4    4    0    0  0.70646562013E+02 -0.36185423508E+02 -0.74008237660E+02  0.10852437901E+03  0.00000000000E+00 0.  1.
         13    1    4    4    0    0  0.76505114258E+02 -0.76658119562E+02  0.10549409387E+02  0.10881539340E+03  0.00000000000E+00 0. -1.
         21    1    1    2  503  502 -0.30755593482E+02 -0.34364083569E+02  0.87436618054E+01  0.46938772797E+02  0.00000000000E+00 0. -1.
         -1    1    1    2    0  503 -0.83811908704E+02 -0.12218600741E+01 -0.10520561340E+02  0.84478465857E+02  0.00000000000E+00 0.  1.
<scales pt_clust_5="13000.00000" pt_clust_6="13000.00000" pt_clust_7="13000.00000" pt_clust_8="13000.00000" pt_clust_9="39.77354" pt_clust_10="131.40523"></scales>
<clustering>
<clus scale="   39.774">  9 10 -1 -1</clus>
<clus scale="   91.322">  5  6 -1 -1</clus>
<clus scale="   93.927">  7  8 -1 -1</clus>
<clus scale="  131.405">  2  9  1 -1</clus>
<clus scale="  176.859">  1  5  2 -1</clus>
<clus scale="  131.405">  2  5  1 -1</clus>
</clustering>
</event>
<event>
10    2  0.3544405E-006  0.9740533E+02  0.7546771E-02  0.1286570E+00
         21   -1    0    0  503  502  0.00000000000E+00  0.00000000000E+00  0.80986434021E+02  0.80986434021E+02  0.00000000000E+00 0. -1.
         -2   -1    0    0    0  501 -0.00000000000E+00 -0.00000000000E+00 -0.31576710225E+03  0.31576710225E+03  0.00000000000E+00 0.  1.
         23    2    1    2    0    0 -0.58746647608E+02  0.43321250408E+01 -0.19764522689E+03  0.22551608108E+03  0.91235580787E+02 0.  0.
         23    2    1    2    0    0  0.28708079082E+02 -0.17709342969E+02 -0.11619992414E+02  0.96656499969E+02  0.89831398350E+02 0.  0.
        -11    1    4    4    0    0  0.46839764241E+02 -0.28296580499E+02  0.20369819128E+02  0.58391690448E+02  0.00000000000E+00 0. -1.
         11    1    4    4    0    0 -0.18131685158E+02  0.10587237530E+02 -0.31989811541E+02  0.38264809521E+02  0.00000000000E+00 0.  1.
        -11    1    3    3    0    0  0.22120228475E+02  0.76370625054E+01 -0.21990547732E+02  0.32112511908E+02  0.00000000000E+00 0. -1.
         11    1    3    3    0    0 -0.80866876083E+02 -0.33049374646E+01 -0.17565467916E+03  0.19340356917E+03  0.00000000000E+00 0.  1.
         21    1    1    2  503  501  0.32555417320E+02 -0.84789110759E+01 -0.36796202590E+02  0.49856871692E+02  0.00000000000E+00 0. -1.
         -2    1    1    2    0  502 -0.25168487935E+01  0.21856129004E+02  0.11280753667E+02  0.24724083526E+02  0.00000000000E+00 0.  1.
<scales pt_clust_5="13000.00000" pt_clust_6="13000.00000" pt_clust_7="13000.00000" pt_clust_8="13000.00000" pt_clust_9="32.88665" pt_clust_10="22.00057"></scales>
<clustering>
<clus scale="   22.001">  1 10  2 -1</clus>
<clus scale="   32.887">  2  9  1 -1</clus>
<clus scale="   89.831">  5  6 -1 -1</clus>
<clus scale="   91.236">  7  8 -1 -1</clus>
<clus scale="   96.091">  1  5  2 -1</clus>
<clus scale="   22.001">  1  5  2 -1</clus>
</clustering>
</event>
<event>
10    2  0.3544405E-006  0.1625255E+03  0.7546771E-02  0.1186005E+00
         21   -1    0    0  501  502  0.00000000000E+00  0.00000000000E+00  0.46890913525E+02  0.46890913525E+02  0.00000000000E+00 0. -1.
          2   -1    0    0  503    0 -0.00000000000E+00 -0.00000000000E+00 -0.16884456676E+04  0.16884456676E+04  0.00000000000E+00 0. -1.
         23    2    1    2    0    0 -0.70775655642E+02 -0.94235166592E+02 -0.70329853099E+03  0.71869111221E+03  0.89435065939E+02 0.  0.
         23    2    1    2    0    0 -0.19538925001E+02  0.18591415872E+03 -0.74763230756E+03  0.77591930259E+03  0.90282073614E+02 0.  0.
        -11    1    4    4    0    0  0.27063774399E+02  0.42917770003E+02 -0.11570277340E+03  0.12633888807E+03  0.00000000000E+00 0.  1.
         11    1    4    4    0    0 -0.46602699401E+02  0.14299638871E+03 -0.63192953416E+03  0.64958041451E+03  0.00000000000E+00 0. -1.
        -13    1    3    3    0    0 -0.51320886382E+02 -0.10428374976E+03 -0.66016005745E+03  0.67031353507E+03  0.00000000000E+00 0.  1.
         13    1    3    3    0    0 -0.19454769259E+02  0.10048583166E+02 -0.43138473542E+02  0.48377577142E+02  0.00000000000E+00 0. -1.
         21    1    1    2  503  502  0.15014968999E+02 -0.14065193867E+02 -0.92317085150E+02  0.94581833262E+02  0.00000000000E+00 0.  1.
          2    1    1    2  501    0  0.75299611644E+02 -0.77613798257E+02 -0.98306830411E+02  0.14614433311E+03  0.00000000000E+00 0. -1.
<scales pt_clust_5="13000.00000" pt_clust_6="13000.00000" pt_clust_7="13000.00000" pt_clust_8="13000.00000" pt_clust_9="20.57374" pt_clust_10="109.71330"></scales>
<clustering>
<clus scale="   20.574">  2  9  1 -1</clus>
<clus scale="   89.435">  7  8 -1 -1</clus>
<clus scale="   90.282">  5  6 -1 -1</clus>
<clus scale="  109.713">  1 10  2 -1</clus>
<clus scale="  162.056">  2  7  1 -1</clus>
<clus scale="  109.713">  1  5  2 -1</clus>
</clustering>
</event>
<event>
10    2  0.3544405E-006  0.1144922E+03  0.7546771E-02  0.1252521E+00
         21   -1    0    0  503  502  0.00000000000E+00  0.00000000000E+00  0.63871396026E+02  0.63871396026E+02  0.00000000000E+00 0.  1.
         -1   -1    0    0    0  501 -0.00000000000E+00 -0.00000000000E+00 -0.99851474063E+03  0.99851474063E+03  0.00000000000E+00 0.  1.
         23    2    1    2    0    0  0.50207026343E+02  0.25177795058E+02 -0.35248353905E+03  0.36861618942E+03  0.92079221023E+02 0.  0.
         23    2    1    2    0    0 -0.87584681324E+02  0.28614512365E+02 -0.38824293741E+03  0.40954564780E+03  0.92223600379E+02 0.  0.
        -13    1    3    3    0    0 -0.12252066300E+02 -0.24231899043E+02 -0.11389323183E+03  0.11708529505E+03  0.00000000000E+00 0.  1.
         13    1    3    3    0    0  0.62459092643E+02  0.49409694100E+02 -0.23859030722E+03  0.25153089437E+03  0.00000000000E+00 0. -1.
        -13    1    4    4    0    0 -0.33525844163E+02  0.35591493309E+02 -0.62903452639E+02  0.79671707504E+02  0.00000000000E+00 0. -1.
         13    1    4    4    0    0 -0.54058837161E+02 -0.69769809438E+01 -0.32533948477E+03  0.32987394030E+03  0.00000000000E+00 0.  1.
         21    1    1    2  503  501  0.15041651615E+02 -0.24032509767E+02 -0.23038547638E+03  0.23212341661E+03  0.00000000000E+00 0. -1.
         -1    1    1    2    0  502  0.22336003367E+02 -0.29759797656E+02  0.36468608245E+02  0.52100882817E+02  0.00000000000E+00 0.  1.
<scales pt_clust_5="13000.00000" pt_clust_6="13000.00000" pt_clust_7="13000.00000" pt_clust_8="13000.00000" pt_clust_9="28.35159" pt_clust_10="37.49724"></scales>
<clustering>
<clus scale="   28.352">  2  9  1 -1</clus>
<clus scale="   37.497">  1 10  2 -1</clus>
<clus scale="   92.079">  5  6 -1 -1</clus>
<clus scale="   92.224">  7  8 -1 -1</clus>
<clus scale="  114.376">  2  5  1 -1</clus>
<clus scale="   37.497">  1  5  2 -1</clus>
</clustering>
</event>
<event>
10    2  0.1559040E-005  0.1441532E+03  0.7546771E-02  0.1208369E+00
         21   -1    0    0  503  502  0.00000000000E+00  0.00000000000E+00  0.28066525847E+03  0.28066525847E+03  0.00000000000E+00 0.  1.
         -3   -1    0    0    0  501 -0.00000000000E+00 -0.00000000000E+00 -0.64946259148E+03  0.64946259148E+03  0.00000000000E+00 0.  1.
         23    2    1    2    0    0 -0.90488344682E+02  0.64967688411E+02 -0.58272763059E+03  0.60037703192E+03  0.92044271634E+02 0.  0.
         23    2    1    2    0    0  0.71250530191E+02 -0.69660689695E+02  0.22240187527E+03  0.25962411917E+03  0.89514464698E+02 0.  0.
        -11    1    3    3    0    0 -0.10549428920E+03  0.37901090959E+02 -0.48853705305E+03  0.50123247097E+03  0.00000000000E+00 0.  1.
         11    1    3    3    0    0  0.15005944520E+02  0.27066597452E+02 -0.94190577537E+02  0.99144560947E+02  0.00000000000E+00 0. -1.
        -11    1    4    4    0    0  0.21423522281E+02 -0.56869201282E+02  0.18840299207E+03  0.19796151339E+03  0.00000000000E+00 0.  1.
         11    1    4    4    0    0  0.49827007910E+02 -0.12791488414E+02  0.33998883197E+02  0.61662605782E+02  0.00000000000E+00 0. -1.
         21    1    1    2  503  501  0.42411574583E+02 -0.74153257536E+01 -0.15645488246E+01  0.43083367182E+02  0.00000000000E+00 0.  1.
         -3    1    1    2    0  502 -0.23173760092E+02  0.12108327038E+02 -0.69070288651E+01  0.27043331678E+02  0.00000000000E+00 0.  1.
<scales pt_clust_5="13000.00000" pt_clust_6="13000.00000" pt_clust_7="13000.00000" pt_clust_8="13000.00000" pt_clust_9="41.14821" pt_clust_10="26.14641"></scales>
<clustering>
<clus scale="   26.146">  1 10  2 -1</clus>
<clus scale="   41.148">  1  9  2 -1</clus>
<clus scale="   89.514">  7  8 -1 -1</clus>
<clus scale="   92.044">  5  6 -1 -1</clus>
<clus scale="  142.551">  1  7  2 -1</clus>
<clus scale="   26.146">  1  5  2 -1</clus>
</clustering>
</event>
<event>
10    2  0.3544405E-006  0.9403346E+02  0.7546771E-02  0.1293896E+00
         -2   -1    0    0    0  501 -0.00000000000E+00  0.00000000000E+00  0.62938794998E+02  0.62938794998E+02  0.00000000000E+00 0.  1.
         21   -1    0    0  503  502  0.00000000000E+00 -0.00000000000E+00 -0.56356926189E+03  0.56356926189E+03  0.00000000000E+00 0.  1.
         23    2    1    2    0    0 -0.19515154788E+02  0.47847834170E+02 -0.54558714887E+02  0.11830646176E+03  0.91375647864E+02 0.  0.
         23    2    1    2    0    0  0.25036340340E+02  0.45274029849E+02 -0.11746105434E+03  0.15700573594E+03  0.90427571647E+02 0.  0.
        -13    1    4    4    0    0  0.17482710254E+02 -0.26468204477E+02 -0.30336118091E+02  0.43891810932E+02  0.00000000000E+00 0. -1.
         13    1    4    4    0    0  0.75536300859E+01  0.71742234326E+02 -0.87124936250E+02  0.11311392501E+03  0.00000000000E+00 0.  1.
        -13    1    3    3    0    0 -0.51708314910E+02  0.93678357236E+01 -0.40074079325E+02  0.66086594788E+02  0.00000000000E+00 0. -1.
         13    1    3    3    0    0  0.32193160121E+02  0.38479998447E+02 -0.14484635563E+02  0.52219866971E+02  0.00000000000E+00 0.  1.
         21    1    1    2  503  501  0.12444338151E+01 -0.25042016629E+02 -0.12976122403E+02  0.28231736840E+02  0.00000000000E+00 0.  1.
         -2    1    1    2    0  502 -0.67656193665E+01 -0.68079847390E+02 -0.31563457526E+03  0.32296412235E+03  0.00000000000E+00 0.  1.
<scales pt_clust_5="13000.00000" pt_clust_6="13000.00000" pt_clust_7="13000.00000" pt_clust_8="13000.00000" pt_clust_9="25.07292" pt_clust_10="70.05857"></scales>
<clustering>
<clus scale="   25.073">  1  9  2 -1</clus>
<clus scale="   70.059">  2 10  1 -1</clus>
<clus scale="   90.428">  5  6 -1 -1</clus>
<clus scale="   91.376">  7  8 -1 -1</clus>
<clus scale="   93.112">  2  5  1 -1</clus>
<clus scale="   70.059">  2  5  1 -1</clus>
</clustering>
</event>
<event>
10    2  0.3544405E-006  0.1481317E+03  0.7546771E-02  0.1203587E+00
          1   -1    0    0  503    0 -0.00000000000E+00  0.00000000000E+00  0.58990159494E+03  0.58990159494E+03  0.00000000000E+00 0. -1.
         21   -1    0    0  501  502  0.00000000000E+00 -0.00000000000E+00 -0.10066468418E+03  0.10066468418E+03  0.00000000000E+00 0. -1.
         23    2    1    2    0    0  0.89293198976E+02  0.76494417643E+01  0.18996385830E+03  0.23009101801E+03  0.93935189174E+02 0.  0.
         23    2    1    2    0    0 -0.14164229697E+03  0.44709320552E+02  0.25151812651E+03  0.30561775284E+03  0.89885367283E+02 0.  0.
        -11    1    4    4    0    0  0.42541254652E+00  0.25170846422E+02  0.15853514756E+02  0.29750401940E+02  0.00000000000E+00 0.  1.
         11    1    4    4    0    0 -0.14206770951E+03  0.19538474130E+02  0.23566461175E+03  0.27586735090E+03  0.00000000000E+00 0. -1.
        -13    1    3    3    0    0  0.91386678419E+02  0.34058265885E+02  0.11613819076E+03  0.15165609062E+03  0.00000000000E+00 0. -1.
         13    1    3    3    0    0 -0.20934794430E+01 -0.26408824120E+02  0.73825667535E+02  0.78434927390E+02  0.00000000000E+00 0.  1.
         21    1    1    2  503  502  0.17117821916E+02 -0.11204391647E+02  0.86092276619E+02  0.88489763887E+02  0.00000000000E+00 0. -1.
          1    1    1    2  501    0  0.35231276076E+02 -0.41154370669E+02 -0.38337350667E+02  0.66367744389E+02  0.00000000000E+00 0. -1.
<scales pt_clust_5="13000.00000" pt_clust_6="13000.00000" pt_clust_7="13000.00000" pt_clust_8="13000.00000" pt_clust_9="20.45870" pt_clust_10="54.72294"></scales>
<clustering>
<clus scale="   20.459">  1  9  2 -1</clus>
<clus scale="   54.723">  2 10  1 -1</clus>
<clus scale="   89.885">  5  6 -1 -1</clus>
<clus scale="   93.935">  7  8 -1 -1</clus>
<clus scale="  145.597">  2  5  1 -1</clus>
<clus scale="   54.723">  2  5  1 -1</clus>
</clustering>
</event>
<event>
10    2  0.3544405E-006  0.1103894E+03  0.7546771E-02  0.1266249E+00
         -3   -1    0    0    0  501 -0.00000000000E+00  0.00000000000E+00  0.30496156996E+03  0.30496156996E+03  0.00000000000E+00 0.  1.
         21   -1    0    0  503  502  0.00000000000E+00 -0.00000000000E+00 -0.11624553047E+03  0.11624553047E+03  0.00000000000E+00 0.  1.
         23    2    1    2    0    0  0.16479687506E+02  0.75478080212E+02  0.15386886740E+03  0.19628347552E+03  0.94249953400E+02 0.  0.
         23    2    1    2    0    0 -0.29246571893E+02 -0.25085460390E+02  0.57555793691E+02  0.10479585069E+03  0.78643872264E+02 0.  0.
        -13    1    3    3    0    0  0.26504103867E+02  0.93464997734E+02  0.14332843254E+03  0.17315083857E+03  0.00000000000E+00 0.  1.
         13    1    3    3    0    0 -0.10024416361E+02 -0.17986917522E+02  0.10540434856E+02  0.23132636950E+02  0.00000000000E+00 0. -1.
        -13    1    4    4    0    0 -0.14686435738E+02 -0.51861376897E+02  0.49709517166E+02  0.73323460810E+02  0.00000000000E+00 0. -1.
         13    1    4    4    0    0 -0.14560136155E+02  0.26775916507E+02  0.78462765257E+01  0.31472389884E+02  0.00000000000E+00 0.  1.
         21    1    1    2  503  501  0.10575678774E+02  0.19659287427E+02  0.26382045083E+02  0.34559294936E+02  0.00000000000E+00 0.  1.
         -3    1    1    2    0  502  0.21912056134E+01 -0.70051907249E+02 -0.49090666680E+02  0.85568479280E+02  0.00000000000E+00 0.  1.
<scales pt_clust_5="13000.00000" pt_clust_6="13000.00000" pt_clust_7="13000.00000" pt_clust_8="13000.00000" pt_clust_9="22.32336" pt_clust_10="68.80650"></scales>
<clustering>
<clus scale="   22.323">  1  9  2 -1</clus>
<clus scale="   68.807">  2 10  1 -1</clus>
<clus scale="   78.644">  7  8 -1 -1</clus>
<clus scale="   94.250">  5  6 -1 -1</clus>
<clus scale="   97.404">  2  7  1 -1</clus>
<clus scale="   68.807">  2  5  1 -1</clus>
</clustering>
</event>
<event>
10    2  0.3544405E-006  0.1684340E+03  0.7546771E-02  0.1179518E+00
         21   -1    0    0  503  502  0.00000000000E+00  0.00000000000E+00  0.12981546110E+03  0.12981546110E+03  0.00000000000E+00 0.  1.
         -4   -1    0    0    0  501 -0.00000000000E+00 -0.00000000000E+00 -0.67432809931E+03  0.67432809931E+03  0.00000000000E+00 0.  1.
         23    2    1    2    0    0 -0.10469945008E+03 -0.73741177464E+02 -0.17042917577E+03  0.23137565348E+03  0.89938050727E+02 0.  0.
         23    2    1    2    0    0  0.17941411602E+03 -0.53554438264E+02 -0.11581385071E+03  0.23774903499E+03  0.89745488682E+02 0.  0.
        -13    1    4    4    0    0  0.66006585469E+02 -0.25838541977E+02 -0.96001299696E+02  0.11933460990E+03  0.00000000000E+00 0. -1.
         13    1    4    4    0    0  0.11340753055E+03 -0.27715896286E+02 -0.19812551017E+02  0.11841442509E+03  0.00000000000E+00 0.  1.
        -13    1    3    3    0    0 -0.19173838323E+02 -0.66371600180E+02 -0.59979306608E+02  0.91489576497E+02  0.00000000000E+00 0.  1.
         13    1    3    3    0    0 -0.85525611754E+02 -0.73695772844E+01 -0.11044986916E+03  0.13988607698E+03  0.00000000000E+00 0. -1.
         21    1    1    2  503  501 -0.48921547874E+02  0.13881487303E+03 -0.26748522116E+03  0.30530514303E+03  0.00000000000E+00 0.  1.
         -4    1    1    2    0  502 -0.25793118066E+02 -0.11519257303E+02  0.92156094329E+01  0.29713728907E+02  0.00000000000E+00 0.  1.
<scales pt_clust_5="13000.00000" pt_clust_6="13000.00000" pt_clust_7="13000.00000" pt_clust_8="13000.00000" pt_clust_9="146.86984" pt_clust_10="28.24851"></scales>
<clustering>
<clus scale="   28.249">  1 10  2 -1</clus>
<clus scale="   89.745">  5  6 -1 -1</clus>
<clus scale="   89.938">  7  8 -1 -1</clus>
<clus scale="  146.870">  2  9  1 -1</clus>
<clus scale="  168.331">  1  5  2 -1</clus>
<clus scale="   28.249">  1  5  2 -1</clus>
</clustering>
</event>
<event>
10    2  0.3544405E-006  0.1533649E+03  0.7546771E-02  0.1196514E+00
          2   -1    0    0  503    0 -0.00000000000E+00  0.00000000000E+00  0.21218390281E+03  0.21218390281E+03  0.00000000000E+00 0. -1.
         21   -1    0    0  501  502  0.00000000000E+00 -0.00000000000E+00 -0.67651099889E+03  0.67651099889E+03  0.00000000000E+00 0. -1.
         23    2    1    2    0    0  0.14735821597E+03  0.31932978037E+02  0.13687276693E+03  0.22302960092E+03  0.90960923784E+02 0.  0.
         23    2    1    2    0    0 -0.63489715038E+02 -0.66804993623E+02 -0.19479172044E+03  0.23365126893E+03  0.90306422994E+02 0.  0.
        -11    1    4    4    0    0  0.45476587045E+01 -0.23444783234E+02 -0.11900179568E+01  0.23911403207E+02  0.00000000000E+00 0. -1.
         11    1    4    4    0    0 -0.68037373743E+02 -0.43360210389E+02 -0.19360170248E+03  0.20973986573E+03  0.00000000000E+00 0.  1.
        -13    1    3    3    0    0  0.15166167058E+02 -0.26405006385E+02  0.34090624785E+02  0.45710039200E+02  0.00000000000E+00 0.  1.
         13    1    3    3    0    0  0.13219204891E+03  0.58337984422E+02  0.10278214215E+03  0.17731956172E+03  0.00000000000E+00 0. -1.
         21    1    1    2  503  502 -0.20886194586E+02 -0.16587088299E+01 -0.19364348658E+01  0.21041250420E+02  0.00000000000E+00 0.  1.
          2    1    1    2  501    0 -0.62982306347E+02  0.36530724416E+02 -0.40447170771E+03  0.41097278143E+03  0.00000000000E+00 0. -1.
<scales pt_clust_5="13000.00000" pt_clust_6="13000.00000" pt_clust_7="13000.00000" pt_clust_8="13000.00000" pt_clust_9="20.95196" pt_clust_10="73.08651"></scales>
<clustering>
<clus scale="   20.952">  1  9  2 -1</clus>
<clus scale="   73.087">  2 10  1 -1</clus>
<clus scale="   90.306">  5  6 -1 -1</clus>
<clus scale="   90.961">  7  8 -1 -1</clus>
<clus scale="  152.978">  2  5  1 -1</clus>
<clus scale="   73.087">  2  5  1 -1</clus>
</clustering>
</event>
<event>
10    2  0.3544405E-006  0.1951666E+03  0.7546771E-02  0.1160681E+00
         21   -1    0    0  503  502  0.00000000000E+00  0.00000000000E+00  0.25044429610E+03  0.25044429610E+03  0.00000000000E+00 0. -1.
         -3   -1    0    0    0  501 -0.00000000000E+00 -0.00000000000E+00 -0.70494869105E+03  0.70494869105E+03  0.00000000000E+00 0.  1.
         23    2    1    2    0    0 -0.99310484324E+02 -0.15543726200E+03 -0.47168878930E+03  0.51437067411E+03  0.89797336942E+02 0.  0.
         23    2    1    2    0    0 -0.76103748311E+02  0.13829681545E+03  0.10301041135E+03  0.21012945921E+03  0.92873328317E+02 0.  0.
        -11    1    3    3    0    0 -0.83424313266E+02 -0.86303226266E+02 -0.19715199829E+03  0.23081761921E+03  0.00000000000E+00 0.  1.
         11    1    3    3    0    0 -0.15886171058E+02 -0.69134035736E+02 -0.27453679100E+03  0.28355305490E+03  0.00000000000E+00 0. -1.
        -13    1    4    4    0    0 -0.22130197050E+02  0.10374383635E+02 -0.14339846428E+02  0.28337336728E+02  0.00000000000E+00 0.  1.
         13    1    4    4    0    0 -0.53973551261E+02  0.12792243181E+03  0.11735025778E+03  0.18179212249E+03  0.00000000000E+00 0. -1.
         21    1    1    2  503  501  0.16566486379E+03  0.47093179616E+02 -0.42619978640E+02  0.17742344050E+03  0.00000000000E+00 0.  1.
         -3    1    1    2    0  502  0.97493688469E+01 -0.29952733060E+02 -0.43206038360E+02  0.53469413327E+02  0.00000000000E+00 0.  1.
<scales pt_clust_5="13000.00000" pt_clust_6="13000.00000" pt_clust_7="13000.00000" pt_clust_8="13000.00000" pt_clust_9="173.28137" pt_clust_10="31.49948"></scales>
<clustering>
<clus scale="   31.499">  1 10  2 -1</clus>
<clus scale="   89.797">  5  6 -1 -1</clus>
<clus scale="   92.873">  7  8 -1 -1</clus>
<clus scale="  166.471">  1  7  2 -1</clus>
<clus scale="  173.281">  1  9  2 -1</clus>
<clus scale="   31.499">  1  5  2 -1</clus>
</clustering>
</event>
<event>
10    2  0.3544405E-006  0.1017951E+03  0.7546771E-02  0.1284436E+00
         21   -1    0    0  501  502  0.00000000000E+00  0.00000000000E+00  0.29595886428E+03  0.29595886428E+03  0.00000000000E+00 0.  1.
          2   -1    0    0  503    0 -0.00000000000E+00 -0.00000000000E+00 -0.22881238763E+03  0.22881238763E+03  0.00000000000E+00 0. -1.
         23    2    1    2    0    0 -0.78807096022E+01 -0.24797381043E+01 -0.71891530964E+02  0.10736397924E+03  0.79311897782E+02 0.  0.
         23    2    1    2    0    0 -0.49608105275E+02  0.83208913952E+02 -0.63652530350E+02  0.14969061490E+03  0.94715089086E+02 0.  0.
        -11    1    3    3    0    0 -0.77223359693E+01  0.24520984152E+02  0.47160548615E+01  0.26137220779E+02  0.00000000000E+00 0. -1.
         11    1    3    3    0    0 -0.15837363291E+00 -0.27000722257E+02 -0.76607585826E+02  0.81226758464E+02  0.00000000000E+00 0.  1.
        -13    1    4    4    0    0 -0.55223906735E+02  0.35439018337E+02  0.50648236485E+01  0.65812281030E+02  0.00000000000E+00 0.  1.
         13    1    4    4    0    0  0.56158014598E+01  0.47769895614E+02 -0.68717353999E+02  0.83878333875E+02  0.00000000000E+00 0. -1.
         21    1    1    2  503  502  0.37186809669E+02 -0.93838786207E+01 -0.12310048620E+02  0.40279688285E+02  0.00000000000E+00 0.  1.
          2    1    1    2  501    0  0.20302005208E+02 -0.71345297227E+02  0.21500058658E+03  0.22743696947E+03  0.00000000000E+00 0. -1.
<scales pt_clust_5="13000.00000" pt_clust_6="13000.00000" pt_clust_7="13000.00000" pt_clust_8="13000.00000" pt_clust_9="38.35252" pt_clust_10="74.77422"></scales>
<clustering>
<clus scale="   38.353">  2  9  1 -1</clus>
<clus scale="   74.774">  1 10  2 -1</clus>
<clus scale="   79.312">  5  6 -1 -1</clus>
<clus scale="   87.645">  2  5  1 -1</clus>
<clus scale="   94.715">  7  8 -1 -1</clus>
<clus scale="   74.774">  1  5  2 -1</clus>
</clustering>
</event>
<event>
10    2  0.3544405E-006  0.2067529E+03  0.7546771E-02  0.1144199E+00
         21   -1    0    0  501  502  0.00000000000E+00  0.00000000000E+00  0.92291700582E+02  0.92291700582E+02  0.00000000000E+00 0.  1.
          1   -1    0    0  503    0 -0.00000000000E+00 -0.00000000000E+00 -0.80614916458E+03  0.80614916458E+03  0.00000000000E+00 0. -1.
         23    2    1    2    0    0  0.15291155963E+03  0.68295940155E+02 -0.27836591211E+03  0.33718941198E+03  0.90348425635E+02 0.  0.
         23    2    1    2    0    0 -0.21106019707E+03 -0.59133693155E+02 -0.32042933497E+03  0.39869110594E+03  0.90754827947E+02 0.  0.
        -11    1    3    3    0    0 -0.56106348141E+01  0.24015523989E+02 -0.49286199975E+02  0.55112195778E+02  0.00000000000E+00 0.  1.
         11    1    3    3    0    0  0.15852219444E+03  0.44280416167E+02 -0.22907971214E+03  0.28207721620E+03  0.00000000000E+00 0. -1.
        -13    1    4    4    0    0 -0.14936735640E+03  0.33748604114E+01 -0.20095781999E+03  0.25041174544E+03  0.00000000000E+00 0.  1.
         13    1    4    4    0    0 -0.61692840670E+02 -0.62508553566E+02 -0.11947151498E+03  0.14827936050E+03  0.00000000000E+00 0. -1.
         21    1    1    2  503  502 -0.19515873622E+02 -0.16113273657E+02 -0.65368048976E+02  0.70096281914E+02  0.00000000000E+00 0. -1.
          1    1    1    2  501    0  0.77664511058E+02  0.69510266560E+01 -0.49694167938E+02  0.92464065326E+02  0.00000000000E+00 0. -1.
<scales pt_clust_5="13000.00000" pt_clust_6="13000.00000" pt_clust_7="13000.00000" pt_clust_8="13000.00000" pt_clust_9="25.30824" pt_clust_10="75.97808"></scales>
<clustering>
<clus scale="   25.308">  2  9  1 -1</clus>
<clus scale="   75.978">  1 10  2 -1</clus>
<clus scale="   90.348">  5  6 -1 -1</clus>
<clus scale="   90.755">  7  8 -1 -1</clus>
<clus scale="  206.575">  2  5  1 -1</clus>
<clus scale="   75.978">  1  5  2 -1</clus>
</clustering>
</event>
<event>
10    2  0.3544405E-006  0.1138574E+03  0.7546771E-02  0.1263482E+00
          3   -1    0    0  503    0 -0.00000000000E+00  0.00000000000E+00  0.47626054055E+03  0.47626054055E+03  0.00000000000E+00 0. -1.
         21   -1    0    0  501  502  0.00000000000E+00 -0.00000000000E+00 -0.12969238768E+03  0.12969238768E+03  0.00000000000E+00 0. -1.
         23    2    1    2    0    0 -0.45131991882E+02  0.29702486742E+02  0.32428252827E+03  0.33900891367E+03  0.82757180948E+02 0.  0.
         23    2    1    2    0    0  0.11772460044E+02 -0.64977144815E+00  0.89320853351E+02  0.13838658851E+03  0.10504103969E+03 0.  0.
        -11    1    4    4    0    0 -0.30546090372E+02  0.19792738122E+02  0.83426671843E+02  0.91021017871E+02  0.00000000000E+00 0. -1.
         11    1    4    4    0    0  0.42318550416E+02 -0.20442509570E+02  0.58941815075E+01  0.47365570644E+02  0.00000000000E+00 0.  1.
        -13    1    3    3    0    0 -0.27194980595E+02  0.57251112345E+02  0.24746645078E+03  0.25545430334E+03  0.00000000000E+00 0. -1.
         13    1    3    3    0    0 -0.17937011288E+02 -0.27548625604E+02  0.76816077495E+02  0.83554610335E+02  0.00000000000E+00 0.  1.
         21    1    1    2  503  502 -0.66516838042E+01  0.20701575316E+02  0.13644952150E+02  0.25670699974E+02  0.00000000000E+00 0. -1.
          3    1    1    2  501    0  0.40011215642E+02 -0.49754290610E+02 -0.80680180896E+02  0.10288672607E+03  0.00000000000E+00 0. -1.
<scales pt_clust_5="13000.00000" pt_clust_6="13000.00000" pt_clust_7="13000.00000" pt_clust_8="13000.00000" pt_clust_9="21.74397" pt_clust_10="49.12258"></scales>
<clustering>
<clus scale="   21.744">  2  9  1 -1</clus>
<clus scale="   49.123">  2 10  1 -1</clus>
<clus scale="   82.757">  7  8 -1 -1</clus>
<clus scale="   93.694">  1  7  2 -1</clus>
<clus scale="  105.041">  5  6 -1 -1</clus>
<clus scale="   21.744">  2  5  1 -1</clus>
</clustering>
</event>
<event>
10    2  0.3544405E-006  0.1592971E+03  0.7546771E-02  0.1191636E+00
         21   -1    0    0  501  502  0.00000000000E+00  0.00000000000E+00  0.35076678713E+03  0.35076678713E+03  0.00000000000E+00 0. -1.
          3   -1    0    0  503    0 -0.00000000000E+00 -0.00000000000E+00 -0.48161344744E+03  0.48161344744E+03  0.00000000000E+00 0. -1.
         23    2    1    2    0    0 -0.12895035038E+03 -0.70884427050E+02 -0.33969466968E+03  0.38190367057E+03  0.93835761449E+02 0.  0.
         23    2    1    2    0    0  0.87301621083E+02  0.64025180236E+02  0.36506775192E+02  0.15540034783E+03  0.10533625551E+03 0.  0.
        -11    1    3    3    0    0 -0.12119893503E+03 -0.21266980446E+02 -0.26096864597E+03  0.28852400332E+03  0.00000000000E+00 0. -1.
         11    1    3    3    0    0 -0.77514153411E+01 -0.49617446604E+02 -0.78726023709E+02  0.93379667253E+02  0.00000000000E+00 0.  1.
        -13    1    4    4    0    0  0.10676668618E+03  0.49262555249E+02  0.49676492122E+02  0.12764669403E+03  0.00000000000E+00 0.  1.
         13    1    4    4    0    0 -0.19465065093E+02  0.14762624988E+02 -0.13169716930E+02  0.27753653807E+02  0.00000000000E+00 0. -1.
         21    1    1    2  503  502  0.20141993388E+02  0.27091019021E+02 -0.55699882830E+02  0.65131406837E+02  0.00000000000E+00 0.  1.
          3    1    1    2  501    0  0.21506735905E+02 -0.20231772207E+02  0.22804111700E+03  0.22994480933E+03  0.00000000000E+00 0. -1.
<scales pt_clust_5="13000.00000" pt_clust_6="13000.00000" pt_clust_7="13000.00000" pt_clust_8="13000.00000" pt_clust_9="33.64566" pt_clust_10="29.52735"></scales>
<clustering>
<clus scale="   29.527">  1 10  2 -1</clus>
<clus scale="   33.646">  2  9  1 -1</clus>
<clus scale="   93.836">  5  6 -1 -1</clus>
<clus scale="  105.336">  7  8 -1 -1</clus>
<clus scale="  151.937">  2  5  1 -1</clus>
<clus scale="   29.527">  1  5  2 -1</clus>
</clustering>
</event>
<event>
10    2  0.3544405E-006  0.9240856E+02  0.7546771E-02  0.1298166E+00
          1   -1    0    0  503    0 -0.00000000000E+00  0.00000000000E+00  0.86109743900E+02  0.86109743900E+02  0.00000000000E+00 0. -1.
         21   -1    0    0  501  502  0.00000000000E+00 -0.00000000000E+00 -0.45836801310E+03  0.45836801310E+03  0.00000000000E+00 0.  1.
         23    2    1    2    0    0  0.71174147827E+01  0.25417328403E+02 -0.34472267356E+02  0.10086799522E+03  0.91045686703E+02 0.  0.
         23    2    1    2    0    0 -0.34339413762E+01  0.72089775483E+01 -0.18252774426E+03  0.20333657871E+03  0.89250352973E+02 0.  0.
        -11    1    4    4    0    0 -0.59435482993E+01 -0.27006205009E+02 -0.13333590618E+02  0.30699275466E+02  0.00000000000E+00 0.  1.
         11    1    4    4    0    0  0.25096069231E+01  0.34215182557E+02 -0.16919415364E+03  0.17263730324E+03  0.00000000000E+00 0. -1.
        -13    1    3    3    0    0 -0.35191896195E+02  0.34666431460E+02 -0.78152200920E+01  0.50013085218E+02  0.00000000000E+00 0.  1.
         13    1    3    3    0    0  0.42309310977E+02 -0.92491030566E+01 -0.26657047264E+02  0.50854910004E+02  0.00000000000E+00 0. -1.
         21    1    1    2  503  502  0.16438393075E+02 -0.19387517736E+02  0.37891479207E+02  0.45627412894E+02  0.00000000000E+00 0. -1.
          1    1    1    2  501    0 -0.20121866481E+02 -0.13238788215E+02 -0.19314973679E+03  0.19464577017E+03  0.00000000000E+00 0. -1.
<scales pt_clust_5="13000.00000" pt_clust_6="13000.00000" pt_clust_7="13000.00000" pt_clust_8="13000.00000" pt_clust_9="25.37820" pt_clust_10="24.08641"></scales>
<clustering>
<clus scale="   24.086">  2 10  1 -1</clus>
<clus scale="   25.378">  1  9  2 -1</clus>
<clus scale="   89.250">  5  6 -1 -1</clus>
<clus scale="   90.640">  2  5  1 -1</clus>
<clus scale="   91.046">  7  8 -1 -1</clus>
<clus scale="   24.086">  2  5  1 -1</clus>
</clustering>
</event>
<event>
10    2  0.3544405E-006  0.1038368E+03  0.7546771E-02  0.1273922E+00
          1   -1    0    0  503    0 -0.00000000000E+00  0.00000000000E+00  0.39489638439E+03  0.39489638439E+03  0.00000000000E+00 0. -1.
         21   -1    0    0  501  502  0.00000000000E+00 -0.00000000000E+00 -0.39222921269E+03  0.39222921269E+03  0.00000000000E+00 0.  1.
         23    2    1    2    0    0 -0.17082293747E+02  0.92620534593E+01  0.12493452464E+03  0.15618256210E+03  0.91688422736E+02 0.  0.
         23    2    1    2    0    0  0.10055550972E+03  0.21290363280E+01 -0.26489964872E+03  0.29882533075E+03  0.94914756891E+02 0.  0.
        -11    1    3    3    0    0  0.27708619512E+02  0.14985339915E+02  0.10571514148E+02  0.33227773308E+02  0.00000000000E+00 0.  1.
         11    1    3    3    0    0 -0.44790913258E+02 -0.57232864559E+01  0.11436301050E+03  0.12295478880E+03  0.00000000000E+00 0. -1.
        -11    1    4    4    0    0  0.35936900701E+02 -0.32870295053E+02 -0.42637480519E+02  0.64729219630E+02  0.00000000000E+00 0. -1.
         11    1    4    4    0    0  0.64618609015E+02  0.34999331381E+02 -0.22226216820E+03  0.23409611112E+03  0.00000000000E+00 0.  1.
         21    1    1    2  503  502 -0.24921365920E+02 -0.13796538340E+02  0.22733869464E+03  0.22911634824E+03  0.00000000000E+00 0. -1.
          1    1    1    2  501    0 -0.58551850049E+02  0.24054485522E+01 -0.84706398871E+02  0.10300135599E+03  0.00000000000E+00 0. -1.
<scales pt_clust_5="13000.00000" pt_clust_6="13000.00000" pt_clust_7="13000.00000" pt_clust_8="13000.00000" pt_clust_9="28.48542" pt_clust_10="59.94230"></scales>
<clustering>
<clus scale="   28.485">  1  9  2 -1</clus>
<clus scale="   59.942">  2 10  1 -1</clus>
<clus scale="   91.688">  5  6 -1 -1</clus>
<clus scale="   94.915">  7  8 -1 -1</clus>
<clus scale="  100.896">  1  5  2 -1</clus>
<clus scale="   59.942">  2  5  1 -1</clus>
</clustering>
</event>
<event>
10    2  0.3544405E-006  0.1091361E+03  0.7546771E-02  0.1262372E+00
         21   -1    0    0  501  502  0.00000000000E+00  0.00000000000E+00  0.16477860689E+03  0.16477860689E+03  0.00000000000E+00 0. -1.
          2   -1    0    0  503    0 -0.00000000000E+00 -0.00000000000E+00 -0.67041598900E+03  0.67041598900E+03  0.00000000000E+00 0. -1.
         23    2    1    2    0    0  0.48008667501E+02 -0.21589067545E+02 -0.39123149172E+03  0.40508980692E+03  0.90910679011E+02 0.  0.
         23    2    1    2    0    0 -0.27783359641E+02 -0.22646539743E+02 -0.69160239268E+02  0.11934275014E+03  0.90414448397E+02 0.  0.
        -11    1    4    4    0    0 -0.30171203460E+02 -0.54097169170E+02 -0.29326413256E+02  0.68533522782E+02  0.00000000000E+00 0.  1.
         11    1    4    4    0    0  0.23878438197E+01  0.31450629427E+02 -0.39833826013E+02  0.50809227353E+02  0.00000000000E+00 0. -1.
        -13    1    3    3    0    0  0.11993843466E+02 -0.51087895847E+02 -0.27348738460E+03  0.27847652489E+03  0.00000000000E+00 0.  1.
         13    1    3    3    0    0  0.36014824035E+02  0.29498828301E+02 -0.11774410713E+03  0.12661328202E+03  0.00000000000E+00 0. -1.
         21    1    1    2  503  502  0.41710359131E+02  0.49253228840E+02 -0.16426959874E+03  0.17649401033E+03  0.00000000000E+00 0. -1.
          2    1    1    2  501    0 -0.61935666991E+02 -0.50176215521E+01  0.11902394762E+03  0.13426802851E+03  0.00000000000E+00 0. -1.
<scales pt_clust_5="13000.00000" pt_clust_6="13000.00000" pt_clust_7="13000.00000" pt_clust_8="13000.00000" pt_clust_9="57.94350" pt_clust_10="62.13858"></scales>
<clustering>
<clus scale="   62.139">  1 10  2 -1</clus>
<clus scale="   57.943">  2  9  1 -1</clus>
<clus scale="   90.414">  5  6 -1 -1</clus>
<clus scale="   90.911">  7  8 -1 -1</clus>
<clus scale="  108.723">  1  5  2 -1</clus>
<clus scale="   62.139">  1  5  2 -1</clus>
</clustering>
</event>
<event>
10    2  0.3544405E-006  0.1302967E+03  0.7546771E-02  0.1228061E+00
         21   -1    0    0  501  502  0.00000000000E+00  0.00000000000E+00  0.79961818328E+03  0.79961818328E+03  0.00000000000E+00 0.  1.
          2   -1    0    0  503    0 -0.00000000000E+00 -0.00000000000E+00 -0.37518439531E+02  0.37518439531E+02  0.00000000000E+00 0. -1.
         23    2    1    2    0    0  0.78555756997E+02 -0.58591815336E+02  0.28942038474E+03  0.31876492356E+03  0.90790470917E+02 0.  0.
         23    2    1    2    0    0 -0.38244665758E+02  0.76085767732E+02  0.23093422416E+03  0.26371467318E+03  0.94673726299E+02 0.  0.
        -13    1    4    4    0    0  0.18887566053E+02 -0.99489355938E+01  0.22032487448E+02  0.30678200305E+02  0.00000000000E+00 0. -1.
         13    1    4    4    0    0 -0.57132231811E+02  0.86034703326E+02  0.20890173671E+03  0.23303647287E+03  0.00000000000E+00 0.  1.
        -13    1    3    3    0    0  0.70960755290E+02 -0.16985163645E+02  0.25180530983E+03  0.26216376300E+03  0.00000000000E+00 0.  1.
         13    1    3    3    0    0  0.75950017070E+01 -0.41606651691E+02  0.37615074912E+02  0.56601160558E+02  0.00000000000E+00 0. -1.
         21    1    1    2  503  502 -0.35722782883E+02  0.13421057019E+02  0.66710191940E+02  0.76853703210E+02  0.00000000000E+00 0.  1.
          2    1    1    2  501    0 -0.45883083563E+01 -0.30915009415E+02  0.17503494291E+03  0.17780332286E+03  0.00000000000E+00 0. -1.
<scales pt_clust_5="13000.00000" pt_clust_6="13000.00000" pt_clust_7="13000.00000" pt_clust_8="13000.00000" pt_clust_9="37.56831" pt_clust_10="31.25365"></scales>
<clustering>
<clus scale="   31.254">  1 10  2 -1</clus>
<clus scale="   37.568">  2  9  1 -1</clus>
<clus scale="   90.790">  7  8 -1 -1</clus>
<clus scale="   94.674">  5  6 -1 -1</clus>
<clus scale="  127.503">  2  7  1 -1</clus>
<clus scale="   31.254">  1  5  2 -1</clus>
</clustering>
</event>
<event>
10    2  0.3544405E-006  0.1329895E+03  0.7546771E-02  0.1223196E+00
         -1   -1    0    0    0  501 -0.00000000000E+00  0.00000000000E+00  0.29774435930E+03  0.29774435930E+03  0.00000000000E+00 0.  1.
         21   -1    0    0  503  502  0.00000000000E+00 -0.00000000000E+00 -0.36331886236E+03  0.36331886236E+03  0.00000000000E+00 0. -1.
         23    2    1    2    0    0  0.69972584495E+02  0.53837039954E+02  0.20628152936E+03  0.24223594989E+03  0.91277580004E+02 0.  0.
         23    2    1    2    0    0 -0.98998582020E+02 -0.68087049004E+02 -0.27852438186E+03  0.31689966877E+03  0.91722425252E+02 0.  0.
        -11    1    4    4    0    0 -0.44908048207E+02 -0.74428975266E+02 -0.22197771169E+03  0.23839150497E+03  0.00000000000E+00 0. -1.
         11    1    4    4    0    0 -0.54090533813E+02  0.63419262626E+01 -0.56546670164E+02  0.78508163802E+02  0.00000000000E+00 0.  1.
        -11    1    3    3    0    0  0.38700579907E+02  0.63323032869E+02  0.69743036683E+02  0.10184121240E+03  0.00000000000E+00 0. -1.
         11    1    3    3    0    0  0.31272004588E+02 -0.94859929156E+01  0.13653849268E+03  0.14039473749E+03  0.00000000000E+00 0.  1.
         21    1    1    2  503  501  0.23230932747E+02 -0.29383188961E+02  0.33605610535E+02  0.50322808837E+02  0.00000000000E+00 0. -1.
         -1    1    1    2    0  502  0.57950647785E+01  0.43633198011E+02 -0.26937261100E+02  0.51604794157E+02  0.00000000000E+00 0.  1.
<scales pt_clust_5="13000.00000" pt_clust_6="13000.00000" pt_clust_7="13000.00000" pt_clust_8="13000.00000" pt_clust_9="37.45728" pt_clust_10="42.77896"></scales>
<clustering>
<clus scale="   37.457">  1  9  2 -1</clus>
<clus scale="   42.779">  2 10  1 -1</clus>
<clus scale="   91.278">  7  8 -1 -1</clus>
<clus scale="   91.722">  5  6 -1 -1</clus>
<clus scale="  132.683">  1  7  2 -1</clus>
<clus scale="   42.779">  2  5  1 -1</clus>
</clustering>
</event>
<event>
10    2  0.3544405E-006  0.2137144E+03  0.7546771E-02  0.1154562E+00
         21   -1    0    0  503  502  0.00000000000E+00  0.00000000000E+00  0.51206578654E+03  0.51206578654E+03  0.00000000000E+00 0.  1.
         -1   -1    0    0    0  501 -0.00000000000E+00 -0.00000000000E+00 -0.40106959109E+03  0.40106959109E+03  0.00000000000E+00 0.  1.
         23    2    1    2    0    0 -0.22668876646E+03  0.11334044810E+03 -0.19527367345E+03  0.33222299240E+03  0.89478797044E+02 0.  0.
         23    2    1    2    0    0  0.76903900110E+02  0.12714435206E+02  0.11092526006E+03  0.16540381842E+03  0.94753063877E+02 0.  0.
        -11    1    3    3    0    0 -0.22015815235E+03  0.79377086910E+02 -0.16621072261E+03  0.28704762372E+03  0.00000000000E+00 0.  1.
         11    1    3    3    0    0 -0.65306141147E+01  0.33963361190E+02 -0.29062950840E+02  0.45175368682E+02  0.00000000000E+00 0. -1.
        -13    1    4    4    0    0  0.35615229202E+02  0.51613046605E+02  0.39179561482E+02  0.73941795818E+02  0.00000000000E+00 0.  1.
         13    1    4    4    0    0  0.41288670908E+02 -0.38898611398E+02  0.71745698578E+02  0.91462022602E+02  0.00000000000E+00 0. -1.
         21    1    1    2  503  501  0.85689405514E+02 -0.13092904468E+03 -0.48113764828E+02  0.16370712668E+03  0.00000000000E+00 0.  1.
         -1    1    1    2    0  502  0.64095460836E+02  0.48741613758E+01  0.24345837366E+03  0.25180144014E+03  0.00000000000E+00 0.  1.
<scales pt_clust_5="13000.00000" pt_clust_6="13000.00000" pt_clust_7="13000.00000" pt_clust_8="13000.00000" pt_clust_9="194.08083" pt_clust_10="64.28052"></scales>
<clustering>
<clus scale="   64.281">  1 10  2 -1</clus>
<clus scale="   89.479">  5  6 -1 -1</clus>
<clus scale="   94.753">  7  8 -1 -1</clus>
<clus scale="  146.279">  1  7  2 -1</clus>
<clus scale="  194.081">  2  9  1 -1</clus>
<clus scale="   64.281">  1  5  2 -1</clus>
</clustering>
</event>
<event>
10    2  0.3544405E-006  0.1065073E+03  0.7546771E-02  0.1268370E+00
          3   -1    0    0  503    0 -0.00000000000E+00  0.00000000000E+00  0.12928480983E+03  0.12928480983E+03  0.00000000000E+00 0. -1.
         21   -1    0    0  501  502  0.00000000000E+00 -0.00000000000E+00 -0.25177120921E+03  0.25177120921E+03  0.00000000000E+00 0.  1.
         23    2    1    2    0    0 -0.62003721741E+02  0.49885016402E+01  0.17397612210E+02  0.11264134530E+03  0.92282442006E+02 0.  0.
         23    2    1    2    0    0  0.13923226403E+02  0.64435968598E+02 -0.57274976598E+02  0.12501790374E+03  0.89460622776E+02 0.  0.
        -11    1    4    4    0    0 -0.24121555205E+02  0.36173041048E+02  0.81450483171E+01  0.44234377313E+02  0.00000000000E+00 0. -1.
         11    1    4    4    0    0  0.38044781608E+02  0.28262927550E+02 -0.65420024915E+02  0.80783526422E+02  0.00000000000E+00 0.  1.
        -13    1    3    3    0    0 -0.25200700758E+02  0.39922756278E+02 -0.18263315881E+02  0.50620652846E+02  0.00000000000E+00 0.  1.
         13    1    3    3    0    0 -0.36803020982E+02 -0.34934254638E+02  0.35660928091E+02  0.62020692457E+02  0.00000000000E+00 0. -1.
         21    1    1    2  503  502 -0.13640453042E+02 -0.16029201903E+02  0.70115358804E+01  0.22184654792E+02  0.00000000000E+00 0.  1.
          3    1    1    2  501    0  0.61720948380E+02 -0.53395268335E+02 -0.89620570876E+02  0.12121211521E+03  0.00000000000E+00 0. -1.
<scales pt_clust_5="13000.00000" pt_clust_6="13000.00000" pt_clust_7="13000.00000" pt_clust_8="13000.00000" pt_clust_9="21.04750" pt_clust_10="81.68712"></scales>
<clustering>
<clus scale="   21.048">  1  9  2 -1</clus>
<clus scale="   81.687">  2 10  1 -1</clus>
<clus scale="   89.461">  5  6 -1 -1</clus>
<clus scale="   92.282">  7  8 -1 -1</clus>
<clus scale="  104.072">  2  5  1 -1</clus>
<clus scale="   81.687">  2  5  1 -1</clus>
</clustering>
</event>
<event>
10    2  0.3544405E-006  0.9620398E+02  0.7546771E-02  0.1288507E+00
         21   -1    0    0  503  502  0.00000000000E+00  0.00000000000E+00  0.17522189542E+03  0.17522189542E+03  0.00000000000E+00 0.  1.
         -1   -1    0    0    0  501 -0.00000000000E+00 -0.00000000000E+00 -0.17178991564E+03  0.17178991564E+03  0.00000000000E+00 0.  1.
         23    2    1    2    0    0 -0.26675125627E+02  0.49498168781E+02 -0.73769325509E+02  0.12934679682E+03  0.90150149321E+02 0.  0.
         23    2    1    2    0    0  0.92210213203E+01 -0.13138541453E+02  0.72061533918E+02  0.11655202172E+03  0.90187918209E+02 0.  0.
        -11    1    3    3    0    0 -0.53261597552E+02  0.78521392921E+01 -0.53630493395E+02  0.75991339553E+02  0.00000000000E+00 0. -1.
         11    1    3    3    0    0  0.26586471925E+02  0.41646029489E+02 -0.20138832114E+02  0.53355457270E+02  0.00000000000E+00 0.  1.
        -13    1    4    4    0    0  0.43180430716E+02 -0.31072776646E+02  0.41411125846E+02  0.67416232386E+02  0.00000000000E+00 0.  1.
         13    1    4    4    0    0 -0.33959409396E+02  0.17934235194E+02  0.30650408072E+02  0.49135789334E+02  0.00000000000E+00 0. -1.
         21    1    1    2  503  501  0.24352911072E+02 -0.15303635126E+02 -0.40910539876E+02  0.50009377108E+02  0.00000000000E+00 0. -1.
         -1    1    1    2    0  502 -0.68988067655E+01 -0.21055992203E+02  0.46050311242E+02  0.51103615409E+02  0.00000000000E+00 0.  1.
<scales pt_clust_5="13000.00000" pt_clust_6="13000.00000" pt_clust_7="13000.00000" pt_clust_8="13000.00000" pt_clust_9="28.96514" pt_clust_10="22.15735"></scales>
<clustering>
<clus scale="   22.157">  1 10  2 -1</clus>
<clus scale="   28.965">  2  9  1 -1</clus>
<clus scale="   90.150">  5  6 -1 -1</clus>
<clus scale="   90.188">  7  8 -1 -1</clus>
<clus scale="   96.169">  2  5  1 -1</clus>
<clus scale="   22.157">  1  5  2 -1</clus>
</clustering>
</event>
<event>
10    2  0.3544405E-006  0.1765894E+03  0.7546771E-02  0.1176413E+00
         21   -1    0    0  501  502  0.00000000000E+00  0.00000000000E+00  0.31863340281E+03  0.31863340281E+03  0.00000000000E+00 0.  1.
          2   -1    0    0  503    0 -0.00000000000E+00 -0.00000000000E+00 -0.76767298290E+03  0.76767298290E+03  0.00000000000E+00 0. -1.
         23    2    1    2    0    0  0.66254373304E+02  0.24195226058E+03 -0.29357398051E+03  0.40087366169E+03  0.10762654051E+03 0.  0.
         23    2    1    2    0    0 -0.83078022477E+02 -0.76788849071E+02  0.22600837340E+03  0.26234188057E+03  0.70320639155E+02 0.  0.
        -11    1    4    4    0    0 -0.66220790936E+02 -0.59428737252E+02  0.22014112247E+03  0.23744279683E+03  0.00000000000E+00 0.  1.
         11    1    4    4    0    0 -0.16857231541E+02 -0.17360111819E+02  0.58672509354E+01  0.24899083741E+02  0.00000000000E+00 0. -1.
        -13    1    3    3    0    0  0.42897779520E+02  0.16273375173E+03 -0.11414942447E+03  0.20335334900E+03  0.00000000000E+00 0.  1.
         13    1    3    3    0    0  0.23356593783E+02  0.79218508847E+02 -0.17942455604E+03  0.19752031269E+03  0.00000000000E+00 0. -1.
         21    1    1    2  503  502 -0.54031862200E+01 -0.13183681471E+03 -0.34318493791E+03  0.36767654500E+03  0.00000000000E+00 0. -1.
          2    1    1    2  501    0  0.22226835393E+02 -0.33326596803E+02 -0.38289035078E+02  0.55414298455E+02  0.00000000000E+00 0. -1.
<scales pt_clust_5="13000.00000" pt_clust_6="13000.00000" pt_clust_7="13000.00000" pt_clust_8="13000.00000" pt_clust_9="133.22988" pt_clust_10="40.05866"></scales>
<clustering>
<clus scale="   40.059">  1 10  2 -1</clus>
<clus scale="   70.321">  5  6 -1 -1</clus>
<clus scale="  107.627">  7  8 -1 -1</clus>
<clus scale="  133.230">  2  9  1 -1</clus>
<clus scale="  156.669">  1  5  2 -1</clus>
<clus scale="   40.059">  1  5  2 -1</clus>
</clustering>
</event>
<event>
10    2  0.3544405E-006  0.1238336E+03  0.7546771E-02  0.1239889E+00
          2   -1    0    0  503    0 -0.00000000000E+00  0.00000000000E+00  0.53281124055E+03  0.53281124055E+03  0.00000000000E+00 0. -1.
         21   -1    0    0  501  502  0.00000000000E+00 -0.00000000000E+00 -0.89346881311E+02  0.89346881311E+02  0.00000000000E+00 0. -1.
         23    2    1    2    0    0 -0.47690922381E+02  0.64660372847E+02  0.30579610685E+03  0.32962546273E+03  0.93200315579E+02 0.  0.
         23    2    1    2    0    0  0.10223342877E+02 -0.10152389314E+03  0.84420589882E+02  0.16727386709E+03  0.10218655977E+03 0.  0.
        -11    1    4    4    0    0 -0.12533357709E+02 -0.72137414154E+02  0.10248198722E+03  0.12595018572E+03  0.00000000000E+00 0. -1.
         11    1    4    4    0    0  0.22756700586E+02 -0.29386478981E+02 -0.18061397342E+02  0.41323681375E+02  0.00000000000E+00 0.  1.
        -11    1    3    3    0    0  0.52382651473E+01  0.59157913492E+02  0.93544041824E+02  0.11080426847E+03  0.00000000000E+00 0.  1.
         11    1    3    3    0    0 -0.52929187529E+02  0.55024593551E+01  0.21225206502E+03  0.21882119426E+03  0.00000000000E+00 0. -1.
         21    1    1    2  503  502  0.80572622995E+01 -0.28635780011E+02  0.43647318121E+02  0.52820599692E+02  0.00000000000E+00 0. -1.
          2    1    1    2  501    0  0.29410317205E+02  0.65499300299E+02  0.96003443860E+01  0.72438192344E+02  0.00000000000E+00 0. -1.
<scales pt_clust_5="13000.00000" pt_clust_6="13000.00000" pt_clust_7="13000.00000" pt_clust_8="13000.00000" pt_clust_9="29.74773" pt_clust_10="69.88593"></scales>
<clustering>
<clus scale="   29.748">  1  9  2 -1</clus>
<clus scale="   69.886">  2 10  1 -1</clus>
<clus scale="   93.200">  7  8 -1 -1</clus>
<clus scale="  102.187">  5  6 -1 -1</clus>
<clus scale="  116.529">  1  7  2 -1</clus>
<clus scale="   69.886">  2  5  1 -1</clus>
</clustering>
</event>
<event>
10    2  0.3544405E-006  0.1473401E+03  0.7546771E-02  0.1203878E+00
         21   -1    0    0  501  502  0.00000000000E+00  0.00000000000E+00  0.21700001999E+03  0.21700001999E+03  0.00000000000E+00 0. -1.
          2   -1    0    0  503    0 -0.00000000000E+00 -0.00000000000E+00 -0.33016002469E+03  0.33016002469E+03  0.00000000000E+00 0. -1.
         23    2    1    2    0    0  0.10149991921E+03  0.57529277461E+02 -0.46559418119E+02  0.15638686081E+03  0.93151593943E+02 0.  0.
         23    2    1    2    0    0 -0.80003506274E+02 -0.86992857936E+02 -0.21934870213E+02  0.15177434685E+03  0.92660646885E+02 0.  0.
        -11    1    3    3    0    0  0.22969522539E+02  0.64364299198E+02 -0.34790107478E+02  0.76685810651E+02  0.00000000000E+00 0.  1.
         11    1    3    3    0    0  0.78530396675E+02 -0.68350217368E+01 -0.11769310641E+02  0.79701050163E+02  0.00000000000E+00 0. -1.
        -13    1    4    4    0    0 -0.93417635818E+02 -0.41258251915E+02 -0.20071406501E+02  0.10407669956E+03  0.00000000000E+00 0. -1.
         13    1    4    4    0    0  0.13414129544E+02 -0.45734606021E+02 -0.18634637118E+01  0.47697647283E+02  0.00000000000E+00 0.  1.
         21    1    1    2  503  502 -0.26829363827E+02  0.96111867588E+01 -0.13928586070E+03  0.14217151848E+03  0.00000000000E+00 0. -1.
          2    1    1    2  501    0  0.53329508873E+01  0.19852393716E+02  0.94620144338E+02  0.96827318542E+02  0.00000000000E+00 0. -1.
<scales pt_clust_5="13000.00000" pt_clust_6="13000.00000" pt_clust_7="13000.00000" pt_clust_8="13000.00000" pt_clust_9="28.51991" pt_clust_10="20.55621"></scales>
<clustering>
<clus scale="   20.556">  1 10  2 -1</clus>
<clus scale="   28.520">  2  9  1 -1</clus>
<clus scale="   92.661">  7  8 -1 -1</clus>
<clus scale="   93.152">  5  6 -1 -1</clus>
<clus scale="  147.030">  1  7  2 -1</clus>
<clus scale="   20.556">  1  5  2 -1</clus>
</clustering>
</event>
<event>
10    2  0.3544405E-006  0.3008201E+03  0.7546771E-02  0.1085005E+00
          1   -1    0    0  503    0 -0.00000000000E+00  0.00000000000E+00  0.12639779178E+04  0.12639779178E+04  0.00000000000E+00 0. -1.
         21   -1    0    0  501  502  0.00000000000E+00 -0.00000000000E+00 -0.67439942976E+03  0.67439942976E+03  0.00000000000E+00 0. -1.
         23    2    1    2    0    0  0.30780042305E+03 -0.11032649133E+03  0.69223089167E+03  0.77092332258E+03  0.90697997774E+02 0.  0.
         23    2    1    2    0    0 -0.25869901932E+03 -0.20952204666E+02  0.44419419418E+03  0.52319530962E+03  0.95187564234E+02 0.  0.
        -13    1    4    4    0    0 -0.17819010587E+03  0.14333742007E+02  0.35765552513E+03  0.39984327510E+03  0.00000000000E+00 0.  1.
         13    1    4    4    0    0 -0.80508913450E+02 -0.35285946673E+02  0.86538669048E+02  0.12335203451E+03  0.00000000000E+00 0. -1.
        -13    1    3    3    0    0  0.63600444868E+01 -0.20270251660E+02  0.22303331340E+02  0.30802140463E+02  0.00000000000E+00 0.  1.
         13    1    3    3    0    0  0.30144037856E+03 -0.90056239667E+02  0.66992756033E+03  0.74012118211E+03  0.00000000000E+00 0. -1.
         21    1    1    2  503  502 -0.29994993993E+02 -0.99005461042E+00  0.35665884846E+02  0.46612607893E+02  0.00000000000E+00 0.  1.
          1    1    1    2  501    0 -0.19106409734E+02  0.13226875060E+03 -0.58251248268E+03  0.59764610745E+03  0.00000000000E+00 0. -1.
<scales pt_clust_5="13000.00000" pt_clust_6="13000.00000" pt_clust_7="13000.00000" pt_clust_8="13000.00000" pt_clust_9="30.01133" pt_clust_10="133.66220"></scales>
<clustering>
<clus scale="   30.011">  1  9  2 -1</clus>
<clus scale="   90.698">  7  8 -1 -1</clus>
<clus scale="   95.188">  5  6 -1 -1</clus>
<clus scale="  133.662">  2 10  1 -1</clus>
<clus scale="  299.430">  1  7  2 -1</clus>
<clus scale="  133.662">  2  5  1 -1</clus>
</clustering>
</event>
<event>
10    2  0.3544405E-006  0.2744499E+03  0.7546771E-02  0.1098775E+00
         21   -1    0    0  501  502  0.00000000000E+00  0.00000000000E+00  0.46796922800E+03  0.46796922800E+03  0.00000000000E+00 0. -1.
          3   -1    0    0  503    0 -0.00000000000E+00 -0.00000000000E+00 -0.34347582092E+03  0.34347582092E+03  0.00000000000E+00 0. -1.
         23    2    1    2    0    0  0.21689661867E+03  0.43981333409E+02 -0.17804514301E+02  0.23984456244E+03  0.90718865314E+02 0.  0.
         23    2    1    2    0    0 -0.29991341635E+03 -0.14859520745E+03  0.59101380647E+02  0.35186871642E+03  0.91049587658E+02 0.  0.
        -13    1    3    3    0    0  0.49158189345E+02 -0.10254720852E+02  0.28279675189E+02  0.57631822010E+02  0.00000000000E+00 0.  1.
         13    1    3    3    0    0  0.16773842933E+03  0.54236054261E+02 -0.46084189490E+02  0.18221274043E+03  0.00000000000E+00 0. -1.
        -13    1    4    4    0    0 -0.15149478047E+03 -0.25366603709E+02  0.18263493691E+02  0.15468577276E+03  0.00000000000E+00 0.  1.
         13    1    4    4    0    0 -0.14841863588E+03 -0.12322860374E+03  0.40837886956E+02  0.19718294365E+03  0.00000000000E+00 0. -1.
         21    1    1    2  503  502 -0.39218210482E+01 -0.36324044434E+02  0.59915553770E+01  0.37023176798E+02  0.00000000000E+00 0. -1.
          3    1    1    2  501    0  0.86938618729E+02  0.14093791847E+03  0.77204985354E+02  0.18270859327E+03  0.00000000000E+00 0. -1.
<scales pt_clust_5="13000.00000" pt_clust_6="13000.00000" pt_clust_7="13000.00000" pt_clust_8="13000.00000" pt_clust_9="36.53515" pt_clust_10="156.06434"></scales>
<clustering>
<clus scale="   36.535">  1  9  2 -1</clus>
<clus scale="   90.719">  5  6 -1 -1</clus>
<clus scale="   91.050">  7  8 -1 -1</clus>
<clus scale="  156.064">  1 10  2 -1</clus>
<clus scale="  274.340">  2  5  1 -1</clus>
<clus scale="   36.535">  1  5  2 -1</clus>
</clustering>
</event>
<event>
10    2  0.3544405E-006  0.9620504E+02  0.7546771E-02  0.1289400E+00
         21   -1    0    0  501  502  0.00000000000E+00  0.00000000000E+00  0.14312852598E+03  0.14312852598E+03  0.00000000000E+00 0. -1.
          2   -1    0    0  503    0 -0.00000000000E+00 -0.00000000000E+00 -0.43725718977E+03  0.43725718977E+03  0.00000000000E+00 0. -1.
         23    2    1    2    0    0  0.31278209635E+01 -0.52197107956E+01 -0.80014344664E+02  0.12031546275E+03  0.89646453245E+02 0.  0.
         23    2    1    2    0    0  0.73756570121E+02  0.17952865186E+00 -0.88128324099E+02  0.14681864181E+03  0.91373126296E+02 0.  0.
        -11    1    3    3    0    0  0.55739216753E+01 -0.45626274833E+02 -0.25979457446E+02  0.52799221275E+02  0.00000000000E+00 0.  1.
         11    1    3    3    0    0 -0.24461007118E+01  0.40406564038E+02 -0.54034887218E+02  0.67516241473E+02  0.00000000000E+00 0. -1.
        -13    1    4    4    0    0  0.29298151255E+02 -0.37131253314E+02 -0.72753679974E+02  0.86776780243E+02  0.00000000000E+00 0.  1.
         13    1    4    4    0    0  0.44458418866E+02  0.37310781966E+02 -0.15374644126E+02  0.60041861571E+02  0.00000000000E+00 0. -1.
         21    1    1    2  503  502 -0.12879020637E+02  0.26522392196E+02 -0.20626234632E+03  0.20835897382E+03  0.00000000000E+00 0. -1.
          2    1    1    2  501    0 -0.64005370447E+02 -0.21482210053E+02  0.80276351307E+02  0.10489263737E+03  0.00000000000E+00 0. -1.
<scales pt_clust_5="13000.00000" pt_clust_6="13000.00000" pt_clust_7="13000.00000" pt_clust_8="13000.00000" pt_clust_9="29.48400" pt_clust_10="67.73415"></scales>
<clustering>
<clus scale="   29.484">  2  9  1 -1</clus>
<clus scale="   67.734">  1 10  2 -1</clus>
<clus scale="   89.646">  5  6 -1 -1</clus>
<clus scale="   91.373">  7  8 -1 -1</clus>
<clus scale="   94.567">  2  5  1 -1</clus>
<clus scale="   67.734">  1  5  2 -1</clus>
</clustering>
</event>
<event>
10    2  0.3544405E-006  0.9694437E+02  0.7546771E-02  0.1295525E+00
          1   -1    0    0  503    0 -0.00000000000E+00  0.00000000000E+00  0.70177626920E+03  0.70177626920E+03  0.00000000000E+00 0. -1.
         21   -1    0    0  501  502  0.00000000000E+00 -0.00000000000E+00 -0.44065646906E+02  0.44065646906E+02  0.00000000000E+00 0.  1.
         23    2    1    2    0    0  0.44311296825E+02 -0.51575671487E+02  0.33448920604E+03  0.34943102903E+03  0.74802902174E+02 0.  0.
         23    2    1    2    0    0 -0.30633783319E+02 -0.28363704333E+02  0.96191051127E+02  0.13853864251E+03  0.90538990205E+02 0.  0.
        -13    1    4    4    0    0  0.15059279857E+02  0.13318688625E+02  0.67367382210E+02  0.70303154712E+02  0.00000000000E+00 0. -1.
         13    1    4    4    0    0 -0.45693063176E+02 -0.41682392958E+02  0.28823668916E+02  0.68235487797E+02  0.00000000000E+00 0.  1.
        -13    1    3    3    0    0 -0.21302995289E+02 -0.11878981074E+02  0.78637400265E+02  0.82333277113E+02  0.00000000000E+00 0.  1.
         13    1    3    3    0    0  0.65614292113E+02 -0.39696690413E+02  0.25585180578E+03  0.26709775192E+03  0.00000000000E+00 0. -1.
         21    1    1    2  503  502 -0.31505062991E+02  0.23925464429E+02  0.17485482324E+03  0.17927410870E+03  0.00000000000E+00 0.  1.
          1    1    1    2  501    0  0.17827549486E+02  0.56013911391E+02  0.52175541886E+02  0.78598135863E+02  0.00000000000E+00 0. -1.
<scales pt_clust_5="13000.00000" pt_clust_6="13000.00000" pt_clust_7="13000.00000" pt_clust_8="13000.00000" pt_clust_9="39.56004" pt_clust_10="60.61112"></scales>
<clustering>
<clus scale="   39.560">  1  9  2 -1</clus>
<clus scale="   60.611">  2 10  1 -1</clus>
<clus scale="   74.803">  7  8 -1 -1</clus>
<clus scale="   82.440">  1  7  2 -1</clus>
<clus scale="   90.539">  5  6 -1 -1</clus>
<clus scale="   60.611">  2  5  1 -1</clus>
</clustering>
</event>
<event>
10    2  0.3544405E-006  0.2644062E+03  0.7546771E-02  0.1104622E+00
         21   -1    0    0  501  502  0.00000000000E+00  0.00000000000E+00  0.69190205248E+03  0.69190205248E+03  0.00000000000E+00 0. -1.
          1   -1    0    0  503    0 -0.00000000000E+00 -0.00000000000E+00 -0.28971588340E+03  0.28971588340E+03  0.00000000000E+00 0. -1.
         23    2    1    2    0    0 -0.26460045710E+03  0.86258345384E+02 -0.90437963316E+02  0.30569994078E+03  0.88428075512E+02 0.  0.
         23    2    1    2    0    0  0.12305939807E+03 -0.14815039817E+03  0.17254055762E+03  0.27392248897E+03  0.90394302962E+02 0.  0.
        -13    1    3    3    0    0 -0.24706746905E+03  0.61180990839E+02 -0.10025854475E+03  0.27356392982E+03  0.00000000000E+00 0. -1.
         13    1    3    3    0    0 -0.17532988052E+02  0.25077354545E+02  0.98205814322E+01  0.32136010964E+02  0.00000000000E+00 0.  1.
        -13    1    4    4    0    0  0.25779009276E+02 -0.84778654928E+02  0.38562819997E+02  0.96638857282E+02  0.00000000000E+00 0.  1.
         13    1    4    4    0    0  0.97280388794E+02 -0.63371743241E+02  0.13397773763E+03  0.17728363169E+03  0.00000000000E+00 0. -1.
         21    1    1    2  503  502 -0.19909463188E+02  0.91200179693E+01 -0.14846274686E+02  0.26457008982E+02  0.00000000000E+00 0. -1.
          1    1    1    2  501    0  0.16145052222E+03  0.52772034815E+02  0.33492984945E+03  0.37553849714E+03  0.00000000000E+00 0. -1.
<scales pt_clust_5="13000.00000" pt_clust_6="13000.00000" pt_clust_7="13000.00000" pt_clust_8="13000.00000" pt_clust_9="21.89889" pt_clust_10="168.64576"></scales>
<clustering>
<clus scale="   21.899">  2  9  1 -1</clus>
<clus scale="   88.428">  5  6 -1 -1</clus>
<clus scale="   90.394">  7  8 -1 -1</clus>
<clus scale="  168.646">  1 10  2 -1</clus>
<clus scale="  263.740">  2  5  1 -1</clus>
<clus scale="  168.646">  1  5  2 -1</clus>
</clustering>
</event>
<event>
10    2  0.3544405E-006  0.1989428E+03  0.7546771E-02  0.1150785E+00
          3   -1    0    0  503    0 -0.00000000000E+00  0.00000000000E+00  0.68076034439E+03  0.68076034439E+03  0.00000000000E+00 0. -1.
         21   -1    0    0  501  502  0.00000000000E+00 -0.00000000000E+00 -0.37794785683E+03  0.37794785683E+03  0.00000000000E+00 0. -1.
         23    2    1    2    0    0 -0.13161596277E+03 -0.12788309079E+03  0.47747049657E+03  0.51944907528E+03  0.90401438882E+02 0.  0.
         23    2    1    2    0    0  0.11628309181E+03  0.70348852157E+02  0.32839279166E+02  0.16734250143E+03  0.91947681247E+02 0.  0.
        -11    1    3    3    0    0 -0.62713384453E+02 -0.99984808666E+02  0.37302297307E+03  0.39124936932E+03  0.00000000000E+00 0.  1.
         11    1    3    3    0    0 -0.68902578317E+02 -0.27898282124E+02  0.10444752349E+03  0.12819970596E+03  0.00000000000E+00 0. -1.
        -13    1    4    4    0    0  0.58806552554E+02 -0.15461190468E+02  0.11695079219E+02  0.61919576160E+02  0.00000000000E+00 0. -1.
         13    1    4    4    0    0  0.57476539256E+02  0.85810042625E+02  0.21144199947E+02  0.10542292527E+03  0.00000000000E+00 0.  1.
         21    1    1    2  503  502 -0.20622857681E+02  0.75061863812E+01  0.77391132241E+02  0.80442727717E+02  0.00000000000E+00 0.  1.
          3    1    1    2  501    0  0.35955728641E+02  0.50028052252E+02 -0.28488842041E+03  0.29147389680E+03  0.00000000000E+00 0. -1.
<scales pt_clust_5="13000.00000" pt_clust_6="13000.00000" pt_clust_7="13000.00000" pt_clust_8="13000.00000" pt_clust_9="21.94641" pt_clust_10="61.57621"></scales>
<clustering>
<clus scale="   21.946">  1  9  2 -1</clus>
<clus scale="   61.576">  2 10  1 -1</clus>
<clus scale="   90.401">  5  6 -1 -1</clus>
<clus scale="   91.948">  7  8 -1 -1</clus>
<clus scale="  198.233">  1  5  2 -1</clus>
<clus scale="   61.576">  2  5  1 -1</clus>
</clustering>
</event>
<event>
10    2  0.3544405E-006  0.1347215E+03  0.7546771E-02  0.1235661E+00
          4   -1    0    0  503    0 -0.00000000000E+00  0.00000000000E+00  0.30337190619E+03  0.30337190619E+03  0.00000000000E+00 0. -1.
         21   -1    0    0  501  502  0.00000000000E+00 -0.00000000000E+00 -0.78870798453E+03  0.78870798453E+03  0.00000000000E+00 0.  1.
         23    2    1    2    0    0 -0.44141974464E+02  0.50938578579E+02 -0.23809454968E+03  0.26356284421E+03  0.90736462153E+02 0.  0.
         23    2    1    2    0    0  0.39656722240E+01  0.39542533151E+02 -0.23382774802E+02  0.10456303622E+03  0.93847407543E+02 0.  0.
        -13    1    4    4    0    0 -0.48600726109E+01 -0.27328489172E+02 -0.24617147823E+02  0.37100816610E+02  0.00000000000E+00 0.  1.
         13    1    4    4    0    0  0.88257448349E+01  0.66871022323E+02  0.12343730208E+01  0.67462219613E+02  0.00000000000E+00 0. -1.
        -13    1    3    3    0    0  0.27101387701E+02  0.85007374252E+01 -0.42520747735E+02  0.51134741029E+02  0.00000000000E+00 0. -1.
         13    1    3    3    0    0 -0.71243362165E+02  0.42437841153E+02 -0.19557380195E+03  0.21242810318E+03  0.00000000000E+00 0.  1.
         21    1    1    2  503  502  0.10084776783E+03 -0.12702799989E+02  0.23424641083E+03  0.25534880926E+03  0.00000000000E+00 0. -1.
          4    1    1    2  501    0 -0.60671465590E+02 -0.77778311741E+02 -0.45810516469E+03  0.46860520102E+03  0.00000000000E+00 0. -1.
<scales pt_clust_5="13000.00000" pt_clust_6="13000.00000" pt_clust_7="13000.00000" pt_clust_8="13000.00000" pt_clust_9="99.58301" pt_clust_10="98.64326"></scales>
<clustering>
<clus scale="   90.736">  7  8 -1 -1</clus>
<clus scale="   93.847">  5  6 -1 -1</clus>
<clus scale="   98.643">  2 10  1 -1</clus>
<clus scale="   98.643">  2  5  1 -1</clus>
<clus scale="   99.583">  1  9  2 -1</clus>
<clus scale="   98.643">  2  5  1 -1</clus>
</clustering>
</event>
<event>
10    2  0.3544405E-006  0.1213744E+03  0.7546771E-02  0.1250308E+00
         21   -1    0    0  501  502  0.00000000000E+00  0.00000000000E+00  0.14549366616E+03  0.14549366616E+03  0.00000000000E+00 0.  1.
          2   -1    0    0  503    0 -0.00000000000E+00 -0.00000000000E+00 -0.39604109085E+03  0.39604109085E+03  0.00000000000E+00 0. -1.
         23    2    1    2    0    0  0.42636556322E+02 -0.54009080529E+02 -0.28928952985E+03  0.31179183430E+03  0.93759581596E+02 0.  0.
         23    2    1    2    0    0 -0.55685156179E+01  0.68573052862E+01  0.40446821165E+02  0.12316735853E+03  0.11600095630E+03 0.  0.
        -11    1    3    3    0    0  0.45712320075E+02  0.13381653821E+02 -0.14232537867E+03  0.15008397076E+03  0.00000000000E+00 0.  1.
         11    1    3    3    0    0 -0.30757637524E+01 -0.67390734349E+02 -0.14696415119E+03  0.16170786355E+03  0.00000000000E+00 0. -1.
        -13    1    4    4    0    0  0.32834344117E+02 -0.26702794649E+02  0.55681737235E+02  0.69939897463E+02  0.00000000000E+00 0. -1.
         13    1    4    4    0    0 -0.38402859735E+02  0.33560099936E+02 -0.15234916069E+02  0.53227461062E+02  0.00000000000E+00 0.  1.
         21    1    1    2  503  502 -0.10454528598E+02  0.36723453474E+02 -0.42263156825E+02  0.56956857604E+02  0.00000000000E+00 0. -1.
          2    1    1    2  501    0 -0.26613512106E+02  0.10428321769E+02  0.40558440821E+02  0.49618706587E+02  0.00000000000E+00 0. -1.
<scales pt_clust_5="13000.00000" pt_clust_6="13000.00000" pt_clust_7="13000.00000" pt_clust_8="13000.00000" pt_clust_9="39.48475" pt_clust_10="28.58372"></scales>
<clustering>
<clus scale="   28.584">  1 10  2 -1</clus>
<clus scale="   39.485">  2  9  1 -1</clus>
<clus scale="   93.760">  5  6 -1 -1</clus>
<clus scale="  100.331">  2  5  1 -1</clus>
<clus scale="  116.001">  7  8 -1 -1</clus>
<clus scale="   28.584">  1  5  2 -1</clus>
</clustering>
</event>
<event>
10    2  0.3544405E-006  0.1664657E+03  0.7546771E-02  0.1195116E+00
          2   -1    0    0  503    0 -0.00000000000E+00  0.00000000000E+00  0.22183695268E+03  0.22183695268E+03  0.00000000000E+00 0. -1.
         21   -1    0    0  501  502  0.00000000000E+00 -0.00000000000E+00 -0.86083525837E+03  0.86083525837E+03  0.00000000000E+00 0. -1.
         23    2    1    2    0    0 -0.36646490883E+02  0.49571594740E+02  0.13597868696E+03  0.17429742542E+03  0.89939317890E+02 0.  0.
         23    2    1    2    0    0  0.37240206739E+01 -0.17283039460E+03 -0.30606738604E+03  0.36277536048E+03  0.89691157561E+02 0.  0.
        -13    1    4    4    0    0  0.42262154674E+02 -0.50419658999E+02 -0.90242265322E+02  0.11167765301E+03  0.00000000000E+00 0.  1.
         13    1    4    4    0    0 -0.38538134000E+02 -0.12241073560E+03 -0.21582512072E+03  0.25109770747E+03  0.00000000000E+00 0. -1.
        -13    1    3    3    0    0 -0.59566524398E+02  0.17343097891E+02  0.50074228105E+02  0.79726922640E+02  0.00000000000E+00 0. -1.
         13    1    3    3    0    0  0.22920033514E+02  0.32228496849E+02  0.85904458855E+02  0.94570502783E+02  0.00000000000E+00 0.  1.
         21    1    1    2  503  502 -0.34721324027E+02  0.59123412035E+01  0.18455096252E+02  0.39763258146E+02  0.00000000000E+00 0.  1.
          2    1    1    2  501    0  0.67643794237E+02  0.11734645866E+03 -0.48736470286E+03  0.50583616700E+03  0.00000000000E+00 0. -1.
<scales pt_clust_5="13000.00000" pt_clust_6="13000.00000" pt_clust_7="13000.00000" pt_clust_8="13000.00000" pt_clust_9="35.22110" pt_clust_10="140.23671"></scales>
<clustering>
<clus scale="   35.221">  1  9  2 -1</clus>
<clus scale="   89.691">  5  6 -1 -1</clus>
<clus scale="   89.939">  7  8 -1 -1</clus>
<clus scale="  123.343">  1  7  2 -1</clus>
<clus scale="  140.237">  2 10  1 -1</clus>
<clus scale="  140.237">  2  5  1 -1</clus>
</clustering>
</event>
<event>
10    2  0.3544405E-006  0.9736740E+02  0.7546771E-02  0.1288623E+00
         21   -1    0    0  501  502  0.00000000000E+00  0.00000000000E+00  0.86613497961E+02  0.86613497961E+02  0.00000000000E+00 0. -1.
          1   -1    0    0  503    0 -0.00000000000E+00 -0.00000000000E+00 -0.41180132035E+03  0.41180132035E+03  0.00000000000E+00 0. -1.
         23    2    1    2    0    0  0.80061813113E+01 -0.62817522337E+02 -0.16874586901E+03  0.19985587729E+03  0.86354289584E+02 0.  0.
         23    2    1    2    0    0  0.49642486498E+02 -0.54062030542E+01 -0.68633152433E+02  0.12479651927E+03  0.91488021679E+02 0.  0.
        -13    1    4    4    0    0  0.10609866971E+02 -0.43383105281E+02 -0.12039645804E+02  0.46255985257E+02  0.00000000000E+00 0.  1.
         13    1    4    4    0    0  0.39032619526E+02  0.37976902227E+02 -0.56593506628E+02  0.78540534008E+02  0.00000000000E+00 0. -1.
        -13    1    3    3    0    0 -0.34907257386E+02 -0.31267742119E+02 -0.44287508960E+02  0.64479235148E+02  0.00000000000E+00 0. -1.
         13    1    3    3    0    0  0.42913438697E+02 -0.31549780218E+02 -0.12445836005E+03  0.13537664214E+03  0.00000000000E+00 0.  1.
         21    1    1    2  503  502 -0.25218667982E+02  0.40574394277E+02 -0.11409364136E+03  0.12369163951E+03  0.00000000000E+00 0. -1.
          1    1    1    2  501    0 -0.32429999827E+02  0.27649331114E+02  0.26284840406E+02  0.50070782248E+02  0.00000000000E+00 0. -1.
<scales pt_clust_5="13000.00000" pt_clust_6="13000.00000" pt_clust_7="13000.00000" pt_clust_8="13000.00000" pt_clust_9="51.81179" pt_clust_10="42.61679"></scales>
<clustering>
<clus scale="   42.617">  1 10  2 -1</clus>
<clus scale="   51.812">  2  9  1 -1</clus>
<clus scale="   86.354">  7  8 -1 -1</clus>
<clus scale="   91.488">  5  6 -1 -1</clus>
<clus scale="   92.560">  2  7  1 -1</clus>
<clus scale="   42.617">  1  5  2 -1</clus>
</clustering>
</event>
<event>
10    2  0.3544405E-006  0.2783143E+03  0.7546771E-02  0.1096617E+00
         21   -1    0    0  501  502  0.00000000000E+00  0.00000000000E+00  0.95152380478E+03  0.95152380478E+03  0.00000000000E+00 0. -1.
          2   -1    0    0  503    0 -0.00000000000E+00 -0.00000000000E+00 -0.31030996758E+03  0.31030996758E+03  0.00000000000E+00 0. -1.
         23    2    1    2    0    0  0.23422615531E+03  0.13559067037E+03  0.19837043273E+03  0.34759625611E+03  0.90695131933E+02 0.  0.
         23    2    1    2    0    0 -0.17148771152E+03 -0.20139376241E+03  0.21698120492E+03  0.35391800828E+03  0.90607011637E+02 0.  0.
        -11    1    3    3    0    0  0.12531617735E+03  0.12295427622E+03  0.12887991978E+03  0.21778873265E+03  0.00000000000E+00 0.  1.
         11    1    3    3    0    0  0.10890997796E+03  0.12636394150E+02  0.69490512946E+02  0.12980752346E+03  0.00000000000E+00 0. -1.
        -13    1    4    4    0    0 -0.23063136941E+02  0.46860979491E+01  0.74863692900E+01  0.24696427367E+02  0.00000000000E+00 0.  1.
         13    1    4    4    0    0 -0.14842457458E+03 -0.20607986036E+03  0.20949483563E+03  0.32922158091E+03  0.00000000000E+00 0. -1.
         21    1    1    2  503  502 -0.29790541262E+02  0.13099321177E+02 -0.16315462632E+03  0.16636856870E+03  0.00000000000E+00 0. -1.
          2    1    1    2  501    0 -0.32947902527E+02  0.52703770857E+02  0.38901682587E+03  0.39395093927E+03  0.00000000000E+00 0. -1.
<scales pt_clust_5="13000.00000" pt_clust_6="13000.00000" pt_clust_7="13000.00000" pt_clust_8="13000.00000" pt_clust_9="32.54333" pt_clust_10="62.61177"></scales>
<clustering>
<clus scale="   32.543">  2  9  1 -1</clus>
<clus scale="   62.612">  1 10  2 -1</clus>
<clus scale="   90.607">  7  8 -1 -1</clus>
<clus scale="   90.695">  5  6 -1 -1</clus>
<clus scale="  278.286">  1  7  2 -1</clus>
<clus scale="   62.612">  1  5  2 -1</clus>
</clustering>
</event>
<event>
10    2  0.3544405E-006  0.1043661E+03  0.7546771E-02  0.1272247E+00
          2   -1    0    0  503    0 -0.00000000000E+00  0.00000000000E+00  0.54860568022E+03  0.54860568022E+03  0.00000000000E+00 0. -1.
         21   -1    0    0  501  502  0.00000000000E+00 -0.00000000000E+00 -0.34688280275E+02  0.34688280275E+02  0.00000000000E+00 0.  1.
         23    2    1    2    0    0  0.61282802243E+02 -0.54588246868E+01  0.25382097388E+03  0.27691329529E+03  0.92035350326E+02 0.  0.
         23    2    1    2    0    0 -0.44887137401E+02 -0.16558168686E+02  0.12419461171E+03  0.16069528182E+03  0.90053561667E+02 0.  0.
        -11    1    3    3    0    0  0.36650365330E+02 -0.35449640345E+02  0.21871935554E+03  0.22458424426E+03  0.00000000000E+00 0.  1.
         11    1    3    3    0    0  0.24632436913E+02  0.29990815658E+02  0.35101618334E+02  0.52329051031E+02  0.00000000000E+00 0. -1.
        -13    1    4    4    0    0  0.11379111130E+02 -0.32075376327E+02  0.15664225007E+02  0.37465742776E+02  0.00000000000E+00 0.  1.
         13    1    4    4    0    0 -0.56266248531E+02  0.15517207641E+02  0.10853038670E+03  0.12322953905E+03  0.00000000000E+00 0. -1.
         21    1    1    2  503  502 -0.23057176299E+02  0.18436140282E+01  0.10889186049E+03  0.11132146950E+03  0.00000000000E+00 0. -1.
          2    1    1    2  501    0  0.66615114575E+01  0.20173379345E+02  0.27009953873E+02  0.34363913883E+02  0.00000000000E+00 0. -1.
<scales pt_clust_5="13000.00000" pt_clust_6="13000.00000" pt_clust_7="13000.00000" pt_clust_8="13000.00000" pt_clust_9="22.94788" pt_clust_10="21.24479"></scales>
<clustering>
<clus scale="   21.245">  2 10  1 -1</clus>
<clus scale="   22.948">  1  9  2 -1</clus>
<clus scale="   90.054">  7  8 -1 -1</clus>
<clus scale="   92.035">  5  6 -1 -1</clus>
<clus scale="  102.623">  2  7  1 -1</clus>
<clus scale="   21.245">  2  5  1 -1</clus>
</clustering>
</event>
<event>
10    2  0.3544405E-006  0.9589046E+02  0.7546771E-02  0.1290483E+00
          1   -1    0    0  503    0 -0.00000000000E+00  0.00000000000E+00  0.23287162169E+03  0.23287162169E+03  0.00000000000E+00 0. -1.
         21   -1    0    0  501  502  0.00000000000E+00 -0.00000000000E+00 -0.38603571996E+03  0.38603571996E+03  0.00000000000E+00 0. -1.
         23    2    1    2    0    0  0.90060650577E+01  0.15727534876E+02  0.46607073981E+02  0.10567763519E+03  0.93097146433E+02 0.  0.
         23    2    1    2    0    0  0.53543410792E+02 -0.65074548665E+01  0.22861727139E+02  0.10799011531E+03  0.90719141467E+02 0.  0.
        -11    1    4    4    0    0  0.35120952225E+02  0.40794614164E+02  0.18983119739E+02  0.57079248988E+02  0.00000000000E+00 0.  1.
         11    1    4    4    0    0  0.18422458566E+02 -0.47302069030E+02  0.38786074003E+01  0.50910866321E+02  0.00000000000E+00 0. -1.
        -13    1    3    3    0    0  0.14501192351E+02  0.47877669246E+02  0.15440534657E+01  0.50049374553E+02  0.00000000000E+00 0.  1.
         13    1    3    3    0    0 -0.54951272933E+01 -0.32150134370E+02  0.45063020516E+02  0.55628260641E+02  0.00000000000E+00 0. -1.
         21    1    1    2  503  502 -0.24232932944E+02 -0.14172154827E+02  0.87919785677E+02  0.92292869308E+02  0.00000000000E+00 0. -1.
          1    1    1    2  501    0 -0.38316542905E+02  0.49520748178E+01 -0.31055268507E+03  0.31294672184E+03  0.00000000000E+00 0. -1.
<scales pt_clust_5="13000.00000" pt_clust_6="13000.00000" pt_clust_7="13000.00000" pt_clust_8="13000.00000" pt_clust_9="28.07285" pt_clust_10="38.82177"></scales>
<clustering>
<clus scale="   28.073">  1  9  2 -1</clus>
<clus scale="   38.822">  2 10  1 -1</clus>
<clus scale="   90.719">  5  6 -1 -1</clus>
<clus scale="   93.097">  7  8 -1 -1</clus>
<clus scale="   93.583">  2  5  1 -1</clus>
<clus scale="   38.822">  2  5  1 -1</clus>
</clustering>
</event>
<event>
10    2  0.3544405E-006  0.1022019E+03  0.7546771E-02  0.1276296E+00
         21   -1    0    0  501  502  0.00000000000E+00  0.00000000000E+00  0.61351316620E+02  0.61351316620E+02  0.00000000000E+00 0. -1.
          3   -1    0    0  503    0 -0.00000000000E+00 -0.00000000000E+00 -0.48385132841E+03  0.48385132841E+03  0.00000000000E+00 0. -1.
         23    2    1    2    0    0 -0.30898946991E+02 -0.17549610132E+02 -0.30294610701E+03  0.31864558457E+03  0.92173375093E+02 0.  0.
         23    2    1    2    0    0  0.30919330065E+02  0.65678654823E+02 -0.40294183894E+02  0.12315157820E+03  0.90956029405E+02 0.  0.
        -11    1    3    3    0    0  0.54173892243E+01  0.34639643297E+02 -0.11603355598E+03  0.12121484690E+03  0.00000000000E+00 0.  1.
         11    1    3    3    0    0 -0.36316336215E+02 -0.52189253429E+02 -0.18691255102E+03  0.19743073768E+03  0.00000000000E+00 0. -1.
        -13    1    4    4    0    0 -0.45075479550E+01 -0.21043083626E+02 -0.14624811502E+02  0.26019501697E+02  0.00000000000E+00 0.  1.
         13    1    4    4    0    0  0.35426878020E+02  0.86721738449E+02 -0.25669372392E+02  0.97132076499E+02  0.00000000000E+00 0. -1.
         21    1    1    2  503  502  0.13796638850E+02 -0.19038438108E+02 -0.63172152603E+02  0.67405713658E+02  0.00000000000E+00 0. -1.
          3    1    1    2  501    0 -0.13817021924E+02 -0.29090606583E+02 -0.16087568285E+02  0.35999768604E+02  0.00000000000E+00 0. -1.
<scales pt_clust_5="13000.00000" pt_clust_6="13000.00000" pt_clust_7="13000.00000" pt_clust_8="13000.00000" pt_clust_9="23.51190" pt_clust_10="32.93194"></scales>
<clustering>
<clus scale="   23.512">  2  9  1 -1</clus>
<clus scale="   32.932">  1 10  2 -1</clus>
<clus scale="   90.956">  7  8 -1 -1</clus>
<clus scale="   92.173">  5  6 -1 -1</clus>
<clus scale="  101.105">  1  7  2 -1</clus>
<clus scale="   32.932">  1  5  2 -1</clus>
</clustering>
</event>
<event>
10    2  0.3544405E-006  0.1764893E+03  0.7546771E-02  0.1172046E+00
          1   -1    0    0  503    0 -0.00000000000E+00  0.00000000000E+00  0.10664761808E+04  0.10664761808E+04  0.00000000000E+00 0. -1.
         21   -1    0    0  501  502  0.00000000000E+00 -0.00000000000E+00 -0.82449254548E+02  0.82449254548E+02  0.00000000000E+00 0.  1.
         23    2    1    2    0    0  0.16212807725E+03  0.42461810397E+01  0.30509673809E+03  0.35891871514E+03  0.97134345102E+02 0.  0.
         23    2    1    2    0    0 -0.13017171294E+03 -0.39033959667E+02  0.18814412009E+03  0.24936636953E+03  0.91197869901E+02 0.  0.
        -13    1    3    3    0    0  0.88114701889E+00  0.22649631180E+02  0.67331895330E+02  0.71044819244E+02  0.00000000000E+00 0. -1.
         13    1    3    3    0    0  0.16124693023E+03 -0.18403450140E+02  0.23776484276E+03  0.28787389589E+03  0.00000000000E+00 0.  1.
        -13    1    4    4    0    0 -0.95880816330E+02  0.14642633120E+02  0.89693141012E+02  0.13210752132E+03  0.00000000000E+00 0.  1.
         13    1    4    4    0    0 -0.34290896607E+02 -0.53676592787E+02  0.98450979073E+02  0.11725884821E+03  0.00000000000E+00 0. -1.
         21    1    1    2  503  502 -0.22567571073E+02  0.64454805557E+02  0.50270212771E+03  0.50731957032E+03  0.00000000000E+00 0. -1.
          1    1    1    2  501    0 -0.93887932375E+01 -0.29667026929E+02 -0.11916059648E+02  0.33320780345E+02  0.00000000000E+00 0. -1.
<scales pt_clust_5="13000.00000" pt_clust_6="13000.00000" pt_clust_7="13000.00000" pt_clust_8="13000.00000" pt_clust_9="67.33453" pt_clust_10="31.11723"></scales>
<clustering>
<clus scale="   31.117">  2 10  1 -1</clus>
<clus scale="   67.335">  1  9  2 -1</clus>
<clus scale="   91.198">  7  8 -1 -1</clus>
<clus scale="   97.134">  5  6 -1 -1</clus>
<clus scale="  173.293">  2  7  1 -1</clus>
<clus scale="   31.117">  2  5  1 -1</clus>
</clustering>
</event>
<event>
10    2  0.3544405E-006  0.3176062E+03  0.7546771E-02  0.1076789E+00
         -2   -1    0    0    0  501 -0.00000000000E+00  0.00000000000E+00  0.96169821562E+03  0.96169821562E+03  0.00000000000E+00 0.  1.
         21   -1    0    0  503  502  0.00000000000E+00 -0.00000000000E+00 -0.26720147364E+03  0.26720147364E+03  0.00000000000E+00 0.  1.
         23    2    1    2    0    0 -0.15692486779E+02 -0.26268051164E+03  0.23184069335E+03  0.36217499279E+03  0.90406376838E+02 0.  0.
         23    2    1    2    0    0  0.22324442394E+03  0.31693195317E+03  0.40495150390E+03  0.56799889424E+03  0.91395227398E+02 0.  0.
        -11    1    3    3    0    0 -0.48910255495E+00 -0.22386746288E+03  0.14748882663E+03  0.26808549781E+03  0.00000000000E+00 0. -1.
         11    1    3    3    0    0 -0.15203384224E+02 -0.38813048762E+02  0.84351866719E+02  0.94089494977E+02  0.00000000000E+00 0.  1.
        -13    1    4    4    0    0 -0.39097692418E+01  0.39645554407E+02  0.41294285596E+02  0.57378343498E+02  0.00000000000E+00 0. -1.
         13    1    4    4    0    0  0.22715419318E+03  0.27728639876E+03  0.36365721831E+03  0.51062055075E+03  0.00000000000E+00 0.  1.
         21    1    1    2  503  501  0.17076543697E+01  0.23707478925E+02  0.71146619840E+02  0.75012013405E+02  0.00000000000E+00 0. -1.
         -2    1    1    2    0  502 -0.20925959153E+03 -0.77958920449E+02 -0.13442075111E+02  0.22371378882E+03  0.00000000000E+00 0.  1.
<scales pt_clust_5="13000.00000" pt_clust_6="13000.00000" pt_clust_7="13000.00000" pt_clust_8="13000.00000" pt_clust_9="23.76890" pt_clust_10="222.15576"></scales>
<clustering>
<clus scale="   23.769">  1  9  2 -1</clus>
<clus scale="   90.406">  5  6 -1 -1</clus>
<clus scale="   91.395">  7  8 -1 -1</clus>
<clus scale="  222.156">  2 10  1 -1</clus>
<clus scale="  317.323">  1  5  2 -1</clus>
<clus scale="  222.156">  2  5  1 -1</clus>
</clustering>
</event>
<event>
10    2  0.3544405E-006  0.1199424E+03  0.7546771E-02  0.1245276E+00
         21   -1    0    0  503  502  0.00000000000E+00  0.00000000000E+00  0.97564941555E+02  0.97564941555E+02  0.00000000000E+00 0.  1.
         -1   -1    0    0    0  501 -0.00000000000E+00 -0.00000000000E+00 -0.46641741795E+03  0.46641741795E+03  0.00000000000E+00 0.  1.
         23    2    1    2    0    0  0.39416373234E+02  0.54640308437E+02 -0.25393789663E+03  0.27811448438E+03  0.91235942963E+02 0.  0.
         23    2    1    2    0    0 -0.75122612158E+02 -0.57576388965E+02 -0.40883912250E+02  0.14182352621E+03  0.97385681100E+02 0.  0.
        -13    1    3    3    0    0  0.66093432416E+02  0.55550857383E+02 -0.20325898002E+03  0.22083580444E+03  0.00000000000E+00 0.  1.
         13    1    3    3    0    0 -0.26677059182E+02 -0.91054894544E+00 -0.50678916611E+02  0.57278679933E+02  0.00000000000E+00 0. -1.
        -13    1    4    4    0    0 -0.94720309424E+02 -0.44164087622E+02 -0.50660880707E+02  0.11614184641E+03  0.00000000000E+00 0.  1.
         13    1    4    4    0    0  0.19597697267E+02 -0.13412301343E+02  0.97769684573E+01  0.25681679807E+02  0.00000000000E+00 0. -1.
         21    1    1    2  503  501  0.23082953010E+02 -0.36464733187E+02 -0.89907604909E+02  0.99729017375E+02  0.00000000000E+00 0.  1.
         -1    1    1    2    0  502  0.12623285913E+02  0.39400813715E+02  0.15876937396E+02  0.44315331542E+02  0.00000000000E+00 0.  1.
<scales pt_clust_5="13000.00000" pt_clust_6="13000.00000" pt_clust_7="13000.00000" pt_clust_8="13000.00000" pt_clust_9="41.28969" pt_clust_10="41.37356"></scales>
<clustering>
<clus scale="   41.374">  1 10  2 -1</clus>
<clus scale="   41.290">  2  9  1 -1</clus>
<clus scale="   91.236">  5  6 -1 -1</clus>
<clus scale="   97.386">  7  8 -1 -1</clus>
<clus scale="  115.005">  2  5  1 -1</clus>
<clus scale="   41.374">  1  5  2 -1</clus>
</clustering>
</event>
<event>
10    2  0.3544405E-006  0.1287969E+03  0.7546771E-02  0.1229334E+00
          2   -1    0    0  503    0 -0.00000000000E+00  0.00000000000E+00  0.89651605473E+02  0.89651605473E+02  0.00000000000E+00 0. -1.
         21   -1    0    0  501  502  0.00000000000E+00 -0.00000000000E+00 -0.72848113458E+03  0.72848113458E+03  0.00000000000E+00 0.  1.
         23    2    1    2    0    0  0.48648127052E+02 -0.57889896369E+02 -0.23704395712E+02  0.12093493176E+03  0.91353593123E+02 0.  0.
         23    2    1    2    0    0 -0.34142350713E+02  0.54490634551E+02 -0.39795674709E+03  0.41327171886E+03  0.91044009594E+02 0.  0.
        -11    1    4    4    0    0 -0.99363179680E+01  0.70662660225E+02 -0.34976398371E+03  0.35696888697E+03  0.00000000000E+00 0.  1.
         11    1    4    4    0    0 -0.24206032745E+02 -0.16172025675E+02 -0.48192763383E+02  0.56302831884E+02  0.00000000000E+00 0. -1.
        -13    1    3    3    0    0 -0.26468010288E+02 -0.62257222956E+01 -0.22970104552E+01  0.27287202930E+02  0.00000000000E+00 0.  1.
         13    1    3    3    0    0  0.75116137340E+02 -0.51664174074E+02 -0.21407385257E+02  0.93647728830E+02  0.00000000000E+00 0. -1.
         21    1    1    2  503  502  0.12077373108E+02 -0.25188056737E+02  0.25689581929E+02  0.37950701747E+02  0.00000000000E+00 0. -1.
          2    1    1    2  501    0 -0.26583149447E+02  0.28587318556E+02 -0.24285796824E+03  0.24597538770E+03  0.00000000000E+00 0. -1.
<scales pt_clust_5="13000.00000" pt_clust_6="13000.00000" pt_clust_7="13000.00000" pt_clust_8="13000.00000" pt_clust_9="27.93387" pt_clust_10="38.31898"></scales>
<clustering>
<clus scale="   27.934">  1  9  2 -1</clus>
<clus scale="   38.319">  2 10  1 -1</clus>
<clus scale="   91.044">  5  6 -1 -1</clus>
<clus scale="   91.354">  7  8 -1 -1</clus>
<clus scale="  128.578">  2  5  1 -1</clus>
<clus scale="   38.319">  2  5  1 -1</clus>
</clustering>
</event>
<event>
10    2  0.3544405E-006  0.1425112E+03  0.7546771E-02  0.1213143E+00
          3   -1    0    0  503    0 -0.00000000000E+00  0.00000000000E+00  0.13708575568E+03  0.13708575568E+03  0.00000000000E+00 0. -1.
         21   -1    0    0  501  502  0.00000000000E+00 -0.00000000000E+00 -0.51632228158E+03  0.51632228158E+03  0.00000000000E+00 0.  1.
         23    2    1    2    0    0 -0.76503724775E+02  0.13346707198E+02 -0.10795427389E+03  0.16216851444E+03  0.92809198496E+02 0.  0.
         23    2    1    2    0    0  0.12029514350E+03 -0.54361525286E+01 -0.11325756597E+03  0.19619920998E+03  0.10567109560E+03 0.  0.
        -11    1    4    4    0    0  0.35822918635E+02 -0.36884594266E+02  0.43756175156E-01  0.51417474736E+02  0.00000000000E+00 0. -1.
         11    1    4    4    0    0  0.84472224862E+02  0.31448441737E+02 -0.11330132215E+03  0.14478173525E+03  0.00000000000E+00 0.  1.
        -13    1    3    3    0    0 -0.76227801884E+02  0.45278692641E+02 -0.73230741602E+02  0.11499382289E+03  0.00000000000E+00 0. -1.
         13    1    3    3    0    0 -0.27592289141E+00 -0.31931985443E+02 -0.34723532289E+02  0.47174691546E+02  0.00000000000E+00 0.  1.
         21    1    1    2  503  502  0.26002075592E+02  0.12829705274E+02  0.59210166653E+02  0.65928393789E+02  0.00000000000E+00 0. -1.
          3    1    1    2  501    0 -0.69793494313E+02 -0.20740259943E+02 -0.21723485268E+03  0.22911191905E+03  0.00000000000E+00 0. -1.
<scales pt_clust_5="13000.00000" pt_clust_6="13000.00000" pt_clust_7="13000.00000" pt_clust_8="13000.00000" pt_clust_9="28.99499" pt_clust_10="70.53342"></scales>
<clustering>
<clus scale="   28.995">  1  9  2 -1</clus>
<clus scale="   70.533">  2 10  1 -1</clus>
<clus scale="   92.809">  7  8 -1 -1</clus>
<clus scale="  105.671">  5  6 -1 -1</clus>
<clus scale="  133.254">  1  7  2 -1</clus>
<clus scale="   70.533">  2  5  1 -1</clus>
</clustering>
</event>
<event>
10    2  0.3544405E-006  0.1627984E+03  0.7546771E-02  0.1195501E+00
         21   -1    0    0  503  502  0.00000000000E+00  0.00000000000E+00  0.17062540005E+03  0.17062540005E+03  0.00000000000E+00 0.  1.
         -1   -1    0    0    0  501 -0.00000000000E+00 -0.00000000000E+00 -0.56672330748E+03  0.56672330748E+03  0.00000000000E+00 0.  1.
         23    2    1    2    0    0 -0.99614117115E+02  0.16642427818E+02 -0.19420534860E+03  0.23696120909E+03  0.90746649830E+02 0.  0.
         23    2    1    2    0    0  0.91489380426E+02  0.54582562045E+02 -0.12601876524E+03  0.18889741994E+03  0.91934450870E+02 0.  0.
        -11    1    3    3    0    0 -0.67148143015E+02  0.36227482103E+02 -0.18164623618E+03  0.19701943734E+03  0.00000000000E+00 0.  1.
         11    1    3    3    0    0 -0.32465974100E+02 -0.19585054286E+02 -0.12559112414E+02  0.39941771747E+02  0.00000000000E+00 0. -1.
        -13    1    4    4    0    0 -0.12058481097E+02  0.29446946113E+02 -0.15560797619E+02  0.35421293374E+02  0.00000000000E+00 0.  1.
         13    1    4    4    0    0  0.10354786152E+03  0.25135615932E+02 -0.11045796762E+03  0.15347612656E+03  0.00000000000E+00 0. -1.
         21    1    1    2  503  501  0.46935210203E+02  0.77414357000E+02 -0.12123804216E+03  0.15130948250E+03  0.00000000000E+00 0. -1.
         -1    1    1    2    0  502 -0.38810473514E+02 -0.14863934686E+03  0.45364248570E+02  0.16018059601E+03  0.00000000000E+00 0.  1.
<scales pt_clust_5="13000.00000" pt_clust_6="13000.00000" pt_clust_7="13000.00000" pt_clust_8="13000.00000" pt_clust_9="90.53119" pt_clust_10="134.35537"></scales>
<clustering>
<clus scale="   90.531">  2  9  1 -1</clus>
<clus scale="   90.747">  5  6 -1 -1</clus>
<clus scale="   91.934">  7  8 -1 -1</clus>
<clus scale="  130.759">  2  5  1 -1</clus>
<clus scale="  134.355">  1 10  2 -1</clus>
<clus scale="  134.355">  1  5  2 -1</clus>
</clustering>
</event>
<event>
10    2  0.3544405E-006  0.1423503E+03  0.7546771E-02  0.1210522E+00
         21   -1    0    0  501  502  0.00000000000E+00  0.00000000000E+00  0.26093562588E+03  0.26093562588E+03  0.00000000000E+00 0. -1.
          1   -1    0    0  503    0 -0.00000000000E+00 -0.00000000000E+00 -0.48618700800E+03  0.48618700800E+03  0.00000000000E+00 0. -1.
         23    2    1    2    0    0 -0.16938095931E+02 -0.39327307861E+02 -0.38716404642E+03  0.40049674311E+03  0.93102664639E+02 0.  0.
         23    2    1    2    0    0  0.33899921358E+02  0.12089150892E+03  0.18830129577E+03  0.24415888408E+03  0.91609066624E+02 0.  0.
        -11    1    3    3    0    0 -0.38649856729E+02 -0.55191646260E+02 -0.33607863350E+03  0.34276635940E+03  0.00000000000E+00 0.  1.
         11    1    3    3    0    0  0.21711760798E+02  0.15864338399E+02 -0.51085412920E+02  0.57730383708E+02  0.00000000000E+00 0. -1.
        -13    1    4    4    0    0  0.34743887527E+02  0.71371365522E+02  0.17608073761E+03  0.19314615113E+03  0.00000000000E+00 0. -1.
         13    1    4    4    0    0 -0.84396616854E+00  0.49520143403E+02  0.12220558158E+02  0.51012732953E+02  0.00000000000E+00 0.  1.
         21    1    1    2  503  502 -0.35820374653E+02 -0.60214750275E+02 -0.23192101242E+02  0.73802364128E+02  0.00000000000E+00 0.  1.
          1    1    1    2  501    0  0.18858549227E+02 -0.21349450790E+02 -0.31965302327E+01  0.28664642567E+02  0.00000000000E+00 0. -1.
<scales pt_clust_5="13000.00000" pt_clust_6="13000.00000" pt_clust_7="13000.00000" pt_clust_8="13000.00000" pt_clust_9="71.00521" pt_clust_10="28.48585"></scales>
<clustering>
<clus scale="   28.486">  1 10  2 -1</clus>
<clus scale="   71.005">  2  9  1 -1</clus>
<clus scale="   91.609">  7  8 -1 -1</clus>
<clus scale="   93.103">  5  6 -1 -1</clus>
<clus scale="  141.378">  1  7  2 -1</clus>
<clus scale="   28.486">  1  5  2 -1</clus>
</clustering>
</event>
<event>
10    2  0.3544405E-006  0.1817964E+03  0.7546771E-02  0.1166145E+00
         21   -1    0    0  501  502  0.00000000000E+00  0.00000000000E+00  0.74548946280E+02  0.74548946280E+02  0.00000000000E+00 0.  1.
          2   -1    0    0  503    0 -0.00000000000E+00 -0.00000000000E+00 -0.72550463690E+03  0.72550463690E+03  0.00000000000E+00 0. -1.
         23    2    1    2    0    0  0.78089550902E+02 -0.10922396865E+03 -0.21576213489E+03  0.27044378059E+03  0.92513168349E+02 0.  0.
         23    2    1    2    0    0 -0.10031377599E+03  0.15341304444E+03 -0.31341228573E+03  0.37453823748E+03  0.91941365208E+02 0.  0.
        -13    1    3    3    0    0  0.62600727749E+02 -0.45749890447E+02 -0.17993314999E+03  0.19592815534E+03  0.00000000000E+00 0. -1.
         13    1    3    3    0    0  0.15488823154E+02 -0.63474078206E+02 -0.35828984901E+02  0.74515625246E+02  0.00000000000E+00 0.  1.
        -13    1    4    4    0    0 -0.37657989805E+02  0.13405930873E+03 -0.20448358298E+03  0.24739352894E+03  0.00000000000E+00 0.  1.
         13    1    4    4    0    0 -0.62655786184E+02  0.19353735705E+02 -0.10892870275E+03  0.12714470854E+03  0.00000000000E+00 0. -1.
         21    1    1    2  503  502 -0.27469420544E+02  0.20732777846E+01 -0.43041882923E+02  0.51102556016E+02  0.00000000000E+00 0.  1.
          2    1    1    2  501    0  0.49693645631E+02 -0.46262353568E+02 -0.78739387078E+02  0.10396900909E+03  0.00000000000E+00 0. -1.
<scales pt_clust_5="13000.00000" pt_clust_6="13000.00000" pt_clust_7="13000.00000" pt_clust_8="13000.00000" pt_clust_9="27.54755" pt_clust_10="65.03822"></scales>
<clustering>
<clus scale="   27.548">  2  9  1 -1</clus>
<clus scale="   65.038">  1 10  2 -1</clus>
<clus scale="   91.941">  7  8 -1 -1</clus>
<clus scale="   92.513">  5  6 -1 -1</clus>
<clus scale="  181.506">  1  7  2 -1</clus>
<clus scale="   65.038">  1  5  2 -1</clus>
</clustering>
</event>
<event>
10    2  0.3544405E-006  0.4801773E+03  0.7546771E-02  0.1019627E+00
         21   -1    0    0  501  502  0.00000000000E+00  0.00000000000E+00  0.69581976334E+03  0.69581976334E+03  0.00000000000E+00 0. -1.
          1   -1    0    0  503    0 -0.00000000000E+00 -0.00000000000E+00 -0.10834862721E+04  0.10834862721E+04  0.00000000000E+00 0. -1.
         23    2    1    2    0    0 -0.12494185195E+03 -0.33925665093E+03 -0.22510622731E+03  0.43543884667E+03  0.90711818691E+02 0.  0.
         23    2    1    2    0    0  0.10683647482E+03  0.43113015347E+03  0.41116916458E+03  0.61806709049E+03  0.12513834290E+03 0.  0.
        -13    1    3    3    0    0 -0.26255731023E+02 -0.70946694903E+02 -0.72260517106E+01  0.75993504673E+02  0.00000000000E+00 0.  1.
         13    1    3    3    0    0 -0.98686120923E+02 -0.26830995603E+03 -0.21788017560E+03  0.35944534200E+03  0.00000000000E+00 0. -1.
        -13    1    4    4    0    0  0.21739925070E+02  0.83419706831E+01  0.51442183917E+02  0.56466902723E+02  0.00000000000E+00 0.  1.
         13    1    4    4    0    0  0.85096549746E+02  0.42278818279E+03  0.35972698066E+03  0.56160018776E+03  0.00000000000E+00 0. -1.
         21    1    1    2  503  502 -0.26819469130E+02 -0.19622706150E+03 -0.57913010464E+03  0.61205883842E+03  0.00000000000E+00 0. -1.
          1    1    1    2  501    0  0.44924846260E+02  0.10435355896E+03  0.54006586180E+01  0.11374125985E+03  0.00000000000E+00 0. -1.
<scales pt_clust_5="13000.00000" pt_clust_6="13000.00000" pt_clust_7="13000.00000" pt_clust_8="13000.00000" pt_clust_9="195.22001" pt_clust_10="113.61297"></scales>
<clustering>
<clus scale="   90.712">  5  6 -1 -1</clus>
<clus scale="  113.613">  1 10  2 -1</clus>
<clus scale="  125.138">  7  8 -1 -1</clus>
<clus scale="  195.220">  2  9  1 -1</clus>
<clus scale="  472.376">  2  5  1 -1</clus>
<clus scale="  113.613">  1  5  2 -1</clus>
</clustering>
</event>
<event>
10    2  0.3544405E-006  0.1020364E+03  0.7546771E-02  0.1279732E+00
          1   -1    0    0  503    0 -0.00000000000E+00  0.00000000000E+00  0.56289436637E+03  0.56289436637E+03  0.00000000000E+00 0. -1.
         21   -1    0    0  501  502  0.00000000000E+00 -0.00000000000E+00 -0.10950660734E+03  0.10950660734E+03  0.00000000000E+00 0.  1.
         23    2    1    2    0    0 -0.39228302526E+02  0.30807410958E+02  0.86072801649E+02  0.13465391041E+03  0.90747959287E+02 0.  0.
         23    2    1    2    0    0  0.32104294834E+02  0.14487728311E+02  0.20198722106E+02  0.10602948207E+03  0.97947346442E+02 0.  0.
        -11    1    4    4    0    0  0.23485932550E+02 -0.36997689460E+02 -0.11043689664E+02  0.45192711078E+02  0.00000000000E+00 0. -1.
         11    1    4    4    0    0  0.86183622843E+01  0.51485417771E+02  0.31242411771E+02  0.60836770993E+02  0.00000000000E+00 0.  1.
        -13    1    3    3    0    0 -0.65073084688E+02  0.39511791446E+02  0.60096776194E+02  0.96991290965E+02  0.00000000000E+00 0.  1.
         13    1    3    3    0    0  0.25844782162E+02 -0.87043804880E+01  0.25976025455E+02  0.37662619440E+02  0.00000000000E+00 0. -1.
         21    1    1    2  503  502  0.28307377637E+02 -0.40307308255E+02  0.38494082257E+03  0.38807914606E+03  0.00000000000E+00 0. -1.
          1    1    1    2  501    0 -0.21183369945E+02 -0.49878310144E+01 -0.37824587290E+02  0.43638435171E+02  0.00000000000E+00 0. -1.
<scales pt_clust_5="13000.00000" pt_clust_6="13000.00000" pt_clust_7="13000.00000" pt_clust_8="13000.00000" pt_clust_9="49.07183" pt_clust_10="21.76267"></scales>
<clustering>
<clus scale="   21.763">  2 10  1 -1</clus>
<clus scale="   49.072">  1  9  2 -1</clus>
<clus scale="   90.748">  7  8 -1 -1</clus>
<clus scale="   95.147">  1  7  2 -1</clus>
<clus scale="   97.947">  5  6 -1 -1</clus>
<clus scale="   21.763">  2  5  1 -1</clus>
</clustering>
</event>
<event>
10    2  0.3544405E-006  0.9671792E+02  0.7546771E-02  0.1287636E+00
         21   -1    0    0  503  502  0.00000000000E+00  0.00000000000E+00  0.74397327702E+03  0.74397327702E+03  0.00000000000E+00 0. -1.
         -3   -1    0    0    0  501 -0.00000000000E+00 -0.00000000000E+00 -0.24307693338E+02  0.24307693338E+02  0.00000000000E+00 0.  1.
         23    2    1    2    0    0  0.16318589972E+02 -0.31937052984E+01  0.20812586846E+03  0.22773021872E+03  0.90929529106E+02 0.  0.
         23    2    1    2    0    0 -0.45002027681E+02  0.14913147036E+02  0.29991500293E+03  0.31711769164E+03  0.91471508779E+02 0.  0.
        -13    1    3    3    0    0  0.78599849321E+01  0.32018949049E+02  0.25859977677E+02  0.41901442777E+02  0.00000000000E+00 0.  1.
         13    1    3    3    0    0  0.84586050399E+01 -0.35212654347E+02  0.18226589078E+03  0.18582877594E+03  0.00000000000E+00 0. -1.
        -13    1    4    4    0    0 -0.29405300792E+02  0.50762648109E+02  0.12784498384E+03  0.14066221259E+03  0.00000000000E+00 0.  1.
         13    1    4    4    0    0 -0.15596726889E+02 -0.35849501073E+02  0.17207001909E+03  0.17645547905E+03  0.00000000000E+00 0. -1.
         21    1    1    2  503  501  0.36174414229E+01 -0.32294633900E+02  0.58575749617E+02  0.66986175472E+02  0.00000000000E+00 0.  1.
         -3    1    1    2    0  502  0.25065996286E+02  0.20575192163E+02  0.15304896268E+03  0.15644688453E+03  0.00000000000E+00 0.  1.
<scales pt_clust_5="13000.00000" pt_clust_6="13000.00000" pt_clust_7="13000.00000" pt_clust_8="13000.00000" pt_clust_9="30.75215" pt_clust_10="32.42904"></scales>
<clustering>
<clus scale="   32.429">  1 10  2 -1</clus>
<clus scale="   30.752">  2  9  1 -1</clus>
<clus scale="   90.930">  5  6 -1 -1</clus>
<clus scale="   91.472">  7  8 -1 -1</clus>
<clus scale="   96.206">  2  5  1 -1</clus>
<clus scale="   32.429">  1  5  2 -1</clus>
</clustering>
</event>
<event>
10    2  0.3544405E-006  0.1019743E+03  0.7546771E-02  0.1276510E+00
         21   -1    0    0  501  502  0.00000000000E+00  0.00000000000E+00  0.13417860310E+03  0.13417860310E+03  0.00000000000E+00 0. -1.
          2   -1    0    0  503    0 -0.00000000000E+00 -0.00000000000E+00 -0.50709633880E+03  0.50709633880E+03  0.00000000000E+00 0. -1.
         23    2    1    2    0    0  0.26415756495E+02  0.30739076726E+02 -0.39598956846E+03  0.40823452487E+03  0.90581487833E+02 0.  0.
         23    2    1    2    0    0  0.15778135188E+02 -0.33961607325E+02  0.10552385602E+01  0.97390431112E+02  0.89896842111E+02 0.  0.
        -11    1    4    4    0    0 -0.13680179976E+02 -0.53967746793E+02  0.17229616228E+02  0.58279710821E+02  0.00000000000E+00 0.  1.
         11    1    4    4    0    0  0.29458315164E+02  0.20006139467E+02 -0.16174377668E+02  0.39110720290E+02  0.00000000000E+00 0. -1.
        -13    1    3    3    0    0 -0.18502360982E+02 -0.18555458052E+02 -0.56828880685E+02  0.62579262262E+02  0.00000000000E+00 0.  1.
         13    1    3    3    0    0  0.44918117477E+02  0.49294534777E+02 -0.33916068778E+03  0.34565526261E+03  0.00000000000E+00 0. -1.
         21    1    1    2  503  502 -0.27326235677E+02  0.22418961558E+02 -0.49102017946E+02  0.60500753383E+02  0.00000000000E+00 0. -1.
          2    1    1    2  501    0 -0.14867656006E+02 -0.19196430958E+02  0.71118612149E+02  0.75149232536E+02  0.00000000000E+00 0. -1.
<scales pt_clust_5="13000.00000" pt_clust_6="13000.00000" pt_clust_7="13000.00000" pt_clust_8="13000.00000" pt_clust_9="35.35498" pt_clust_10="24.28065"></scales>
<clustering>
<clus scale="   24.281">  1 10  2 -1</clus>
<clus scale="   35.355">  2  9  1 -1</clus>
<clus scale="   89.897">  5  6 -1 -1</clus>
<clus scale="   90.581">  7  8 -1 -1</clus>
<clus scale="  101.367">  1  5  2 -1</clus>
<clus scale="   24.281">  1  5  2 -1</clus>
</clustering>
</event>
<event>
10    2  0.3544405E-006  0.9694988E+02  0.7546771E-02  0.1288424E+00
         21   -1    0    0  501  502  0.00000000000E+00  0.00000000000E+00  0.13670983431E+03  0.13670983431E+03  0.00000000000E+00 0.  1.
          1   -1    0    0  503    0 -0.00000000000E+00 -0.00000000000E+00 -0.22153755729E+03  0.22153755729E+03  0.00000000000E+00 0. -1.
         23    2    1    2    0    0  0.28964326019E+01  0.10209017560E+02 -0.92344900108E+02  0.12923971397E+03  0.89792592842E+02 0.  0.
         23    2    1    2    0    0 -0.89066354901E+01  0.23075037362E+02  0.68186405585E+02  0.11775415664E+03  0.92762438490E+02 0.  0.
        -11    1    4    4    0    0  0.23694776710E+02  0.34038555111E+02  0.72058481023E+02  0.83141387797E+02  0.00000000000E+00 0.  1.
         11    1    4    4    0    0 -0.32601412200E+02 -0.10963517749E+02 -0.38720754386E+01  0.34612768844E+02  0.00000000000E+00 0. -1.
        -13    1    3    3    0    0  0.24182340103E+02  0.40618608023E+02 -0.74061034439E+02  0.87861787557E+02  0.00000000000E+00 0.  1.
         13    1    3    3    0    0 -0.21285907501E+02 -0.30409590463E+02 -0.18283865669E+02  0.41377926411E+02  0.00000000000E+00 0. -1.
         21    1    1    2  503  502  0.21810452033E+02 -0.45735842635E+02 -0.72093550164E+02  0.88118914511E+02  0.00000000000E+00 0. -1.
          1    1    1    2  501    0 -0.15800249145E+02  0.12451787713E+02  0.11424321704E+02  0.23134606474E+02  0.00000000000E+00 0. -1.
<scales pt_clust_5="13000.00000" pt_clust_6="13000.00000" pt_clust_7="13000.00000" pt_clust_8="13000.00000" pt_clust_9="49.46341" pt_clust_10="20.11703"></scales>
<clustering>
<clus scale="   20.117">  1 10  2 -1</clus>
<clus scale="   49.463">  2  9  1 -1</clus>
<clus scale="   89.793">  7  8 -1 -1</clus>
<clus scale="   92.762">  5  6 -1 -1</clus>
<clus scale="   94.112">  2  7  1 -1</clus>
<clus scale="   20.117">  1  5  2 -1</clus>
</clustering>
</event>
<event>
10    2  0.3544405E-006  0.1363029E+03  0.7546771E-02  0.1233885E+00
          1   -1    0    0  503    0 -0.00000000000E+00  0.00000000000E+00  0.20388255173E+03  0.20388255173E+03  0.00000000000E+00 0. -1.
         21   -1    0    0  501  502  0.00000000000E+00 -0.00000000000E+00 -0.26761724889E+03  0.26761724889E+03  0.00000000000E+00 0. -1.
         23    2    1    2    0    0  0.29589716008E+02  0.15383812109E+02  0.86429000676E+02  0.12858115252E+03  0.89167974394E+02 0.  0.
         23    2    1    2    0    0  0.58112708269E+02 -0.29623133927E+02  0.24527373069E+02  0.11544384464E+03  0.92038428443E+02 0.  0.
        -11    1    4    4    0    0  0.17964288123E+02 -0.51913751975E+02  0.38915325100E+02  0.67321288011E+02  0.00000000000E+00 0. -1.
         11    1    4    4    0    0  0.40148420147E+02  0.22290618048E+02 -0.14387952030E+02  0.48122556633E+02  0.00000000000E+00 0.  1.
        -13    1    3    3    0    0 -0.27069769419E+02  0.26022301158E+02  0.34484707068E+02  0.50981639788E+02  0.00000000000E+00 0.  1.
         13    1    3    3    0    0  0.56659485427E+02 -0.10638489048E+02  0.51944293609E+02  0.77599512734E+02  0.00000000000E+00 0. -1.
         21    1    1    2  503  502  0.19575583079E+02 -0.44601442042E+01  0.17306495719E+01  0.20151711767E+02  0.00000000000E+00 0.  1.
          1    1    1    2  501    0 -0.10727800736E+03  0.18699466022E+02 -0.17642172048E+03  0.20732309169E+03  0.00000000000E+00 0. -1.
<scales pt_clust_5="13000.00000" pt_clust_6="13000.00000" pt_clust_7="13000.00000" pt_clust_8="13000.00000" pt_clust_9="20.07726" pt_clust_10="100.53558"></scales>
<clustering>
<clus scale="   20.077">  1  9  2 -1</clus>
<clus scale="   89.168">  7  8 -1 -1</clus>
<clus scale="   92.038">  5  6 -1 -1</clus>
<clus scale="   98.779">  1  7  2 -1</clus>
<clus scale="  100.536">  2 10  1 -1</clus>
<clus scale="  100.536">  2  5  1 -1</clus>
</clustering>
</event>
<event>
10    2  0.3544405E-006  0.1217584E+03  0.7546771E-02  0.1242867E+00
         -2   -1    0    0    0  501 -0.00000000000E+00  0.00000000000E+00  0.14878452277E+03  0.14878452277E+03  0.00000000000E+00 0.  1.
         21   -1    0    0  503  502  0.00000000000E+00 -0.00000000000E+00 -0.30863732925E+03  0.30863732925E+03  0.00000000000E+00 0.  1.
         23    2    1    2    0    0 -0.37240619645E+02 -0.68406858918E+01  0.34974228832E+02  0.10550700993E+03  0.92059077379E+02 0.  0.
         23    2    1    2    0    0  0.55551810857E+02 -0.58730059600E+02 -0.15061905158E+03  0.19799432082E+03  0.99902096020E+02 0.  0.
        -11    1    4    4    0    0  0.41526534290E+02 -0.79848376646E+02 -0.71598661276E+02  0.11500688936E+03  0.00000000000E+00 0.  1.
         11    1    4    4    0    0  0.14025276567E+02  0.21118317045E+02 -0.79020390300E+02  0.82987431462E+02  0.00000000000E+00 0. -1.
        -11    1    3    3    0    0 -0.62285353050E+02 -0.63691255977E+01  0.15090484876E+00  0.62610332515E+02  0.00000000000E+00 0.  1.
         11    1    3    3    0    0  0.25044733404E+02 -0.47156029407E+00  0.34823323983E+02  0.42896677420E+02  0.00000000000E+00 0. -1.
         21    1    1    2  503  501 -0.61442244265E+02  0.19044021798E+02  0.16182667745E+02  0.66330256158E+02  0.00000000000E+00 0.  1.
         -2    1    1    2    0  502  0.43131053054E+02  0.46526723694E+02 -0.60390651476E+02  0.87590265104E+02  0.00000000000E+00 0.  1.
<scales pt_clust_5="13000.00000" pt_clust_6="13000.00000" pt_clust_7="13000.00000" pt_clust_8="13000.00000" pt_clust_9="61.69917" pt_clust_10="63.44307"></scales>
<clustering>
<clus scale="   63.443">  2 10  1 -1</clus>
<clus scale="   61.699">  1  9  2 -1</clus>
<clus scale="   92.059">  7  8 -1 -1</clus>
<clus scale="   99.902">  5  6 -1 -1</clus>
<clus scale="  115.410">  1  7  2 -1</clus>
<clus scale="   63.443">  2  5  1 -1</clus>
</clustering>
</event>
<event>
10    2  0.3544405E-006  0.9565261E+02  0.7546771E-02  0.1290382E+00
          1   -1    0    0  503    0 -0.00000000000E+00  0.00000000000E+00  0.25090829871E+03  0.25090829871E+03  0.00000000000E+00 0. -1.
         21   -1    0    0  501  502  0.00000000000E+00 -0.00000000000E+00 -0.31426787040E+03  0.31426787040E+03  0.00000000000E+00 0.  1.
         23    2    1    2    0    0  0.11060366378E+02 -0.20332421777E+01  0.68259049978E+02  0.11357538971E+03  0.90075554209E+02 0.  0.
         23    2    1    2    0    0  0.36644562327E+02 -0.33101695529E+02 -0.17521901484E+03  0.20366735702E+03  0.91324383159E+02 0.  0.
        -11    1    3    3    0    0  0.21485214791E+02  0.39002081516E+02  0.18439772430E+02  0.48195456472E+02  0.00000000000E+00 0.  1.
         11    1    3    3    0    0 -0.10424848413E+02 -0.41035323694E+02  0.49819277548E+02  0.65379933240E+02  0.00000000000E+00 0. -1.
        -13    1    4    4    0    0  0.42640799362E+02  0.22282972076E+02 -0.81051834324E+02  0.94255866990E+02  0.00000000000E+00 0.  1.
         13    1    4    4    0    0 -0.59962370351E+01 -0.55384667606E+02 -0.94167180521E+02  0.10941149003E+03  0.00000000000E+00 0. -1.
         21    1    1    2  503  502 -0.16219964743E+02  0.34846100645E+02  0.14070046386E+03  0.14585595126E+03  0.00000000000E+00 0. -1.
          1    1    1    2  501    0 -0.31484963962E+02  0.28883706194E+00 -0.97100070682E+02  0.10207747111E+03  0.00000000000E+00 0. -1.
<scales pt_clust_5="13000.00000" pt_clust_6="13000.00000" pt_clust_7="13000.00000" pt_clust_8="13000.00000" pt_clust_9="38.60035" pt_clust_10="31.48629"></scales>
<clustering>
<clus scale="   31.486">  2 10  1 -1</clus>
<clus scale="   38.600">  1  9  2 -1</clus>
<clus scale="   90.076">  5  6 -1 -1</clus>
<clus scale="   91.324">  7  8 -1 -1</clus>
<clus scale="   94.461">  1  5  2 -1</clus>
<clus scale="   31.486">  2  5  1 -1</clus>
</clustering>
</event>
<event>
10    2  0.3544405E-006  0.3391682E+03  0.7546771E-02  0.1067169E+00
         21   -1    0    0  501  502  0.00000000000E+00  0.00000000000E+00  0.23630255486E+03  0.23630255486E+03  0.00000000000E+00 0.  1.
          2   -1    0    0  503    0 -0.00000000000E+00 -0.00000000000E+00 -0.77505182741E+03  0.77505182741E+03  0.00000000000E+00 0. -1.
         23    2    1    2    0    0  0.39154558504E+02  0.30487295746E+03 -0.36474787709E+03  0.48568296812E+03  0.91467655686E+02 0.  0.
         23    2    1    2    0    0 -0.11618275321E+02 -0.33394427933E+03 -0.14173660693E+03  0.37415995719E+03  0.90844052087E+02 0.  0.
        -11    1    4    4    0    0 -0.15391820256E+02 -0.42290570934E+02 -0.52472221946E+02  0.69128392117E+02  0.00000000000E+00 0. -1.
         11    1    4    4    0    0  0.37735449343E+01 -0.29165370840E+03 -0.89264384981E+02  0.30503156507E+03  0.00000000000E+00 0.  1.
        -11    1    3    3    0    0  0.38247263034E+02  0.46273457378E+02 -0.48587298521E+02  0.77232192542E+02  0.00000000000E+00 0.  1.
         11    1    3    3    0    0  0.90729547047E+00  0.25859950008E+03 -0.31616057857E+03  0.40845077558E+03  0.00000000000E+00 0. -1.
         21    1    1    2  503  502  0.94220127390E+01  0.39605269788E+02 -0.80279004369E+02  0.90011500718E+02  0.00000000000E+00 0. -1.
          2    1    1    2  501    0 -0.36958295922E+02 -0.10533947912E+02  0.48014215834E+02  0.61499956246E+02  0.00000000000E+00 0. -1.
<scales pt_clust_5="13000.00000" pt_clust_6="13000.00000" pt_clust_7="13000.00000" pt_clust_8="13000.00000" pt_clust_9="40.21665" pt_clust_10="38.43019"></scales>
<clustering>
<clus scale="   38.430">  1 10  2 -1</clus>
<clus scale="   40.217">  2  9  1 -1</clus>
<clus scale="   90.844">  5  6 -1 -1</clus>
<clus scale="   91.468">  7  8 -1 -1</clus>
<clus scale="  339.001">  1  5  2 -1</clus>
<clus scale="   38.430">  1  5  2 -1</clus>
</clustering>
</event>
<event>
10    2  0.3544405E-006  0.2561488E+03  0.7546771E-02  0.1109845E+00
         -4   -1    0    0    0  501 -0.00000000000E+00  0.00000000000E+00  0.79291637861E+03  0.79291637861E+03  0.00000000000E+00 0.  1.
         21   -1    0    0  503  502  0.00000000000E+00 -0.00000000000E+00 -0.25834445419E+03  0.25834445419E+03  0.00000000000E+00 0. -1.
         23    2    1    2    0    0 -0.24808275364E+03 -0.11039793893E+03  0.24203867694E+03  0.37372453368E+03  0.85758663521E+02 0.  0.
         23    2    1    2    0    0  0.11525143449E+03  0.24082240491E+03 -0.19033125694E+02  0.28320988099E+03  0.92559456346E+02 0.  0.
        -11    1    4    4    0    0  0.89360081976E+01  0.63614102656E+02  0.29877752429E+02  0.70846922230E+02  0.00000000000E+00 0. -1.
         11    1    4    4    0    0  0.10631542629E+03  0.17720830226E+03 -0.48910878123E+02  0.21236295876E+03  0.00000000000E+00 0.  1.
        -13    1    3    3    0    0 -0.92741250540E+02 -0.47819417652E+02  0.14971757553E+03  0.18249106466E+03  0.00000000000E+00 0. -1.
         13    1    3    3    0    0 -0.15534150310E+03 -0.62578521282E+02  0.92321101401E+02  0.19123346902E+03  0.00000000000E+00 0.  1.
         21    1    1    2  503  501  0.10791384110E+03 -0.53646574549E+02  0.28485964973E+03  0.30930304251E+03  0.00000000000E+00 0.  1.
         -4    1    1    2    0  502  0.24917478046E+02 -0.76777891431E+02  0.26706723456E+02  0.85023375624E+02  0.00000000000E+00 0.  1.
<scales pt_clust_5="13000.00000" pt_clust_6="13000.00000" pt_clust_7="13000.00000" pt_clust_8="13000.00000" pt_clust_9="123.56357" pt_clust_10="80.72004"></scales>
<clustering>
<clus scale="   80.720">  2 10  1 -1</clus>
<clus scale="   85.759">  7  8 -1 -1</clus>
<clus scale="   92.559">  5  6 -1 -1</clus>
<clus scale="  123.564">  1  9  2 -1</clus>
<clus scale="  253.771">  1  7  2 -1</clus>
<clus scale="   80.720">  2  5  1 -1</clus>
</clustering>
</event>
<event>
10    2  0.3544405E-006  0.2394554E+03  0.7546771E-02  0.1120283E+00
         21   -1    0    0  503  502  0.00000000000E+00  0.00000000000E+00  0.65696952811E+03  0.65696952811E+03  0.00000000000E+00 0.  1.
         -1   -1    0    0    0  501 -0.00000000000E+00 -0.00000000000E+00 -0.14203061115E+03  0.14203061115E+03  0.00000000000E+00 0.  1.
         23    2    1    2    0    0  0.16060884285E+03  0.16388472687E+03  0.29028185110E+03  0.38107447641E+03  0.91108722920E+02 0.  0.
         23    2    1    2    0    0 -0.19119125392E+03 -0.10089167303E+03  0.23204540949E+03  0.33051591195E+03  0.93072395081E+02 0.  0.
        -11    1    3    3    0    0  0.26714367158E+02  0.51129656212E+02  0.13604723110E+03  0.14777262347E+03  0.00000000000E+00 0.  1.
         11    1    3    3    0    0  0.13389447569E+03  0.11275507066E+03  0.15423462000E+03  0.23330185294E+03  0.00000000000E+00 0. -1.
        -13    1    4    4    0    0 -0.40336949483E+02 -0.12843921616E+02  0.29585732643E+01  0.42435703975E+02  0.00000000000E+00 0.  1.
         13    1    4    4    0    0 -0.15085430444E+03 -0.88047751411E+02  0.22908683623E+03  0.28808020798E+03  0.00000000000E+00 0. -1.
         21    1    1    2  503  501 -0.58278823141E+01 -0.44256879658E+02  0.42471322928E+01  0.44840536817E+02  0.00000000000E+00 0.  1.
         -1    1    1    2    0  502  0.36410293380E+02 -0.18736174187E+02 -0.11635475929E+02  0.42569214078E+02  0.00000000000E+00 0.  1.
<scales pt_clust_5="13000.00000" pt_clust_6="13000.00000" pt_clust_7="13000.00000" pt_clust_8="13000.00000" pt_clust_9="45.19185" pt_clust_10="40.94820"></scales>
<clustering>
<clus scale="   40.948">  1 10  2 -1</clus>
<clus scale="   45.192">  2  9  1 -1</clus>
<clus scale="   91.109">  5  6 -1 -1</clus>
<clus scale="   93.072">  7  8 -1 -1</clus>
<clus scale="  238.699">  2  5  1 -1</clus>
<clus scale="   40.948">  1  5  2 -1</clus>
</clustering>
</event>
<event>
10    2  0.3544405E-006  0.1159526E+03  0.7546771E-02  0.1264231E+00
          2   -1    0    0  503    0 -0.00000000000E+00  0.00000000000E+00  0.64519792903E+03  0.64519792903E+03  0.00000000000E+00 0. -1.
         21   -1    0    0  501  502  0.00000000000E+00 -0.00000000000E+00 -0.52934779552E+02  0.52934779552E+02  0.00000000000E+00 0.  1.
         23    2    1    2    0    0 -0.44784139574E+02 -0.80485351893E+02  0.17490780580E+03  0.20894698366E+03  0.67694833081E+02 0.  0.
         23    2    1    2    0    0 -0.18109606413E+02  0.35337516994E+02  0.10469762155E+03  0.13550697436E+03  0.76314154589E+02 0.  0.
        -13    1    4    4    0    0  0.23185235960E+02 -0.15542277988E+01  0.60005199405E+02  0.64347453300E+02  0.00000000000E+00 0. -1.
         13    1    4    4    0    0 -0.41294842373E+02  0.36891744793E+02  0.44692422143E+02  0.71159521060E+02  0.00000000000E+00 0.  1.
        -13    1    3    3    0    0 -0.36474798801E+02 -0.40639704573E+01  0.45845124797E+02  0.58725652581E+02  0.00000000000E+00 0.  1.
         13    1    3    3    0    0 -0.83093407728E+01 -0.76421381436E+02  0.12906268100E+03  0.15022133108E+03  0.00000000000E+00 0. -1.
         21    1    1    2  503  502  0.85175022204E+02  0.50560099162E+02  0.31539850266E+03  0.33058633292E+03  0.00000000000E+00 0. -1.
          2    1    1    2  501    0 -0.22281276218E+02 -0.54122642625E+01 -0.27407805304E+01  0.23092417636E+02  0.00000000000E+00 0. -1.
<scales pt_clust_5="13000.00000" pt_clust_6="13000.00000" pt_clust_7="13000.00000" pt_clust_8="13000.00000" pt_clust_9="94.14041" pt_clust_10="22.92919"></scales>
<clustering>
<clus scale="   22.929">  2 10  1 -1</clus>
<clus scale="   67.695">  7  8 -1 -1</clus>
<clus scale="   76.314">  5  6 -1 -1</clus>
<clus scale="   87.418">  2  5  1 -1</clus>
<clus scale="   94.140">  1  9  2 -1</clus>
<clus scale="   22.929">  2  5  1 -1</clus>
</clustering>
</event>
<event>
10    2  0.3544405E-006  0.1577373E+03  0.7546771E-02  0.1192361E+00
         21   -1    0    0  503  502  0.00000000000E+00  0.00000000000E+00  0.13162839475E+03  0.13162839475E+03  0.00000000000E+00 0.  1.
         -3   -1    0    0    0  501 -0.00000000000E+00 -0.00000000000E+00 -0.61478923141E+03  0.61478923141E+03  0.00000000000E+00 0.  1.
         23    2    1    2    0    0  0.61022313870E+02 -0.13576178113E+03 -0.14199607011E+03  0.22505230855E+03  0.91272524082E+02 0.  0.
         23    2    1    2    0    0 -0.95631537656E+02  0.87135830639E+02 -0.12102407660E+03  0.20218326424E+03  0.97433060327E+02 0.  0.
        -13    1    4    4    0    0 -0.10349123086E+03  0.51598396742E+02 -0.11869193279E+03  0.16571241451E+03  0.00000000000E+00 0.  1.
         13    1    4    4    0    0  0.78596932082E+01  0.35537433897E+02 -0.23321438111E+01  0.36470849730E+02  0.00000000000E+00 0. -1.
        -13    1    3    3    0    0  0.75665665312E+02 -0.79982054110E+02 -0.12121046706E+03  0.16375102813E+03  0.00000000000E+00 0.  1.
         13    1    3    3    0    0 -0.14643351442E+02 -0.55779727016E+02 -0.20785603045E+02  0.61301280422E+02  0.00000000000E+00 0. -1.
         21    1    1    2  503  501 -0.50272678820E+02  0.91438701369E+02 -0.19449081799E+03  0.22071487631E+03  0.00000000000E+00 0.  1.
         -3    1    1    2    0  502  0.84881902606E+02 -0.42812750882E+02 -0.25649871961E+02  0.98467177068E+02  0.00000000000E+00 0.  1.
<scales pt_clust_5="13000.00000" pt_clust_6="13000.00000" pt_clust_7="13000.00000" pt_clust_8="13000.00000" pt_clust_9="93.84237" pt_clust_10="95.06771"></scales>
<clustering>
<clus scale="   91.273">  7  8 -1 -1</clus>
<clus scale="   95.068">  1 10  2 -1</clus>
<clus scale="   93.842">  2  9  1 -1</clus>
<clus scale="   97.433">  5  6 -1 -1</clus>
<clus scale="  154.008">  2  7  1 -1</clus>
<clus scale="   95.068">  1  5  2 -1</clus>
</clustering>
</event>
<event>
10    2  0.3544405E-006  0.1075336E+03  0.7546771E-02  0.1270522E+00
         21   -1    0    0  501  502  0.00000000000E+00  0.00000000000E+00  0.41345833103E+03  0.41345833103E+03  0.00000000000E+00 0. -1.
          1   -1    0    0  503    0 -0.00000000000E+00 -0.00000000000E+00 -0.44925822533E+03  0.44925822533E+03  0.00000000000E+00 0. -1.
         23    2    1    2    0    0 -0.15435757739E+02  0.28653059624E+02  0.15605420962E+03  0.18374074655E+03  0.91370045204E+02 0.  0.
         23    2    1    2    0    0  0.47391686587E+02 -0.18450385981E+02 -0.31581890693E+03  0.33266021065E+03  0.91295372683E+02 0.  0.
        -11    1    3    3    0    0 -0.18961493612E+02 -0.16522222922E+02  0.12799806081E+03  0.13044548923E+03  0.00000000000E+00 0. -1.
         11    1    3    3    0    0  0.35257358727E+01  0.45175282546E+02  0.28056148809E+02  0.53295257318E+02  0.00000000000E+00 0.  1.
        -13    1    4    4    0    0 -0.25117602726E+02  0.82865362488E+01 -0.99321373168E+02  0.10278276031E+03  0.00000000000E+00 0.  1.
         13    1    4    4    0    0  0.72509289313E+02 -0.26736922230E+02 -0.21649753377E+03  0.22987745034E+03  0.00000000000E+00 0. -1.
         21    1    1    2  503  502 -0.12811452341E+03 -0.47780730818E+02 -0.48692870634E+02  0.14514587489E+03  0.00000000000E+00 0. -1.
          1    1    1    2  501    0  0.96158594565E+02  0.37578057174E+02  0.17265767365E+03  0.20116972426E+03  0.00000000000E+00 0. -1.
<scales pt_clust_5="13000.00000" pt_clust_6="13000.00000" pt_clust_7="13000.00000" pt_clust_8="13000.00000" pt_clust_9="107.53360" pt_clust_10="13000.00000"></scales>
<clustering>
<clus scale="   91.295">  7  8 -1 -1</clus>
<clus scale="   91.370">  5  6 -1 -1</clus>
<clus scale="   96.994">  2  5  1 -1</clus>
<clus scale="   98.142">  2  7  1 -1</clus>
<clus scale="  107.534">  2  9  1 -1</clus>
<clus scale="  107.534">  1  5  2 -1</clus>
</clustering>
</event>
<event>
10    2  0.3544405E-006  0.1167783E+03  0.7546771E-02  0.1249134E+00
         21   -1    0    0  503  502  0.00000000000E+00  0.00000000000E+00  0.38116484893E+03  0.38116484893E+03  0.00000000000E+00 0. -1.
         -2   -1    0    0    0  501 -0.00000000000E+00 -0.00000000000E+00 -0.65477485376E+02  0.65477485376E+02  0.00000000000E+00 0.  1.
         23    2    1    2    0    0  0.71154867749E+02 -0.35445225114E+02  0.13352773643E+03  0.18147172270E+03  0.93717397300E+02 0.  0.
         23    2    1    2    0    0 -0.62243234755E+02  0.87148655639E+01  0.10916491162E+03  0.15592528741E+03  0.91899663612E+02 0.  0.
        -11    1    4    4    0    0 -0.55376442070E+02 -0.32381388653E+02  0.41311724481E+02  0.76300479992E+02  0.00000000000E+00 0.  1.
         11    1    4    4    0    0 -0.68667926855E+01  0.41096254217E+02  0.67853187136E+02  0.79624807422E+02  0.00000000000E+00 0. -1.
        -13    1    3    3    0    0  0.71621621332E+02 -0.59503266336E+02  0.12515558059E+03  0.15599427778E+03  0.00000000000E+00 0. -1.
         13    1    3    3    0    0 -0.46675358281E+00  0.24058041222E+02  0.83721558360E+01  0.25477444920E+02  0.00000000000E+00 0.  1.
         21    1    1    2  503  501 -0.20023806189E+02  0.49173300622E+02  0.34489769028E+02  0.63312798674E+02  0.00000000000E+00 0. -1.
         -2    1    1    2    0  502  0.11112173195E+02 -0.22442941071E+02  0.38504946481E+02  0.45932525519E+02  0.00000000000E+00 0.  1.
<scales pt_clust_5="13000.00000" pt_clust_6="13000.00000" pt_clust_7="13000.00000" pt_clust_8="13000.00000" pt_clust_9="49.49117" pt_clust_10="25.04328"></scales>
<clustering>
<clus scale="   25.043">  1 10  2 -1</clus>
<clus scale="   49.491">  2  9  1 -1</clus>
<clus scale="   91.900">  5  6 -1 -1</clus>
<clus scale="   93.717">  7  8 -1 -1</clus>
<clus scale="  115.325">  1  5  2 -1</clus>
<clus scale="   25.043">  1  5  2 -1</clus>
</clustering>
</event>
<event>
10    2  0.3544405E-006  0.2281166E+03  0.7546771E-02  0.1153346E+00
         21   -1    0    0  503  502  0.00000000000E+00  0.00000000000E+00  0.34264381221E+03  0.34264381221E+03  0.00000000000E+00 0. -1.
          4   -1    0    0  502    0 -0.00000000000E+00 -0.00000000000E+00 -0.40410523965E+03  0.40410523965E+03  0.00000000000E+00 0. -1.
         23    2    1    2    0    0 -0.71805322668E+02 -0.33677683542E+02 -0.22675821186E+03  0.25834002436E+03  0.95026789955E+02 0.  0.
         23    2    1    2    0    0  0.16107240017E+03  0.19266461179E+03  0.92542081749E+02  0.28218313433E+03  0.89438882324E+02 0.  0.
        -13    1    4    4    0    0  0.14893983314E+01  0.44886810816E+02 -0.21585518221E+01  0.44963356620E+02  0.00000000000E+00 0.  1.
         13    1    4    4    0    0  0.15958300183E+03  0.14777780098E+03  0.94700633571E+02  0.23721977771E+03  0.00000000000E+00 0. -1.
        -13    1    3    3    0    0  0.78981981371E+00 -0.49457053792E+02 -0.88282773619E+02  0.10119521779E+03  0.00000000000E+00 0.  1.
         13    1    3    3    0    0 -0.72595142481E+02  0.15779370250E+02 -0.13847543824E+03  0.15714480658E+03  0.00000000000E+00 0. -1.
         21    1    1    2  503  501 -0.18013058952E+02 -0.32472856442E+02 -0.10837015769E+02  0.38683298839E+02  0.00000000000E+00 0. -1.
          4    1    1    2  501    0 -0.71254018546E+02 -0.12651407181E+03  0.83591718446E+02  0.16754259434E+03  0.00000000000E+00 0. -1.
<scales pt_clust_5="13000.00000" pt_clust_6="13000.00000" pt_clust_7="13000.00000" pt_clust_8="13000.00000" pt_clust_9="31.94582" pt_clust_10="219.15355"></scales>
<clustering>
<clus scale="   31.946">  9 10 -1 -1</clus>
<clus scale="   89.439">  5  6 -1 -1</clus>
<clus scale="   95.027">  7  8 -1 -1</clus>
<clus scale="  123.775">  2  7  1 -1</clus>
<clus scale="  219.154">  1  9  2 -1</clus>
<clus scale="  219.154">  1  5  2 -1</clus>
</clustering>
</event>
<event>
10    2  0.3544405E-006  0.1613084E+03  0.7546771E-02  0.1187491E+00
         -1   -1    0    0    0  501 -0.00000000000E+00  0.00000000000E+00  0.16869899094E+03  0.16869899094E+03  0.00000000000E+00 0.  1.
         21   -1    0    0  503  502  0.00000000000E+00 -0.00000000000E+00 -0.63317086554E+03  0.63317086554E+03  0.00000000000E+00 0.  1.
         23    2    1    2    0    0 -0.10246905881E+03 -0.77193927964E+02 -0.10665845211E+03  0.19082464905E+03  0.92624029017E+02 0.  0.
         23    2    1    2    0    0  0.28154207167E+02  0.15508259945E+03 -0.15645472003E+03  0.23999622973E+03  0.90977133565E+02 0.  0.
        -11    1    3    3    0    0 -0.10641157663E+03 -0.50596441046E+02 -0.49781895405E+02  0.12791270694E+03  0.00000000000E+00 0.  1.
         11    1    3    3    0    0  0.39425178231E+01 -0.26597486918E+02 -0.56876556701E+02  0.62911942104E+02  0.00000000000E+00 0. -1.
        -11    1    4    4    0    0 -0.15753063053E+02  0.11254601890E+03 -0.67877116459E+02  0.13237094963E+03  0.00000000000E+00 0.  1.
         11    1    4    4    0    0  0.43907270220E+02  0.42536580548E+02 -0.88577603574E+02  0.10762528011E+03  0.00000000000E+00 0. -1.
         21    1    1    2  503  501 -0.23674578217E+02  0.47838559218E+01  0.68310808591E+02  0.72455072297E+02  0.00000000000E+00 0.  1.
         -1    1    1    2    0  502  0.97989429858E+02 -0.82672527408E+02 -0.26966951105E+03  0.29859390540E+03  0.00000000000E+00 0.  1.
<scales pt_clust_5="13000.00000" pt_clust_6="13000.00000" pt_clust_7="13000.00000" pt_clust_8="13000.00000" pt_clust_9="24.15307" pt_clust_10="125.10175"></scales>
<clustering>
<clus scale="   24.153">  1  9  2 -1</clus>
<clus scale="   90.977">  7  8 -1 -1</clus>
<clus scale="   92.624">  5  6 -1 -1</clus>
<clus scale="  125.102">  2 10  1 -1</clus>
<clus scale="  160.368">  2  7  1 -1</clus>
<clus scale="  125.102">  2  5  1 -1</clus>
</clustering>
</event>
<event>
10    2  0.3544405E-006  0.1440165E+03  0.7546771E-02  0.1228915E+00
          1   -1    0    0  503    0 -0.00000000000E+00  0.00000000000E+00  0.43912886308E+03  0.43912886308E+03  0.00000000000E+00 0. -1.
         21   -1    0    0  501  502  0.00000000000E+00 -0.00000000000E+00 -0.13841331650E+03  0.13841331650E+03  0.00000000000E+00 0.  1.
         23    2    1    2    0    0  0.18916127111E+01 -0.43967554744E+02  0.18555912092E+03  0.20818651714E+03  0.83502781358E+02 0.  0.
         23    2    1    2    0    0 -0.20210926516E+02 -0.10091798323E+03 -0.22450297627E+02  0.13791654588E+03  0.89017059459E+02 0.  0.
        -13    1    4    4    0    0  0.55992439666E+00 -0.73216578635E+02 -0.54076162497E+02  0.91023141304E+02  0.00000000000E+00 0.  1.
         13    1    4    4    0    0 -0.20770850912E+02 -0.27701404590E+02  0.31625864870E+02  0.46893404575E+02  0.00000000000E+00 0. -1.
        -13    1    3    3    0    0  0.27235490392E+02 -0.58927754430E+02  0.13054467780E+03  0.14579494189E+03  0.00000000000E+00 0. -1.
         13    1    3    3    0    0 -0.25343877681E+02  0.14960199687E+02  0.55014443125E+02  0.62391575256E+02  0.00000000000E+00 0.  1.
         21    1    1    2  503  502  0.24453886917E+02  0.11928884937E+02  0.83399919738E+02  0.87725922585E+02  0.00000000000E+00 0.  1.
          1    1    1    2  501    0 -0.61345731119E+01  0.13295665303E+03  0.54206803544E+02  0.14371319398E+03  0.00000000000E+00 0. -1.
<scales pt_clust_5="13000.00000" pt_clust_6="13000.00000" pt_clust_7="13000.00000" pt_clust_8="13000.00000" pt_clust_9="27.20829" pt_clust_10="113.21094"></scales>
<clustering>
<clus scale="   27.208">  1  9  2 -1</clus>
<clus scale="   83.503">  7  8 -1 -1</clus>
<clus scale="   89.017">  5  6 -1 -1</clus>
<clus scale="   92.771">  1  7  2 -1</clus>
<clus scale="  113.211">  2 10  1 -1</clus>
<clus scale="  113.211">  2  5  1 -1</clus>
</clustering>
</event>
<event>
10    2  0.3544405E-006  0.3129175E+03  0.7546771E-02  0.1106460E+00
          1   -1    0    0  503    0 -0.00000000000E+00  0.00000000000E+00  0.84102928608E+03  0.84102928608E+03  0.00000000000E+00 0. -1.
         21   -1    0    0  501  502  0.00000000000E+00 -0.00000000000E+00 -0.20484484676E+03  0.20484484676E+03  0.00000000000E+00 0. -1.
         23    2    1    2    0    0  0.67333909406E+02  0.10055905221E+03  0.96963169334E+02  0.17973583333E+03  0.90868780334E+02 0.  0.
         23    2    1    2    0    0 -0.11872009698E+03 -0.32777649807E+03  0.19590713705E+03  0.41041969363E+03  0.92373288675E+02 0.  0.
        -11    1    4    4    0    0 -0.93844248287E+02 -0.32150175578E+03  0.18404060324E+03  0.38215319644E+03  0.00000000000E+00 0. -1.
         11    1    4    4    0    0 -0.24875848695E+02 -0.62747422915E+01  0.11866533803E+02  0.28266497194E+02  0.00000000000E+00 0.  1.
        -13    1    3    3    0    0 -0.88134139711E+01  0.18656394393E+02 -0.11772294737E+02  0.23755509697E+02  0.00000000000E+00 0.  1.
         13    1    3    3    0    0  0.76147323377E+02  0.81902657813E+02  0.10873546407E+03  0.15598032363E+03  0.00000000000E+00 0. -1.
         21    1    1    2  503  502  0.39588950294E+02 -0.24799432049E+02  0.65364870890E+02  0.80342163039E+02  0.00000000000E+00 0.  1.
          1    1    1    2  501    0  0.11797237282E+02  0.25201687792E+03  0.27794926205E+03  0.37537644284E+03  0.00000000000E+00 0. -1.
<scales pt_clust_5="13000.00000" pt_clust_6="13000.00000" pt_clust_7="13000.00000" pt_clust_8="13000.00000" pt_clust_9="46.71506" pt_clust_10="298.97263"></scales>
<clustering>
<clus scale="   46.715">  1  9  2 -1</clus>
<clus scale="   90.869">  7  8 -1 -1</clus>
<clus scale="   92.373">  5  6 -1 -1</clus>
<clus scale="  151.776">  1  7  2 -1</clus>
<clus scale="  298.973">  2 10  1 -1</clus>
<clus scale="  298.973">  2  5  1 -1</clus>
</clustering>
</event>
<event>
10    2  0.3544405E-006  0.1441496E+03  0.7546771E-02  0.1208312E+00
         -4   -1    0    0    0  501 -0.00000000000E+00  0.00000000000E+00  0.38116363852E+03  0.38116363852E+03  0.00000000000E+00 0.  1.
         21   -1    0    0  503  502  0.00000000000E+00 -0.00000000000E+00 -0.10692468412E+03  0.10692468412E+03  0.00000000000E+00 0. -1.
         23    2    1    2    0    0  0.14401008461E+02 -0.11263515480E+03  0.18280624637E+03  0.23278752272E+03  0.88757196229E+02 0.  0.
         23    2    1    2    0    0  0.78104866349E+01  0.12007824943E+03  0.83367002214E+02  0.17237543360E+03  0.91013424078E+02 0.  0.
        -11    1    3    3    0    0  0.33974944310E+02 -0.28484699302E+02  0.11407017309E+03  0.12238332944E+03  0.00000000000E+00 0.  1.
         11    1    3    3    0    0 -0.19573935849E+02 -0.84150455500E+02  0.68736073276E+02  0.11040419328E+03  0.00000000000E+00 0. -1.
        -11    1    4    4    0    0 -0.41706861995E+02  0.55219529358E+02  0.40956112434E+02  0.80411826902E+02  0.00000000000E+00 0. -1.
         11    1    4    4    0    0  0.49517348630E+02  0.64858720069E+02  0.42410889780E+02  0.91963606695E+02  0.00000000000E+00 0.  1.
         21    1    1    2  503  501 -0.21640157307E+02  0.12686916482E+02  0.38787086317E+02  0.46191907549E+02  0.00000000000E+00 0.  1.
         -4    1    1    2    0  502 -0.57133778893E+00 -0.20130011107E+02 -0.30721380498E+02  0.36733458777E+02  0.00000000000E+00 0.  1.
<scales pt_clust_5="13000.00000" pt_clust_6="13000.00000" pt_clust_7="13000.00000" pt_clust_8="13000.00000" pt_clust_9="24.61111" pt_clust_10="20.13812"></scales>
<clustering>
<clus scale="   20.138">  2 10  1 -1</clus>
<clus scale="   24.611">  1  9  2 -1</clus>
<clus scale="   88.757">  5  6 -1 -1</clus>
<clus scale="   91.013">  7  8 -1 -1</clus>
<clus scale="  142.736">  1  5  2 -1</clus>
<clus scale="   20.138">  2  5  1 -1</clus>
</clustering>
</event>
<event>
10    2  0.3544405E-006  0.1398019E+03  0.7546771E-02  0.1213853E+00
         -1   -1    0    0    0  501 -0.00000000000E+00  0.00000000000E+00  0.47321326128E+03  0.47321326128E+03  0.00000000000E+00 0.  1.
         21   -1    0    0  503  502  0.00000000000E+00 -0.00000000000E+00 -0.12449516500E+03  0.12449516500E+03  0.00000000000E+00 0. -1.
         23    2    1    2    0    0 -0.78351623192E+02  0.98573074087E+02  0.15701713411E+03  0.22084603627E+03  0.90900844562E+02 0.  0.
         23    2    1    2    0    0  0.64231293717E+02 -0.76523515438E+02  0.18584397011E+02  0.13712097876E+03  0.92061259471E+02 0.  0.
        -13    1    3    3    0    0 -0.35637481866E+02 -0.61128222470E+00  0.75253297075E+01  0.36428482907E+02  0.00000000000E+00 0. -1.
         13    1    3    3    0    0 -0.42714141326E+02  0.99184356311E+02  0.14949180440E+03  0.18441755337E+03  0.00000000000E+00 0.  1.
        -13    1    4    4    0    0  0.70453887164E+01  0.20484489319E+02  0.10900353148E+02  0.24250144403E+02  0.00000000000E+00 0.  1.
         13    1    4    4    0    0  0.57185905001E+02 -0.97008004757E+02  0.76840438623E+01  0.11287083435E+03  0.00000000000E+00 0. -1.
         21    1    1    2  503  501 -0.16631087065E+02 -0.64462962503E+02  0.17508628815E+03  0.18731597606E+03  0.00000000000E+00 0.  1.
         -1    1    1    2    0  502  0.30751416539E+02  0.42413403854E+02 -0.19697229966E+01  0.52425435185E+02  0.00000000000E+00 0.  1.
<scales pt_clust_5="13000.00000" pt_clust_6="13000.00000" pt_clust_7="13000.00000" pt_clust_8="13000.00000" pt_clust_9="63.52138" pt_clust_10="52.38842"></scales>
<clustering>
<clus scale="   52.388">  2 10  1 -1</clus>
<clus scale="   63.521">  1  9  2 -1</clus>
<clus scale="   90.901">  5  6 -1 -1</clus>
<clus scale="   92.061">  7  8 -1 -1</clus>
<clus scale="  139.041">  1  5  2 -1</clus>
<clus scale="   52.388">  2  5  1 -1</clus>
</clustering>
</event>
<event>
10    2  0.3544405E-006  0.9638267E+02  0.7546771E-02  0.1288684E+00
          1   -1    0    0  503    0 -0.00000000000E+00  0.00000000000E+00  0.10189802410E+03  0.10189802410E+03  0.00000000000E+00 0. -1.
         21   -1    0    0  501  502  0.00000000000E+00 -0.00000000000E+00 -0.50082305448E+03  0.50082305448E+03  0.00000000000E+00 0. -1.
         23    2    1    2    0    0  0.42308172721E+02  0.30912177065E+01  0.10643696919E+00  0.98822182927E+02  0.89253993768E+02 0.  0.
         23    2    1    2    0    0 -0.19818690048E+02 -0.76795713066E+01 -0.40519336355E+02  0.10131254303E+03  0.90391694675E+02 0.  0.
        -11    1    3    3    0    0  0.65219237621E+02  0.27919736420E+01  0.20214410762E+02  0.68337152963E+02  0.00000000000E+00 0.  1.
         11    1    3    3    0    0 -0.22911064899E+02  0.29924406449E+00 -0.20107973793E+02  0.30485029964E+02  0.00000000000E+00 0. -1.
        -13    1    4    4    0    0  0.24930621261E+02  0.25730835114E+02 -0.80750472696E+01  0.36726259549E+02  0.00000000000E+00 0.  1.
         13    1    4    4    0    0 -0.44749311309E+02 -0.33410406420E+02 -0.32444289085E+02  0.64586283482E+02  0.00000000000E+00 0. -1.
         21    1    1    2  503  502 -0.79246172804E+02 -0.33671276014E+02 -0.86326260765E+02  0.12192593666E+03  0.00000000000E+00 0. -1.
          1    1    1    2  501    0  0.56756690131E+02  0.38259629614E+02 -0.27218587024E+03  0.28066041596E+03  0.00000000000E+00 0. -1.
<scales pt_clust_5="13000.00000" pt_clust_6="13000.00000" pt_clust_7="13000.00000" pt_clust_8="13000.00000" pt_clust_9="55.25254" pt_clust_10="68.44794"></scales>
<clustering>
<clus scale="   68.448">  2 10  1 -1</clus>
<clus scale="   55.253">  2  9  1 -1</clus>
<clus scale="   89.254">  5  6 -1 -1</clus>
<clus scale="   90.392">  7  8 -1 -1</clus>
<clus scale="   95.317">  1  5  2 -1</clus>
<clus scale="   68.448">  2  5  1 -1</clus>
</clustering>
</event>
<event>
10    2  0.3544405E-006  0.9472215E+02  0.7546771E-02  0.1291945E+00
         21   -1    0    0  501  502  0.00000000000E+00  0.00000000000E+00  0.33880357507E+03  0.33880357507E+03  0.00000000000E+00 0. -1.
          3   -1    0    0  503    0 -0.00000000000E+00 -0.00000000000E+00 -0.14148879654E+03  0.14148879654E+03  0.00000000000E+00 0. -1.
         23    2    1    2    0    0 -0.21111891724E+02  0.13609817275E+02 -0.11858571650E+02  0.93947027387E+02  0.89746749996E+02 0.  0.
         23    2    1    2    0    0  0.17978106777E+02 -0.13312694147E+02  0.14417750444E+03  0.17143394458E+03  0.90011134978E+02 0.  0.
        -13    1    4    4    0    0  0.50556354988E+02  0.93558334696E+01  0.65093990207E+02  0.82950010311E+02  0.00000000000E+00 0.  1.
         13    1    4    4    0    0 -0.32578248211E+02 -0.22668527616E+02  0.79083514235E+02  0.88483934274E+02  0.00000000000E+00 0. -1.
        -13    1    3    3    0    0  0.33038640426E+01 -0.36915306208E+02 -0.56089330330E+01  0.37484870012E+02  0.00000000000E+00 0.  1.
         13    1    3    3    0    0 -0.24415755767E+02  0.50525123483E+02 -0.62496386174E+01  0.56462157375E+02  0.00000000000E+00 0. -1.
         21    1    1    2  503  502 -0.16291472642E+02 -0.20700155454E+02 -0.71156082745E+02  0.75875533793E+02  0.00000000000E+00 0. -1.
          3    1    1    2  501    0  0.19425257590E+02  0.20403032326E+02  0.13615192849E+03  0.13903586584E+03  0.00000000000E+00 0. -1.
<scales pt_clust_5="13000.00000" pt_clust_6="13000.00000" pt_clust_7="13000.00000" pt_clust_8="13000.00000" pt_clust_9="26.34214" pt_clust_10="27.61504"></scales>
<clustering>
<clus scale="   26.342">  2  9  1 -1</clus>
<clus scale="   27.615">  1 10  2 -1</clus>
<clus scale="   89.747">  7  8 -1 -1</clus>
<clus scale="   90.011">  5  6 -1 -1</clus>
<clus scale="   94.471">  2  7  1 -1</clus>
<clus scale="   27.615">  1  5  2 -1</clus>
</clustering>
</event>
<event>
10    2  0.3544405E-006  0.1046890E+03  0.7546771E-02  0.1273633E+00
         21   -1    0    0  501  502  0.00000000000E+00  0.00000000000E+00  0.75267447630E+02  0.75267447630E+02  0.00000000000E+00 0. -1.
          1   -1    0    0  503    0 -0.00000000000E+00 -0.00000000000E+00 -0.54616898598E+03  0.54616898598E+03  0.00000000000E+00 0. -1.
         23    2    1    2    0    0 -0.51642562863E+02 -0.55001394764E+02 -0.28060427344E+03  0.30611569576E+03  0.96311750021E+02 0.  0.
         23    2    1    2    0    0 -0.22307163160E+01  0.17910694128E+02 -0.12500497733E+03  0.15514279248E+03  0.90095908020E+02 0.  0.
        -13    1    3    3    0    0  0.25077406389E+02 -0.23201395688E+02 -0.12679832895E+03  0.13132020902E+03  0.00000000000E+00 0. -1.
         13    1    3    3    0    0 -0.76719969252E+02 -0.31799999075E+02 -0.15380594450E+03  0.17479548674E+03  0.00000000000E+00 0.  1.
        -13    1    4    4    0    0 -0.68471990610E-01  0.51902420780E+02 -0.46977951436E+02  0.70005670430E+02  0.00000000000E+00 0.  1.
         13    1    4    4    0    0 -0.21622443254E+01 -0.33991726651E+02 -0.78027025894E+02  0.85137122051E+02  0.00000000000E+00 0. -1.
         21    1    1    2  503  502  0.17944054459E+02  0.25446008360E+02 -0.10252106683E+03  0.10714503057E+03  0.00000000000E+00 0.  1.
          1    1    1    2  501    0  0.35929224720E+02  0.11644692276E+02  0.37228779254E+02  0.53032914798E+02  0.00000000000E+00 0. -1.
<scales pt_clust_5="13000.00000" pt_clust_6="13000.00000" pt_clust_7="13000.00000" pt_clust_8="13000.00000" pt_clust_9="31.13661" pt_clust_10="38.21671"></scales>
<clustering>
<clus scale="   31.137">  2  9  1 -1</clus>
<clus scale="   38.217">  1 10  2 -1</clus>
<clus scale="   90.096">  7  8 -1 -1</clus>
<clus scale="   96.312">  5  6 -1 -1</clus>
<clus scale="   99.001">  1  7  2 -1</clus>
<clus scale="   38.217">  1  5  2 -1</clus>
</clustering>
</event>
<event>
10    2  0.3544405E-006  0.1019182E+03  0.7546771E-02  0.1278007E+00
          1   -1    0    0  503    0 -0.00000000000E+00  0.00000000000E+00  0.51186665594E+03  0.51186665594E+03  0.00000000000E+00 0. -1.
         21   -1    0    0  501  502  0.00000000000E+00 -0.00000000000E+00 -0.89808214654E+02  0.89808214654E+02  0.00000000000E+00 0. -1.
         23    2    1    2    0    0 -0.15578397426E+02  0.42109648184E+02  0.29244943841E+03  0.31027495020E+03  0.93423561026E+02 0.  0.
         23    2    1    2    0    0  0.73802880565E+02 -0.18221457522E+02 -0.20970836488E+02  0.11956210239E+03  0.89868980472E+02 0.  0.
        -13    1    4    4    0    0  0.73086932095E+02  0.18507672980E+02  0.34112215784E+01  0.75470988034E+02  0.00000000000E+00 0. -1.
         13    1    4    4    0    0  0.71594846965E+00 -0.36729130502E+02 -0.24382058066E+02  0.44091114356E+02  0.00000000000E+00 0.  1.
        -13    1    3    3    0    0  0.24573766956E+02  0.39849775145E+02  0.23813024399E+03  0.24268887017E+03  0.00000000000E+00 0. -1.
         13    1    3    3    0    0 -0.40152164381E+02  0.22598730393E+01  0.54319194424E+02  0.67586080028E+02  0.00000000000E+00 0.  1.
         21    1    1    2  503  502 -0.21053123328E+02 -0.35571233595E+02  0.98285271796E+02  0.10662336195E+03  0.00000000000E+00 0. -1.
          1    1    1    2  501    0 -0.37171359811E+02  0.11683042932E+02  0.52294567570E+02  0.65214456064E+02  0.00000000000E+00 0. -1.
<scales pt_clust_5="13000.00000" pt_clust_6="13000.00000" pt_clust_7="13000.00000" pt_clust_8="13000.00000" pt_clust_9="41.82175" pt_clust_10="38.96415"></scales>
<clustering>
<clus scale="   38.964">  2 10  1 -1</clus>
<clus scale="   41.822">  1  9  2 -1</clus>
<clus scale="   89.869">  5  6 -1 -1</clus>
<clus scale="   93.424">  7  8 -1 -1</clus>
<clus scale="   98.670">  2  5  1 -1</clus>
<clus scale="   38.964">  2  5  1 -1</clus>
</clustering>
</event>
<event>
10    2  0.3544405E-006  0.1392112E+03  0.7546771E-02  0.1232208E+00
         21   -1    0    0  503  502  0.00000000000E+00  0.00000000000E+00  0.53707807154E+03  0.53707807154E+03  0.00000000000E+00 0. -1.
          1   -1    0    0  502    0 -0.00000000000E+00 -0.00000000000E+00 -0.12609112413E+03  0.12609112413E+03  0.00000000000E+00 0. -1.
         23    2    1    2    0    0  0.18813954143E+02 -0.29196456308E+02  0.91525697396E+02  0.13261512781E+03  0.89461840512E+02 0.  0.
         23    2    1    2    0    0 -0.95049172194E+02 -0.72655984280E+02 -0.45384220208E+02  0.14110107460E+03  0.59468887858E+02 0.  0.
        -11    1    4    4    0    0 -0.22083524297E+02 -0.17835226964E+02 -0.40822981132E+02  0.49722159595E+02  0.00000000000E+00 0.  1.
         11    1    4    4    0    0 -0.72965647897E+02 -0.54820757316E+02 -0.45612390759E+01  0.91378915006E+02  0.00000000000E+00 0. -1.
        -13    1    3    3    0    0  0.24440284187E+02  0.26676274486E+02  0.54273857565E+02  0.65227315801E+02  0.00000000000E+00 0.  1.
         13    1    3    3    0    0 -0.56263300442E+01 -0.55872730793E+02  0.37251839831E+02  0.67387812005E+02  0.00000000000E+00 0. -1.
         21    1    1    2  503  501  0.79031855437E+02  0.74698436775E+02  0.28296032566E+03  0.30313765277E+03  0.00000000000E+00 0. -1.
          1    1    1    2  501    0 -0.27966373854E+01  0.27154003813E+02  0.81885144567E+02  0.86315340494E+02  0.00000000000E+00 0. -1.
<scales pt_clust_5="13000.00000" pt_clust_6="13000.00000" pt_clust_7="13000.00000" pt_clust_8="13000.00000" pt_clust_9="24.42018" pt_clust_10="134.97740"></scales>
<clustering>
<clus scale="   24.420">  9 10 -1 -1</clus>
<clus scale="   59.469">  5  6 -1 -1</clus>
<clus scale="   89.462">  7  8 -1 -1</clus>
<clus scale="   95.968">  2  7  1 -1</clus>
<clus scale="  134.977">  1  9  2 -1</clus>
<clus scale="  134.977">  1  5  2 -1</clus>
</clustering>
</event>
<event>
10    2  0.3544405E-006  0.1204485E+03  0.7546771E-02  0.1242638E+00
         21   -1    0    0  501  502  0.00000000000E+00  0.00000000000E+00  0.23956221257E+02  0.23956221257E+02  0.00000000000E+00 0. -1.
          1   -1    0    0  503    0 -0.00000000000E+00 -0.00000000000E+00 -0.13009474766E+04  0.13009474766E+04  0.00000000000E+00 0. -1.
         23    2    1    2    0    0  0.40674736646E+02 -0.56945358579E+02 -0.41758702616E+03  0.43316146797E+03  0.91393242916E+02 0.  0.
         23    2    1    2    0    0 -0.97017031365E+02  0.31239617581E+02 -0.46558947912E+03  0.48546589890E+03  0.92278696606E+02 0.  0.
        -11    1    4    4    0    0 -0.76533219267E+02  0.63361012469E+02 -0.34144628690E+03  0.35560865905E+03  0.00000000000E+00 0. -1.
         11    1    4    4    0    0 -0.20483812098E+02 -0.32121394888E+02 -0.12414319221E+03  0.12985723984E+03  0.00000000000E+00 0.  1.
        -11    1    3    3    0    0  0.24650499592E+02  0.22558472361E+02 -0.10278456339E+03  0.10807959232E+03  0.00000000000E+00 0.  1.
         11    1    3    3    0    0  0.16024237054E+02 -0.79503830940E+02 -0.31480246278E+03  0.32508187565E+03  0.00000000000E+00 0. -1.
         21    1    1    2  503  502 -0.17105275809E+02  0.17335815993E+02 -0.13189504253E+03  0.13412465553E+03  0.00000000000E+00 0.  1.
          1    1    1    2  501    0  0.73447570528E+02  0.83699250053E+01 -0.26191970753E+03  0.27215167546E+03  0.00000000000E+00 0. -1.
<scales pt_clust_5="13000.00000" pt_clust_6="13000.00000" pt_clust_7="13000.00000" pt_clust_8="13000.00000" pt_clust_9="24.35408" pt_clust_10="70.62200"></scales>
<clustering>
<clus scale="   24.354">  2  9  1 -1</clus>
<clus scale="   70.622">  1 10  2 -1</clus>
<clus scale="   91.393">  7  8 -1 -1</clus>
<clus scale="   92.279">  5  6 -1 -1</clus>
<clus scale="  119.771">  2  7  1 -1</clus>
<clus scale="   70.622">  1  5  2 -1</clus>
</clustering>
</event>
<event>
10    2  0.3544405E-006  0.1478194E+03  0.7546771E-02  0.1203580E+00
         -2   -1    0    0    0  501 -0.00000000000E+00  0.00000000000E+00  0.31021034399E+03  0.31021034399E+03  0.00000000000E+00 0.  1.
         21   -1    0    0  503  502  0.00000000000E+00 -0.00000000000E+00 -0.18580181874E+03  0.18580181874E+03  0.00000000000E+00 0. -1.
         23    2    1    2    0    0  0.99076113005E+02 -0.76047887717E+02  0.53215810825E+02  0.16323974636E+03  0.90641794305E+02 0.  0.
         23    2    1    2    0    0 -0.89733888059E+02  0.71009397874E+02 -0.29919265626E+02  0.14775084404E+03  0.88547412201E+02 0.  0.
        -11    1    4    4    0    0 -0.53918536207E+02  0.30282449791E+02  0.28452780725E+02  0.68071991620E+02  0.00000000000E+00 0.  1.
         11    1    4    4    0    0 -0.35815351852E+02  0.40726948083E+02 -0.58372046351E+02  0.79678852424E+02  0.00000000000E+00 0. -1.
        -13    1    3    3    0    0  0.46888446121E+01 -0.57799607950E+02  0.24038908464E+02  0.62774589310E+02  0.00000000000E+00 0.  1.
         13    1    3    3    0    0  0.94387268393E+02 -0.18248279767E+02  0.29176902362E+02  0.10046515705E+03  0.00000000000E+00 0. -1.
         21    1    1    2  503  501  0.91795787430E+01  0.40772356345E+02  0.12929816431E+03  0.13588474896E+03  0.00000000000E+00 0.  1.
         -2    1    1    2    0  502 -0.18521803689E+02 -0.35733866502E+02 -0.28186184262E+02  0.49136823365E+02  0.00000000000E+00 0.  1.
<scales pt_clust_5="13000.00000" pt_clust_6="13000.00000" pt_clust_7="13000.00000" pt_clust_8="13000.00000" pt_clust_9="40.92226" pt_clust_10="40.24881"></scales>
<clustering>
<clus scale="   40.249">  2 10  1 -1</clus>
<clus scale="   40.922">  1  9  2 -1</clus>
<clus scale="   88.547">  5  6 -1 -1</clus>
<clus scale="   90.642">  7  8 -1 -1</clus>
<clus scale="  146.544">  2  5  1 -1</clus>
<clus scale="   40.249">  2  5  1 -1</clus>
</clustering>
</event>
<event>
10    2  0.3544405E-006  0.1614978E+03  0.7546771E-02  0.1188960E+00
         21   -1    0    0  503  502  0.00000000000E+00  0.00000000000E+00  0.27749369045E+03  0.27749369045E+03  0.00000000000E+00 0.  1.
         -1   -1    0    0    0  501 -0.00000000000E+00 -0.00000000000E+00 -0.28044901842E+03  0.28044901842E+03  0.00000000000E+00 0.  1.
         23    2    1    2    0    0  0.14941790149E+02  0.10855977113E+03 -0.68942009498E+02  0.16450315696E+03  0.10148796469E+03 0.  0.
         23    2    1    2    0    0  0.41878530557E+02 -0.15394985893E+03 -0.23930455812E+02  0.18485967301E+03  0.90255535037E+02 0.  0.
        -11    1    3    3    0    0  0.20345893356E+02 -0.13551971053E+02 -0.24038101521E+02  0.34284714096E+02  0.00000000000E+00 0.  1.
         11    1    3    3    0    0 -0.54041032075E+01  0.12211174219E+03 -0.44903907977E+02  0.13021844287E+03  0.00000000000E+00 0. -1.
        -11    1    4    4    0    0 -0.10532308672E+02 -0.31865387176E+02  0.26489254974E+02  0.42755269324E+02  0.00000000000E+00 0. -1.
         11    1    4    4    0    0  0.52410839229E+02 -0.12208447175E+03 -0.50419710786E+02  0.14210440369E+03  0.00000000000E+00 0.  1.
         21    1    1    2  503  501 -0.11732465789E+03  0.49703604239E+02  0.64472904948E+02  0.14280153744E+03  0.00000000000E+00 0.  1.
         -1    1    1    2    0  502  0.60504337187E+02 -0.43135164417E+01  0.25444232390E+02  0.65778341454E+02  0.00000000000E+00 0.  1.
<scales pt_clust_5="13000.00000" pt_clust_6="13000.00000" pt_clust_7="13000.00000" pt_clust_8="13000.00000" pt_clust_9="102.14464" pt_clust_10="60.65790"></scales>
<clustering>
<clus scale="   60.658">  1 10  2 -1</clus>
<clus scale="   90.256">  7  8 -1 -1</clus>
<clus scale="  101.488">  5  6 -1 -1</clus>
<clus scale="  102.145">  1  9  2 -1</clus>
<clus scale="  154.686">  1  7  2 -1</clus>
<clus scale="   60.658">  1  5  2 -1</clus>
</clustering>
</event>
<event>
10    2  0.3544405E-006  0.2465330E+03  0.7546771E-02  0.1115844E+00
          1   -1    0    0  503    0 -0.00000000000E+00  0.00000000000E+00  0.88141041168E+03  0.88141041168E+03  0.00000000000E+00 0. -1.
         21   -1    0    0  501  502  0.00000000000E+00 -0.00000000000E+00 -0.12400488321E+03  0.12400488321E+03  0.00000000000E+00 0.  1.
         23    2    1    2    0    0  0.23739519322E+03 -0.65519945562E+02  0.27818389951E+03  0.38095234245E+03  0.84196580962E+02 0.  0.
         23    2    1    2    0    0 -0.21026108269E+03  0.22671395118E+02  0.16557537133E+03  0.28323930319E+03  0.89919876707E+02 0.  0.
        -11    1    3    3    0    0  0.13108282315E+03 -0.16620141063E+02  0.20179953764E+03  0.24120942976E+03  0.00000000000E+00 0. -1.
         11    1    3    3    0    0  0.10631237007E+03 -0.48899804498E+02  0.76384361868E+02  0.13974291269E+03  0.00000000000E+00 0.  1.
        -11    1    4    4    0    0 -0.62510585090E+02  0.27259721007E+02  0.10114192479E+03  0.12198505887E+03  0.00000000000E+00 0.  1.
         11    1    4    4    0    0 -0.14775049760E+03 -0.45883258898E+01  0.64433446538E+02  0.16125424431E+03  0.00000000000E+00 0. -1.
         21    1    1    2  503  502 -0.89421508269E+00 -0.33871958477E+02  0.19241622376E+03  0.19537684703E+03  0.00000000000E+00 0. -1.
          1    1    1    2  501    0 -0.26239895441E+02  0.76720508921E+02  0.12123003387E+03  0.14584680221E+03  0.00000000000E+00 0. -1.
<scales pt_clust_5="13000.00000" pt_clust_6="13000.00000" pt_clust_7="13000.00000" pt_clust_8="13000.00000" pt_clust_9="33.88376" pt_clust_10="74.95000"></scales>
<clustering>
<clus scale="   33.884">  1  9  2 -1</clus>
<clus scale="   74.950">  2 10  1 -1</clus>
<clus scale="   84.197">  5  6 -1 -1</clus>
<clus scale="   89.920">  7  8 -1 -1</clus>
<clus scale="  244.504">  1  5  2 -1</clus>
<clus scale="   74.950">  2  5  1 -1</clus>
</clustering>
</event>
<event>
10    2  0.3544405E-006  0.3132226E+03  0.7546771E-02  0.1105986E+00
         21   -1    0    0  503  502  0.00000000000E+00  0.00000000000E+00  0.22404968958E+03  0.22404968958E+03  0.00000000000E+00 0.  1.
          1   -1    0    0  502    0 -0.00000000000E+00 -0.00000000000E+00 -0.71263010286E+03  0.71263010286E+03  0.00000000000E+00 0. -1.
         23    2    1    2    0    0 -0.58070864914E+02  0.10992357642E+03 -0.87130828347E+02  0.17623126004E+03  0.89500043352E+02 0.  0.
         23    2    1    2    0    0  0.73160505284E+02 -0.35777903691E+03 -0.23938385658E+03  0.44624693745E+03  0.92051070645E+02 0.  0.
        -13    1    4    4    0    0  0.38578092113E+02 -0.38842809054E+02 -0.23559977637E+02  0.59599543223E+02  0.00000000000E+00 0. -1.
         13    1    4    4    0    0  0.34582413171E+02 -0.31893622786E+03 -0.21582387894E+03  0.38664739423E+03  0.00000000000E+00 0.  1.
        -13    1    3    3    0    0 -0.61715469465E+02  0.25270461143E+02 -0.51737129237E+02  0.84404537315E+02  0.00000000000E+00 0. -1.
         13    1    3    3    0    0  0.36446045515E+01  0.84653115282E+02 -0.35393699110E+02  0.91826722722E+02  0.00000000000E+00 0.  1.
         21    1    1    2  503  501  0.38854492551E+02  0.65888884145E+02 -0.68127987480E+02  0.10243260869E+03  0.00000000000E+00 0. -1.
          1    1    1    2  501    0 -0.53944132921E+02  0.18196657635E+03 -0.93937740874E+02  0.21176898627E+03  0.00000000000E+00 0. -1.
<scales pt_clust_5="13000.00000" pt_clust_6="13000.00000" pt_clust_7="13000.00000" pt_clust_8="13000.00000" pt_clust_9="65.96664" pt_clust_10="65.96664"></scales>
<clustering>
<clus scale="   65.967">  9 10 -1 -1</clus>
<clus scale="   89.500">  7  8 -1 -1</clus>
<clus scale="   92.051">  5  6 -1 -1</clus>
<clus scale="  153.185">  2  7  1 -1</clus>
<clus scale="  309.491">  2  5  1 -1</clus>
<clus scale="  313.223">  1  5  2 -1</clus>
</clustering>
</event>
<event>
10    2  0.3544405E-006  0.3708753E+03  0.7546771E-02  0.1054459E+00
         21   -1    0    0  503  502  0.00000000000E+00  0.00000000000E+00  0.39176666644E+03  0.39176666644E+03  0.00000000000E+00 0. -1.
         -3   -1    0    0    0  501 -0.00000000000E+00 -0.00000000000E+00 -0.15425198336E+04  0.15425198336E+04  0.00000000000E+00 0.  1.
         23    2    1    2    0    0  0.30420821419E+03 -0.32663355544E+03 -0.95566684478E+03  0.10589599063E+04  0.94153321383E+02 0.  0.
         23    2    1    2    0    0 -0.27056678526E+03  0.15159777646E+03 -0.14405164612E+03  0.35358838620E+03  0.89919958792E+02 0.  0.
        -13    1    4    4    0    0 -0.21498023951E+03  0.12497743971E+03 -0.72226434785E+02  0.25894501675E+03  0.00000000000E+00 0. -1.
         13    1    4    4    0    0 -0.55586545751E+02  0.26620336751E+02 -0.71825211340E+02  0.94643369452E+02  0.00000000000E+00 0.  1.
        -13    1    3    3    0    0  0.19861067604E+02 -0.64139218276E+02 -0.10857388469E+03  0.12765809713E+03  0.00000000000E+00 0. -1.
         13    1    3    3    0    0  0.28434714658E+03 -0.26249433716E+03 -0.84709296009E+03  0.93130180922E+03  0.00000000000E+00 0.  1.
         21    1    1    2  503  501 -0.14519687719E+02  0.11870384476E+03 -0.26975354059E+03  0.29507354465E+03  0.00000000000E+00 0.  1.
         -3    1    1    2    0  502 -0.19121741209E+02  0.56331934215E+02  0.21871886429E+03  0.22666466288E+03  0.00000000000E+00 0.  1.
<scales pt_clust_5="13000.00000" pt_clust_6="13000.00000" pt_clust_7="13000.00000" pt_clust_8="13000.00000" pt_clust_9="123.95256" pt_clust_10="59.48889"></scales>
<clustering>
<clus scale="   59.489">  1 10  2 -1</clus>
<clus scale="   89.920">  5  6 -1 -1</clus>
<clus scale="   94.153">  7  8 -1 -1</clus>
<clus scale="  123.953">  2  9  1 -1</clus>
<clus scale="  369.823">  1  5  2 -1</clus>
<clus scale="   59.489">  1  5  2 -1</clus>
</clustering>
</event>
<event>
10    2  0.3544405E-006  0.1689192E+03  0.7546771E-02  0.1207169E+00
         21   -1    0    0  503  502  0.00000000000E+00  0.00000000000E+00  0.22456545122E+03  0.22456545122E+03  0.00000000000E+00 0.  1.
         -1   -1    0    0    0  501 -0.00000000000E+00 -0.00000000000E+00 -0.25075382232E+03  0.25075382232E+03  0.00000000000E+00 0.  1.
         23    2    1    2    0    0 -0.47169273646E+01 -0.41682237620E+00 -0.36826792264E+02  0.97511435832E+02  0.90165649473E+02 0.  0.
         23    2    1    2    0    0  0.92927916042E+02  0.96555786351E+02  0.26340376307E+02  0.16188498660E+03  0.86915568257E+02 0.  0.
        -11    1    3    3    0    0 -0.45868913186E+01  0.35567803410E+02 -0.47921878852E+02  0.59854947032E+02  0.00000000000E+00 0.  1.
         11    1    3    3    0    0 -0.13003604595E+00 -0.35984625787E+02  0.11095086588E+02  0.37656488801E+02  0.00000000000E+00 0. -1.
        -11    1    4    4    0    0  0.88446688876E+02  0.56864366852E+02 -0.12843584587E+02  0.10593078238E+03  0.00000000000E+00 0.  1.
         11    1    4    4    0    0  0.44812271663E+01  0.39691419499E+02  0.39183960894E+02  0.55954204222E+02  0.00000000000E+00 0. -1.
         21    1    1    2  503  501  0.62415911297E-01  0.32525416638E+02 -0.46629866841E+02  0.56852890031E+02  0.00000000000E+00 0.  1.
         -1    1    1    2    0  502 -0.88273404589E+02 -0.12866438061E+03  0.30927911693E+02  0.15906996108E+03  0.00000000000E+00 0.  1.
<scales pt_clust_5="13000.00000" pt_clust_6="13000.00000" pt_clust_7="13000.00000" pt_clust_8="13000.00000" pt_clust_9="32.52548" pt_clust_10="144.84270"></scales>
<clustering>
<clus scale="   32.525">  2  9  1 -1</clus>
<clus scale="   86.916">  7  8 -1 -1</clus>
<clus scale="   90.166">  5  6 -1 -1</clus>
<clus scale="   90.903">  2  5  1 -1</clus>
<clus scale="  144.843">  1 10  2 -1</clus>
<clus scale="  144.843">  1  5  2 -1</clus>
</clustering>
</event>
<event>
10    2  0.3544405E-006  0.1056996E+03  0.7546771E-02  0.1269069E+00
         21   -1    0    0  503  502  0.00000000000E+00  0.00000000000E+00  0.40759600595E+02  0.40759600595E+02  0.00000000000E+00 0. -1.
         -1   -1    0    0    0  501 -0.00000000000E+00 -0.00000000000E+00 -0.77196364950E+03  0.77196364950E+03  0.00000000000E+00 0.  1.
         23    2    1    2    0    0 -0.42189029013E+01 -0.82832948855E+02 -0.32789659888E+03  0.35057913288E+03  0.92252112679E+02 0.  0.
         23    2    1    2    0    0 -0.24777451872E+02  0.21822858589E+02 -0.68759733208E+02  0.11912284906E+03  0.91499688405E+02 0.  0.
        -11    1    4    4    0    0  0.24451117656E+02  0.34723166214E+02 -0.48188825160E+02  0.64231754583E+02  0.00000000000E+00 0.  1.
         11    1    4    4    0    0 -0.49228569528E+02 -0.12900307625E+02 -0.20570908048E+02  0.54891094473E+02  0.00000000000E+00 0. -1.
        -13    1    3    3    0    0 -0.43429051972E+02 -0.38494438624E+02 -0.10513940810E+03  0.12009246228E+03  0.00000000000E+00 0.  1.
         13    1    3    3    0    0  0.39210149071E+02 -0.44338510231E+02 -0.22275719078E+03  0.23048667060E+03  0.00000000000E+00 0. -1.
         21    1    1    2  503  501  0.32108111813E+02  0.38661775167E+02 -0.27015362052E+03  0.27478835926E+03  0.00000000000E+00 0.  1.
         -1    1    1    2    0  502 -0.31117570400E+01  0.22348315098E+02 -0.64394096291E+02  0.68232908898E+02  0.00000000000E+00 0.  1.
<scales pt_clust_5="13000.00000" pt_clust_6="13000.00000" pt_clust_7="13000.00000" pt_clust_8="13000.00000" pt_clust_9="51.17281" pt_clust_10="22.56393"></scales>
<clustering>
<clus scale="   22.564">  1 10  2 -1</clus>
<clus scale="   51.173">  2  9  1 -1</clus>
<clus scale="   91.500">  5  6 -1 -1</clus>
<clus scale="   92.252">  7  8 -1 -1</clus>
<clus scale="  105.044">  1  5  2 -1</clus>
<clus scale="   22.564">  1  5  2 -1</clus>
</clustering>
</event>
<event>
10    2  0.3544405E-006  0.1259155E+03  0.7546771E-02  0.1257175E+00
         -3   -1    0    0    0  501 -0.00000000000E+00  0.00000000000E+00  0.76835931764E+02  0.76835931764E+02  0.00000000000E+00 0.  1.
         21   -1    0    0  503  502  0.00000000000E+00 -0.00000000000E+00 -0.10702371780E+04  0.10702371780E+04  0.00000000000E+00 0.  1.
         23    2    1    2    0    0 -0.66928021330E+01  0.45780088852E+02  0.17473331600E+02  0.86717814592E+02  0.71232379679E+02 0.  0.
         23    2    1    2    0    0  0.74079462432E+02 -0.54526422561E+02 -0.73574876534E+03  0.74707177192E+03  0.91263843816E+02 0.  0.
        -13    1    3    3    0    0 -0.31924389062E+02  0.20711932334E+02  0.30573157982E+02  0.48814636606E+02  0.00000000000E+00 0.  1.
         13    1    3    3    0    0  0.25231586929E+02  0.25068156518E+02 -0.13099826382E+02  0.37903177986E+02  0.00000000000E+00 0. -1.
        -13    1    4    4    0    0  0.78584574774E+02 -0.74694876979E+02 -0.63996971313E+03  0.64908866402E+03  0.00000000000E+00 0.  1.
         13    1    4    4    0    0 -0.45051123425E+01  0.20168454418E+02 -0.95779052211E+02  0.97983107898E+02  0.00000000000E+00 0. -1.
         21    1    1    2  503  501  0.12413643780E+02 -0.16170822076E+02  0.49655024574E+01  0.20982141292E+02  0.00000000000E+00 0.  1.
         -3    1    1    2    0  502 -0.79800304079E+02  0.24917155785E+02 -0.28009131493E+03  0.29230138194E+03  0.00000000000E+00 0.  1.
<scales pt_clust_5="13000.00000" pt_clust_6="13000.00000" pt_clust_7="13000.00000" pt_clust_8="13000.00000" pt_clust_9="20.38612" pt_clust_10="86.75044"></scales>
<clustering>
<clus scale="   20.386">  1  9  2 -1</clus>
<clus scale="   71.232">  5  6 -1 -1</clus>
<clus scale="   78.408">  1  5  2 -1</clus>
<clus scale="   86.750">  2 10  1 -1</clus>
<clus scale="   91.264">  7  8 -1 -1</clus>
<clus scale="   86.750">  2  5  1 -1</clus>
</clustering>
</event>
<event>
10    2  0.3544405E-006  0.1474785E+03  0.7546771E-02  0.1203889E+00
         21   -1    0    0  501  502  0.00000000000E+00  0.00000000000E+00  0.15490284598E+03  0.15490284598E+03  0.00000000000E+00 0.  1.
          1   -1    0    0  503    0 -0.00000000000E+00 -0.00000000000E+00 -0.48437007742E+03  0.48437007742E+03  0.00000000000E+00 0. -1.
         23    2    1    2    0    0 -0.13470598835E+03  0.86219547895E+02 -0.27530256436E+03  0.33135057737E+03  0.91772487409E+02 0.  0.
         23    2    1    2    0    0  0.98804732117E+02  0.18366341179E+02  0.34401176750E+02  0.13943291314E+03  0.90323854697E+02 0.  0.
        -11    1    3    3    0    0 -0.12972789686E+03  0.42367236856E+02 -0.17623562215E+03  0.22289752017E+03  0.00000000000E+00 0.  1.
         11    1    3    3    0    0 -0.49780914894E+01  0.43852311039E+02 -0.99066942201E+02  0.10845305720E+03  0.00000000000E+00 0. -1.
        -11    1    4    4    0    0  0.92065110832E+02  0.45329569119E+02  0.11199953795E+02  0.10322884013E+03  0.00000000000E+00 0. -1.
         11    1    4    4    0    0  0.67396212848E+01 -0.26963227940E+02  0.23201222954E+02  0.36204073011E+02  0.00000000000E+00 0.  1.
         21    1    1    2  503  502  0.18405028323E+02 -0.77849651439E+02 -0.10544297942E+03  0.13235382581E+03  0.00000000000E+00 0. -1.
          1    1    1    2  501    0  0.17496227907E+02 -0.26736237635E+02  0.16877135581E+02  0.36135607083E+02  0.00000000000E+00 0. -1.
<scales pt_clust_5="13000.00000" pt_clust_6="13000.00000" pt_clust_7="13000.00000" pt_clust_8="13000.00000" pt_clust_9="83.15205" pt_clust_10="31.95222"></scales>
<clustering>
<clus scale="   31.952">  1 10  2 -1</clus>
<clus scale="   83.152">  2  9  1 -1</clus>
<clus scale="   90.324">  7  8 -1 -1</clus>
<clus scale="   91.772">  5  6 -1 -1</clus>
<clus scale="  146.581">  1  7  2 -1</clus>
<clus scale="   31.952">  1  5  2 -1</clus>
</clustering>
</event>
<event>
10    2  0.3544405E-006  0.1012322E+03  0.7546771E-02  0.1278097E+00
         -3   -1    0    0    0  501 -0.00000000000E+00  0.00000000000E+00  0.78489482612E+02  0.78489482612E+02  0.00000000000E+00 0.  1.
         21   -1    0    0  503  502  0.00000000000E+00 -0.00000000000E+00 -0.74322635356E+03  0.74322635356E+03  0.00000000000E+00 0. -1.
         23    2    1    2    0    0  0.43044263287E+02  0.10981619827E+02  0.16806031233E+02  0.10316965838E+03  0.91586741115E+02 0.  0.
         23    2    1    2    0    0 -0.20708886298E+01  0.51029952569E+02 -0.42563936835E+03  0.43820218190E+03  0.90796121579E+02 0.  0.
        -11    1    3    3    0    0  0.63673554312E+02  0.16392866999E+02  0.35577298358E+02  0.74758222060E+02  0.00000000000E+00 0.  1.
         11    1    3    3    0    0 -0.20629291024E+02 -0.54112471729E+01 -0.18771267126E+02  0.28411436318E+02  0.00000000000E+00 0. -1.
        -13    1    4    4    0    0  0.37633834229E+02 -0.12544430365E+01 -0.18328782412E+03  0.18711575449E+03  0.00000000000E+00 0.  1.
         13    1    4    4    0    0 -0.39704722859E+02  0.52284395605E+02 -0.24235154423E+03  0.25108642741E+03  0.00000000000E+00 0. -1.
         21    1    1    2  503  501  0.43183291943E+01 -0.20905798202E+02 -0.47754336221E+01  0.21874760154E+02  0.00000000000E+00 0. -1.
         -3    1    1    2    0  502 -0.45291703852E+02 -0.41105774193E+02 -0.25112810021E+03  0.25846923574E+03  0.00000000000E+00 0.  1.
<scales pt_clust_5="13000.00000" pt_clust_6="13000.00000" pt_clust_7="13000.00000" pt_clust_8="13000.00000" pt_clust_9="21.34714" pt_clust_10="61.74099"></scales>
<clustering>
<clus scale="   21.347">  1  9  2 -1</clus>
<clus scale="   61.741">  2 10  1 -1</clus>
<clus scale="   90.796">  7  8 -1 -1</clus>
<clus scale="   91.587">  5  6 -1 -1</clus>
<clus scale="  100.517">  2  7  1 -1</clus>
<clus scale="   61.741">  2  5  1 -1</clus>
</clustering>
</event>
<event>
10    2  0.3544405E-006  0.9926256E+02  0.7546771E-02  0.1285101E+00
          1   -1    0    0  503    0 -0.00000000000E+00  0.00000000000E+00  0.44962022111E+03  0.44962022111E+03  0.00000000000E+00 0. -1.
         21   -1    0    0  501  502  0.00000000000E+00 -0.00000000000E+00 -0.66077535035E+02  0.66077535035E+02  0.00000000000E+00 0. -1.
         23    2    1    2    0    0  0.24232276231E+01 -0.14786361959E+01  0.16530286125E+03  0.19192453406E+03  0.97477856165E+02 0.  0.
         23    2    1    2    0    0  0.12234621616E+02 -0.50484712370E+02  0.29494295894E+02  0.10922848647E+03  0.91447015351E+02 0.  0.
        -13    1    3    3    0    0 -0.16280000985E+02 -0.23702134535E+02  0.15979370877E+03  0.16236027524E+03  0.00000000000E+00 0.  1.
         13    1    3    3    0    0  0.18703228608E+02  0.22223498339E+02  0.55091524751E+01  0.29564258823E+02  0.00000000000E+00 0. -1.
        -13    1    4    4    0    0  0.34624717153E+02  0.10137925757E+02 -0.42429948581E+01  0.36327008987E+02  0.00000000000E+00 0.  1.
         13    1    4    4    0    0 -0.22390095537E+02 -0.60622638127E+02  0.33737290752E+02  0.72901477481E+02  0.00000000000E+00 0. -1.
         21    1    1    2  503  502  0.17766727395E+02  0.14790972655E+02  0.15013284559E+03  0.15190227385E+03  0.00000000000E+00 0.  1.
          1    1    1    2  501    0 -0.32424576634E+02  0.37172375911E+02  0.38612683339E+02  0.62642461760E+02  0.00000000000E+00 0. -1.
<scales pt_clust_5="13000.00000" pt_clust_6="13000.00000" pt_clust_7="13000.00000" pt_clust_8="13000.00000" pt_clust_9="23.11773" pt_clust_10="49.39227"></scales>
<clustering>
<clus scale="   23.118">  1  9  2 -1</clus>
<clus scale="   49.392">  2 10  1 -1</clus>
<clus scale="   91.447">  7  8 -1 -1</clus>
<clus scale="   93.347">  2  7  1 -1</clus>
<clus scale="   97.478">  5  6 -1 -1</clus>
<clus scale="   49.392">  2  5  1 -1</clus>
</clustering>
</event>
<event>
10    2  0.3544405E-006  0.9730425E+02  0.7546771E-02  0.1286242E+00
         -2   -1    0    0    0  501 -0.00000000000E+00  0.00000000000E+00  0.23693456393E+03  0.23693456393E+03  0.00000000000E+00 0.  1.
         21   -1    0    0  503  502  0.00000000000E+00 -0.00000000000E+00 -0.96787521004E+02  0.96787521004E+02  0.00000000000E+00 0. -1.
         23    2    1    2    0    0  0.21244310879E+02 -0.37080020283E+02  0.11639979543E+03  0.15376885820E+03  0.90937894895E+02 0.  0.
         23    2    1    2    0    0 -0.10406813437E+02  0.40312674353E+02 -0.29199674045E+02  0.10448581981E+03  0.91275692807E+02 0.  0.
        -11    1    4    4    0    0  0.21807034162E+02 -0.63211139628E+01  0.19369259581E+02  0.29844118975E+02  0.00000000000E+00 0.  1.
         11    1    4    4    0    0 -0.32213847599E+02  0.46633788316E+02 -0.48568933626E+02  0.74641700834E+02  0.00000000000E+00 0. -1.
        -11    1    3    3    0    0  0.17140568338E+01 -0.63652144406E+02  0.95313353206E+02  0.11462621331E+03  0.00000000000E+00 0.  1.
         11    1    3    3    0    0  0.19530254045E+02  0.26572124123E+02  0.21086442220E+02  0.39142644890E+02  0.00000000000E+00 0. -1.
         21    1    1    2  503  501 -0.29541130132E+02  0.96349252758E+01  0.30289792791E+02  0.43393337067E+02  0.00000000000E+00 0. -1.
         -2    1    1    2    0  502  0.18703632690E+02 -0.12867579345E+02  0.22657128757E+02  0.32074069863E+02  0.00000000000E+00 0.  1.
<scales pt_clust_5="13000.00000" pt_clust_6="13000.00000" pt_clust_7="13000.00000" pt_clust_8="13000.00000" pt_clust_9="29.52707" pt_clust_10="22.70244"></scales>
<clustering>
<clus scale="   22.702">  2 10  1 -1</clus>
<clus scale="   29.527">  1  9  2 -1</clus>
<clus scale="   90.938">  7  8 -1 -1</clus>
<clus scale="   91.276">  5  6 -1 -1</clus>
<clus scale="   96.987">  1  7  2 -1</clus>
<clus scale="   22.702">  2  5  1 -1</clus>
</clustering>
</event>
<event>
10    2  0.3544405E-006  0.2500358E+03  0.7546771E-02  0.1113289E+00
         21   -1    0    0  503  502  0.00000000000E+00  0.00000000000E+00  0.38782176418E+03  0.38782176418E+03  0.00000000000E+00 0.  1.
         -3   -1    0    0    0  501 -0.00000000000E+00 -0.00000000000E+00 -0.27784208477E+03  0.27784208477E+03  0.00000000000E+00 0.  1.
         23    2    1    2    0    0  0.19726402799E+03  0.85128214729E+02 -0.95011627637E+01  0.23356080253E+03  0.91106897119E+02 0.  0.
         23    2    1    2    0    0 -0.22753453376E+03 -0.10010616260E+03  0.50631551508E+02  0.26959239857E+03  0.91232118873E+02 0.  0.
        -13    1    3    3    0    0  0.98975755601E+02  0.91524380395E+02 -0.81985385614E+01  0.13505601963E+03  0.00000000000E+00 0.  1.
         13    1    3    3    0    0  0.98288272388E+02 -0.63961656667E+01 -0.13026242023E+01  0.98504782899E+02  0.00000000000E+00 0. -1.
        -13    1    4    4    0    0 -0.14602763084E+03 -0.73045409764E+02 -0.11362682138E+02  0.16367287925E+03  0.00000000000E+00 0. -1.
         13    1    4    4    0    0 -0.81506902924E+02 -0.27060752839E+02  0.61994233646E+02  0.10591951932E+03  0.00000000000E+00 0.  1.
         21    1    1    2  503  501  0.43468889932E+02 -0.26864614687E+01 -0.35294725157E+02  0.56057819179E+02  0.00000000000E+00 0.  1.
         -3    1    1    2    0  502 -0.13198384157E+02  0.17664409343E+02  0.10414401582E+03  0.10645282867E+03  0.00000000000E+00 0.  1.
<scales pt_clust_5="13000.00000" pt_clust_6="13000.00000" pt_clust_7="13000.00000" pt_clust_8="13000.00000" pt_clust_9="43.03216" pt_clust_10="22.05059"></scales>
<clustering>
<clus scale="   22.051">  1 10  2 -1</clus>
<clus scale="   43.032">  2  9  1 -1</clus>
<clus scale="   91.107">  5  6 -1 -1</clus>
<clus scale="   91.232">  7  8 -1 -1</clus>
<clus scale="  249.990">  2  5  1 -1</clus>
<clus scale="   22.051">  1  5  2 -1</clus>
</clustering>
</event>
<event>
10    2  0.3544405E-006  0.2470990E+03  0.7546771E-02  0.1149556E+00
         -2   -1    0    0    0  501 -0.00000000000E+00  0.00000000000E+00  0.89630802330E+03  0.89630802330E+03  0.00000000000E+00 0.  1.
         21   -1    0    0  503  502  0.00000000000E+00 -0.00000000000E+00 -0.24791270894E+03  0.24791270894E+03  0.00000000000E+00 0. -1.
         23    2    1    2    0    0  0.17729996341E+03 -0.71570400599E+02  0.16136090562E+03  0.26886566503E+03  0.98457121134E+02 0.  0.
         23    2    1    2    0    0  0.95180244811E+01 -0.32916329469E+02 -0.13408781481E+03  0.16858409317E+03  0.96265138306E+02 0.  0.
        -13    1    3    3    0    0  0.21175524655E+02 -0.24463207021E+02  0.80672844808E+02  0.86919268471E+02  0.00000000000E+00 0.  1.
         13    1    3    3    0    0  0.15612443875E+03 -0.47107193578E+02  0.80688060815E+02  0.18194639656E+03  0.00000000000E+00 0. -1.
        -13    1    4    4    0    0 -0.11375210292E+02  0.28438778360E+02 -0.74458775211E+02  0.80512537718E+02  0.00000000000E+00 0.  1.
         13    1    4    4    0    0  0.20893234773E+02 -0.61355107829E+02 -0.59629039600E+02  0.88071555451E+02  0.00000000000E+00 0. -1.
         21    1    1    2  503  501 -0.21613272110E+03  0.10783683930E+03  0.63100459476E+03  0.67565444988E+03  0.00000000000E+00 0.  1.
         -2    1    1    2    0  502  0.29314733209E+02 -0.33501092318E+01 -0.98823712106E+01  0.31116524159E+02  0.00000000000E+00 0.  1.
<scales pt_clust_5="13000.00000" pt_clust_6="13000.00000" pt_clust_7="13000.00000" pt_clust_8="13000.00000" pt_clust_9="226.63647" pt_clust_10="29.50554"></scales>
<clustering>
<clus scale="   29.506">  2 10  1 -1</clus>
<clus scale="   96.265">  7  8 -1 -1</clus>
<clus scale="   98.457">  5  6 -1 -1</clus>
<clus scale="  106.512">  2  7  1 -1</clus>
<clus scale="  226.636">  1  9  2 -1</clus>
<clus scale="   29.506">  2  5  1 -1</clus>
</clustering>
</event>
<event>
10    2  0.3544405E-006  0.2079438E+03  0.7546771E-02  0.1165649E+00
          2   -1    0    0  503    0 -0.00000000000E+00  0.00000000000E+00  0.69188075556E+03  0.69188075556E+03  0.00000000000E+00 0. -1.
         21   -1    0    0  501  502  0.00000000000E+00 -0.00000000000E+00 -0.31513929945E+03  0.31513929945E+03  0.00000000000E+00 0. -1.
         23    2    1    2    0    0  0.55558142658E+02  0.33567137467E+02 -0.33368797825E+02  0.13068584620E+03  0.10840596753E+03 0.  0.
         23    2    1    2    0    0  0.14684146328E+03 -0.16466661673E+03  0.25000308967E+03  0.34725583570E+03  0.96992580029E+02 0.  0.
        -11    1    3    3    0    0 -0.29872390865E+02  0.26999710854E+02 -0.58259500071E+01  0.40685203891E+02  0.00000000000E+00 0.  1.
         11    1    3    3    0    0  0.85430533523E+02  0.65674266135E+01 -0.27542847818E+02  0.90000642310E+02  0.00000000000E+00 0. -1.
        -11    1    4    4    0    0  0.13096935790E+03 -0.97104814122E+02  0.21411802793E+03  0.26912608108E+03  0.00000000000E+00 0. -1.
         11    1    4    4    0    0  0.15872105384E+02 -0.67561802606E+02  0.35885061738E+02  0.78129754617E+02  0.00000000000E+00 0.  1.
         21    1    1    2  503  502 -0.75865782764E+02  0.51443756406E+01  0.29542564673E+03  0.30505473991E+03  0.00000000000E+00 0. -1.
          2    1    1    2  501    0 -0.12653382318E+03  0.12595510362E+03 -0.13531848247E+03  0.22402363320E+03  0.00000000000E+00 0. -1.
<scales pt_clust_5="13000.00000" pt_clust_6="13000.00000" pt_clust_7="13000.00000" pt_clust_8="13000.00000" pt_clust_9="76.04000" pt_clust_10="183.93771"></scales>
<clustering>
<clus scale="   76.040">  1  9  2 -1</clus>
<clus scale="   96.993">  7  8 -1 -1</clus>
<clus scale="  108.406">  5  6 -1 -1</clus>
<clus scale="  122.679">  1  5  2 -1</clus>
<clus scale="  183.938">  2 10  1 -1</clus>
<clus scale="  183.938">  2  5  1 -1</clus>
</clustering>
</event>
<event>
10    2  0.3544405E-006  0.1133734E+03  0.7546771E-02  0.1261402E+00
         21   -1    0    0  503  502  0.00000000000E+00  0.00000000000E+00  0.92087957154E+02  0.92087957154E+02  0.00000000000E+00 0. -1.
         -4   -1    0    0    0  501 -0.00000000000E+00 -0.00000000000E+00 -0.26209060822E+03  0.26209060822E+03  0.00000000000E+00 0.  1.
         23    2    1    2    0    0 -0.19254862494E+02 -0.97838594343E+01 -0.44552887626E+02  0.10701490631E+03  0.94872318095E+02 0.  0.
         23    2    1    2    0    0  0.35476729801E+02 -0.14049538891E+02 -0.71496996297E+02  0.13657288630E+03  0.10992881739E+03 0.  0.
        -11    1    3    3    0    0 -0.29001793989E+02 -0.48673320107E+02 -0.31639991888E+02  0.64894416027E+02  0.00000000000E+00 0.  1.
         11    1    3    3    0    0  0.97469314950E+01  0.38889460673E+02 -0.12912895738E+02  0.42120490279E+02  0.00000000000E+00 0. -1.
        -13    1    4    4    0    0 -0.30788832566E+02  0.14692718176E+02 -0.51236105983E+02  0.61554583375E+02  0.00000000000E+00 0.  1.
         13    1    4    4    0    0  0.66265562367E+02 -0.28742257067E+02 -0.20260890314E+02  0.75018302923E+02  0.00000000000E+00 0. -1.
         21    1    1    2  503  501  0.30219606091E+02 -0.12992586282E+02 -0.35766984617E+02  0.48593302823E+02  0.00000000000E+00 0.  1.
         -4    1    1    2    0  502 -0.46441473399E+02  0.36825984608E+02 -0.18185782524E+02  0.61997469946E+02  0.00000000000E+00 0.  1.
<scales pt_clust_5="13000.00000" pt_clust_6="13000.00000" pt_clust_7="13000.00000" pt_clust_8="13000.00000" pt_clust_9="32.89425" pt_clust_10="53.50467"></scales>
<clustering>
<clus scale="   32.894">  2  9  1 -1</clus>
<clus scale="   53.505">  1 10  2 -1</clus>
<clus scale="   94.872">  5  6 -1 -1</clus>
<clus scale="   98.843">  2  5  1 -1</clus>
<clus scale="  109.929">  7  8 -1 -1</clus>
<clus scale="   53.505">  1  5  2 -1</clus>
</clustering>
</event>
<event>
10    2  0.5123797E-006  0.1750563E+03  0.7546771E-02  0.1172930E+00
         21   -1    0    0  501  502  0.00000000000E+00  0.00000000000E+00  0.44089399332E+03  0.44089399332E+03  0.00000000000E+00 0. -1.
          2   -1    0    0  503    0 -0.00000000000E+00 -0.00000000000E+00 -0.45051644460E+03  0.45051644460E+03  0.00000000000E+00 0. -1.
         23    2    1    2    0    0 -0.52415080446E+02 -0.12333480576E+03 -0.36594721028E+03  0.40040391762E+03  0.91908223603E+02 0.  0.
         23    2    1    2    0    0  0.60035727723E+02  0.12007760442E+03  0.19843501454E+03  0.25591535210E+03  0.89962729825E+02 0.  0.
        -11    1    4    4    0    0  0.12861172512E+02  0.91842712791E+02  0.17086736351E+03  0.19441231845E+03  0.00000000000E+00 0.  1.
         11    1    4    4    0    0  0.47174555211E+02  0.28234891634E+02  0.27567651024E+02  0.61503033648E+02  0.00000000000E+00 0. -1.
        -13    1    3    3    0    0 -0.14156304406E+02 -0.29776100003E+02 -0.16965870647E+02  0.37079075671E+02  0.00000000000E+00 0.  1.
         13    1    3    3    0    0 -0.38258776040E+02 -0.93558705759E+02 -0.34898133963E+03  0.36332484195E+03  0.00000000000E+00 0. -1.
         21    1    1    2  503  502  0.92163430751E+01 -0.22713333375E+02 -0.33335447802E+02  0.41377392050E+02  0.00000000000E+00 0. -1.
          2    1    1    2  501    0 -0.16836990352E+02  0.25970534713E+02  0.19122519226E+03  0.19371377615E+03  0.00000000000E+00 0. -1.
<scales pt_clust_5="13000.00000" pt_clust_6="13000.00000" pt_clust_7="13000.00000" pt_clust_8="13000.00000" pt_clust_9="24.51197" pt_clust_10="30.87832"></scales>
<clustering>
<clus scale="   24.512">  2  9  1 -1</clus>
<clus scale="   30.878">  1 10  2 -1</clus>
<clus scale="   89.963">  5  6 -1 -1</clus>
<clus scale="   91.908">  7  8 -1 -1</clus>
<clus scale="  174.043">  1  5  2 -1</clus>
<clus scale="   30.878">  1  5  2 -1</clus>
</clustering>
</event>
<event>
10    2  0.3544405E-006  0.9780032E+02  0.7546771E-02  0.1285347E+00
         21   -1    0    0  503  502  0.00000000000E+00  0.00000000000E+00  0.91366651522E+02  0.91366651522E+02  0.00000000000E+00 0.  1.
         -3   -1    0    0    0  501 -0.00000000000E+00 -0.00000000000E+00 -0.63361740889E+03  0.63361740889E+03  0.00000000000E+00 0.  1.
         23    2    1    2    0    0  0.58670761603E+02  0.62533697333E+01 -0.31665534214E+03  0.33488370835E+03  0.91624939353E+02 0.  0.
         23    2    1    2    0    0  0.16773041304E+02  0.53797983903E+01 -0.12244698894E+02  0.93422099837E+02  0.90925678121E+02 0.  0.
        -11    1    4    4    0    0 -0.25358688474E+02 -0.27631271039E+02  0.34020960389E+01  0.37657993545E+02  0.00000000000E+00 0.  1.
         11    1    4    4    0    0  0.42131729778E+02  0.33011069429E+02 -0.15646794933E+02  0.55764106293E+02  0.00000000000E+00 0. -1.
        -13    1    3    3    0    0  0.66087856574E+02 -0.22219596276E+02 -0.14701410643E+03  0.16270974997E+03  0.00000000000E+00 0.  1.
         13    1    3    3    0    0 -0.74170949717E+01  0.28472966009E+02 -0.16964123571E+03  0.17217395838E+03  0.00000000000E+00 0. -1.
         21    1    1    2  503  501 -0.28871385639E+02 -0.46412000197E+02 -0.22984744953E+03  0.23625723423E+03  0.00000000000E+00 0.  1.
         -3    1    1    2    0  502 -0.46572417268E+02  0.34778832073E+02  0.16496733189E+02  0.60421018003E+02  0.00000000000E+00 0.  1.
<scales pt_clust_5="13000.00000" pt_clust_6="13000.00000" pt_clust_7="13000.00000" pt_clust_8="13000.00000" pt_clust_9="54.65922" pt_clust_10="57.94809"></scales>
<clustering>
<clus scale="   54.659">  2  9  1 -1</clus>
<clus scale="   57.948">  1 10  2 -1</clus>
<clus scale="   90.926">  5  6 -1 -1</clus>
<clus scale="   91.625">  7  8 -1 -1</clus>
<clus scale="   97.146">  1  5  2 -1</clus>
<clus scale="   57.948">  1  5  2 -1</clus>
</clustering>
</event>
<event>
10    2  0.3544405E-006  0.1116206E+03  0.7546771E-02  0.1257937E+00
          1   -1    0    0  503    0 -0.00000000000E+00  0.00000000000E+00  0.30239223158E+03  0.30239223158E+03  0.00000000000E+00 0. -1.
         21   -1    0    0  501  502  0.00000000000E+00 -0.00000000000E+00 -0.12405321486E+03  0.12405321486E+03  0.00000000000E+00 0. -1.
         23    2    1    2    0    0  0.44850240339E+02 -0.32990113200E+02  0.10042789040E+03  0.14706908758E+03  0.91889410290E+02 0.  0.
         23    2    1    2    0    0 -0.72516896731E+02  0.17145136847E+02  0.10944976841E+03  0.16065452158E+03  0.90983336231E+02 0.  0.
        -11    1    3    3    0    0  0.38048650101E+02 -0.60316655160E+02  0.43440742953E+02  0.83503873039E+02  0.00000000000E+00 0.  1.
         11    1    3    3    0    0  0.68015902379E+01  0.27326541960E+02  0.56987147448E+02  0.63565214540E+02  0.00000000000E+00 0. -1.
        -13    1    4    4    0    0  0.16534599787E+02  0.12582180433E+02  0.17772380507E+01  0.20853364948E+02  0.00000000000E+00 0.  1.
         13    1    4    4    0    0 -0.89051496518E+02  0.45629564140E+01  0.10767253035E+03  0.13980115663E+03  0.00000000000E+00 0. -1.
         21    1    1    2  503  502  0.42475090512E+02 -0.55958655208E+01  0.29726723823E+02  0.52145231174E+02  0.00000000000E+00 0.  1.
          1    1    1    2  501    0 -0.14808434119E+02  0.21440841874E+02 -0.61265365904E+02  0.66576606107E+02  0.00000000000E+00 0. -1.
<scales pt_clust_5="13000.00000" pt_clust_6="13000.00000" pt_clust_7="13000.00000" pt_clust_8="13000.00000" pt_clust_9="39.74683" pt_clust_10="26.05762"></scales>
<clustering>
<clus scale="   26.058">  2 10  1 -1</clus>
<clus scale="   39.747">  2  9  1 -1</clus>
<clus scale="   90.983">  7  8 -1 -1</clus>
<clus scale="   91.889">  5  6 -1 -1</clus>
<clus scale="  110.876">  2  7  1 -1</clus>
<clus scale="   26.058">  2  5  1 -1</clus>
</clustering>
</event>
<event>
10    2  0.3544405E-006  0.1524480E+03  0.7546771E-02  0.1203988E+00
          1   -1    0    0  503    0 -0.00000000000E+00  0.00000000000E+00  0.10729900528E+04  0.10729900528E+04  0.00000000000E+00 0. -1.
         21   -1    0    0  501  502  0.00000000000E+00 -0.00000000000E+00 -0.18232072944E+03  0.18232072944E+03  0.00000000000E+00 0.  1.
         23    2    1    2    0    0  0.81948501456E+02 -0.50917838015E+02  0.55907256092E+03  0.57474507745E+03  0.91986915154E+02 0.  0.
         23    2    1    2    0    0  0.58706646042E+02  0.24186803590E+02 -0.80918615706E+02  0.14463407529E+03  0.10168442166E+03 0.  0.
        -11    1    4    4    0    0  0.85215785080E+02  0.30957407708E+01 -0.50489880765E+02  0.99098646295E+02  0.00000000000E+00 0.  1.
         11    1    4    4    0    0 -0.26509139039E+02  0.21091062819E+02 -0.30428734941E+02  0.45535428992E+02  0.00000000000E+00 0. -1.
        -11    1    3    3    0    0  0.49846894682E+02  0.18255536418E+02  0.16392143065E+03  0.17230267829E+03  0.00000000000E+00 0. -1.
         11    1    3    3    0    0  0.32101606773E+02 -0.69173374432E+02  0.39515113027E+03  0.40244239916E+03  0.00000000000E+00 0.  1.
         21    1    1    2  503  502 -0.17269471604E+03  0.55208334599E+02  0.44606129310E+03  0.48149984669E+03  0.00000000000E+00 0. -1.
          1    1    1    2  501    0  0.32039568539E+02 -0.28477300174E+02 -0.33545914914E+02  0.54431782855E+02  0.00000000000E+00 0. -1.
<scales pt_clust_5="13000.00000" pt_clust_6="13000.00000" pt_clust_7="13000.00000" pt_clust_8="13000.00000" pt_clust_9="121.56807" pt_clust_10="42.86596"></scales>
<clustering>
<clus scale="   42.866">  2 10  1 -1</clus>
<clus scale="   91.987">  7  8 -1 -1</clus>
<clus scale="  101.684">  5  6 -1 -1</clus>
<clus scale="  132.425">  2  5  1 -1</clus>
<clus scale="  121.568">  2  9  1 -1</clus>
<clus scale="   42.866">  2  5  1 -1</clus>
</clustering>
</event>
<event>
10    2  0.3544405E-006  0.1087436E+03  0.7546771E-02  0.1264067E+00
         21   -1    0    0  501  502  0.00000000000E+00  0.00000000000E+00  0.25540498752E+03  0.25540498752E+03  0.00000000000E+00 0.  1.
         -1   -1    0    0    0  501 -0.00000000000E+00 -0.00000000000E+00 -0.21379407185E+03  0.21379407185E+03  0.00000000000E+00 0.  1.
         23    2    1    2    0    0  0.32951749311E+02 -0.45675816061E+02 -0.65059316651E+02  0.12500752195E+03  0.90675619139E+02 0.  0.
         23    2    1    2    0    0 -0.92537267456E+02  0.36229444955E+02  0.19366659115E+03  0.23469884791E+03  0.87755809670E+02 0.  0.
        -13    1    4    4    0    0 -0.66656394408E+02  0.60313745708E+02  0.99392333957E+02  0.13401365187E+03  0.00000000000E+00 0.  1.
         13    1    4    4    0    0 -0.25880873049E+02 -0.24084300753E+02  0.94274257196E+02  0.10068519604E+03  0.00000000000E+00 0. -1.
        -13    1    3    3    0    0  0.57661881836E+02 -0.19113017548E+02 -0.64669636489E+02  0.88726331719E+02  0.00000000000E+00 0.  1.
         13    1    3    3    0    0 -0.24710132525E+02 -0.26562798512E+02 -0.38968016227E+00  0.36281190235E+02  0.00000000000E+00 0. -1.
         21    1    1    2  503  502  0.21076558624E+02  0.13044280421E+02 -0.50781236216E+02  0.56507597071E+02  0.00000000000E+00 0. -1.
         -1    1    1    2    0  503  0.38508959521E+02 -0.35979093152E+01 -0.36215122613E+02  0.52985092439E+02  0.00000000000E+00 0.  1.
<scales pt_clust_5="13000.00000" pt_clust_6="13000.00000" pt_clust_7="13000.00000" pt_clust_8="13000.00000" pt_clust_9="22.36671" pt_clust_10="66.48524"></scales>
<clustering>
<clus scale="   22.367">  9 10 -1 -1</clus>
<clus scale="   66.485">  1  9  2 -1</clus>
<clus scale="   87.756">  5  6 -1 -1</clus>
<clus scale="   90.676">  7  8 -1 -1</clus>
<clus scale="  106.321">  1  5  2 -1</clus>
<clus scale="   66.485">  1  5  2 -1</clus>
</clustering>
</event>
<event>
10    2  0.3544405E-006  0.1145244E+03  0.7546771E-02  0.1260330E+00
          2   -1    0    0  503    0 -0.00000000000E+00  0.00000000000E+00  0.35847654851E+03  0.35847654851E+03  0.00000000000E+00 0. -1.
         21   -1    0    0  501  502  0.00000000000E+00 -0.00000000000E+00 -0.23924741787E+03  0.23924741787E+03  0.00000000000E+00 0. -1.
         23    2    1    2    0    0 -0.44080877634E+02 -0.40730766978E+02  0.25759764614E+03  0.27287250516E+03  0.67087537024E+02 0.  0.
         23    2    1    2    0    0  0.26659837536E+02  0.58881718373E+02 -0.34884176260E+02  0.11584761749E+03  0.89587728115E+02 0.  0.
        -13    1    3    3    0    0 -0.22042671294E+02 -0.53224139502E+02  0.12185569421E+03  0.13478686359E+03  0.00000000000E+00 0.  1.
         13    1    3    3    0    0 -0.22038206341E+02  0.12493372524E+02  0.13574195193E+03  0.13808564158E+03  0.00000000000E+00 0. -1.
        -13    1    4    4    0    0  0.30160643669E+02 -0.69527995030E+01  0.13804089767E+02  0.33890393060E+02  0.00000000000E+00 0.  1.
         13    1    4    4    0    0 -0.35008061340E+01  0.65834517876E+02 -0.48688266027E+02  0.81957224430E+02  0.00000000000E+00 0. -1.
         21    1    1    2  503  502 -0.28469961891E+02  0.10055116073E+02  0.43220501635E+02  0.52722441625E+02  0.00000000000E+00 0.  1.
          2    1    1    2  501    0  0.45891001989E+02 -0.28206067469E+02 -0.14670484088E+03  0.15628140210E+03  0.00000000000E+00 0. -1.
<scales pt_clust_5="13000.00000" pt_clust_6="13000.00000" pt_clust_7="13000.00000" pt_clust_8="13000.00000" pt_clust_9="30.19344" pt_clust_10="53.41105"></scales>
<clustering>
<clus scale="   30.193">  1  9  2 -1</clus>
<clus scale="   53.411">  2 10  1 -1</clus>
<clus scale="   67.088">  5  6 -1 -1</clus>
<clus scale="   89.588">  7  8 -1 -1</clus>
<clus scale="   97.932">  1  5  2 -1</clus>
<clus scale="   53.411">  2  5  1 -1</clus>
</clustering>
</event>
<event>
10    2  0.3544405E-006  0.1096973E+03  0.7546771E-02  0.1261727E+00
         21   -1    0    0  503  502  0.00000000000E+00  0.00000000000E+00  0.11546216759E+03  0.11546216759E+03  0.00000000000E+00 0.  1.
         -1   -1    0    0    0  501 -0.00000000000E+00 -0.00000000000E+00 -0.42088558649E+03  0.42088558649E+03  0.00000000000E+00 0.  1.
         23    2    1    2    0    0  0.47108376031E+02  0.22349694870E+02 -0.17300294682E+03  0.20256567669E+03  0.91564872151E+02 0.  0.
         23    2    1    2    0    0 -0.78293295239E+02 -0.24795569671E+02 -0.12910261024E+03  0.17753508765E+03  0.90036453849E+02 0.  0.
        -11    1    4    4    0    0 -0.15921806803E+02 -0.44973851042E+02 -0.23360004092E+02  0.53121003385E+02  0.00000000000E+00 0. -1.
         11    1    4    4    0    0 -0.62371488435E+02  0.20178281371E+02 -0.10574260615E+03  0.12441408427E+03  0.00000000000E+00 0.  1.
        -13    1    3    3    0    0  0.18508022439E+02  0.47072983336E+02 -0.15003237764E+03  0.15832917291E+03  0.00000000000E+00 0.  1.
         13    1    3    3    0    0  0.28600353592E+02 -0.24723288466E+02 -0.22970569179E+02  0.44236503779E+02  0.00000000000E+00 0. -1.
         21    1    1    2  503  501 -0.68162504514E+01 -0.19099733503E+02 -0.72026629056E+02  0.74827109948E+02  0.00000000000E+00 0. -1.
         -1    1    1    2    0  502  0.38001169659E+02  0.21545608305E+02  0.68708767213E+02  0.81419879787E+02  0.00000000000E+00 0.  1.
<scales pt_clust_5="13000.00000" pt_clust_6="13000.00000" pt_clust_7="13000.00000" pt_clust_8="13000.00000" pt_clust_9="20.27957" pt_clust_10="43.40402"></scales>
<clustering>
<clus scale="   20.280">  2  9  1 -1</clus>
<clus scale="   43.404">  1 10  2 -1</clus>
<clus scale="   90.036">  5  6 -1 -1</clus>
<clus scale="   91.565">  7  8 -1 -1</clus>
<clus scale="  108.425">  1  5  2 -1</clus>
<clus scale="   43.404">  1  5  2 -1</clus>
</clustering>
</event>
<event>
10    2  0.3544405E-006  0.2386680E+03  0.7546771E-02  0.1120703E+00
          1   -1    0    0  503    0 -0.00000000000E+00  0.00000000000E+00  0.11182029585E+03  0.11182029585E+03  0.00000000000E+00 0. -1.
         21   -1    0    0  501  502  0.00000000000E+00 -0.00000000000E+00 -0.74671630546E+03  0.74671630546E+03  0.00000000000E+00 0. -1.
         23    2    1    2    0    0 -0.19281179177E+03 -0.11849758762E+00 -0.22960485471E+03  0.31392258488E+03  0.93019346932E+02 0.  0.
         23    2    1    2    0    0  0.25196884691E+03 -0.50236372608E+02 -0.31570720990E+03  0.41746959840E+03  0.92724485756E+02 0.  0.
        -11    1    3    3    0    0 -0.16049064561E+03  0.26149974663E+02 -0.13791808043E+03  0.21321928950E+03  0.00000000000E+00 0.  1.
         11    1    3    3    0    0 -0.32321146159E+02 -0.26268472250E+02 -0.91686774281E+02  0.10070329539E+03  0.00000000000E+00 0. -1.
        -11    1    4    4    0    0  0.22132219891E+02 -0.21293327339E+02 -0.85650602550E+02  0.90990475675E+02  0.00000000000E+00 0.  1.
         11    1    4    4    0    0  0.22983662702E+03 -0.28943045269E+02 -0.23005660735E+03  0.32647912272E+03  0.00000000000E+00 0. -1.
         21    1    1    2  503  502 -0.42163982465E+00  0.26926687691E+02 -0.28880293581E+02  0.39487917741E+02  0.00000000000E+00 0. -1.
          1    1    1    2  501    0 -0.58735415321E+02  0.23428182505E+02 -0.60703651415E+02  0.87656500292E+02  0.00000000000E+00 0. -1.
<scales pt_clust_5="13000.00000" pt_clust_6="13000.00000" pt_clust_7="13000.00000" pt_clust_8="13000.00000" pt_clust_9="26.92999" pt_clust_10="64.62381"></scales>
<clustering>
<clus scale="   26.930">  1  9  2 -1</clus>
<clus scale="   64.624">  2 10  1 -1</clus>
<clus scale="   92.724">  7  8 -1 -1</clus>
<clus scale="   93.019">  5  6 -1 -1</clus>
<clus scale="  238.553">  2  7  1 -1</clus>
<clus scale="   64.624">  2  5  1 -1</clus>
</clustering>
</event>
<event>
10    2  0.3544405E-006  0.1260903E+03  0.7546771E-02  0.1235605E+00
         21   -1    0    0  501  502  0.00000000000E+00  0.00000000000E+00  0.26707220075E+03  0.26707220075E+03  0.00000000000E+00 0. -1.
         -3   -1    0    0    0  501 -0.00000000000E+00 -0.00000000000E+00 -0.10385667717E+03  0.10385667717E+03  0.00000000000E+00 0.  1.
         23    2    1    2    0    0  0.96975362078E+01  0.10439700025E+03  0.15029283134E+02  0.14415763619E+03  0.97789410729E+02 0.  0.
         23    2    1    2    0    0 -0.84198754090E+01 -0.41068036776E+02  0.98610116755E+02  0.14019684822E+03  0.90408645485E+02 0.  0.
        -11    1    4    4    0    0 -0.31851962813E+02 -0.60965416210E+02  0.64789571166E+02  0.94493481471E+02  0.00000000000E+00 0.  1.
         11    1    4    4    0    0  0.23432087404E+02  0.19897379434E+02  0.33820545589E+02  0.45703366751E+02  0.00000000000E+00 0. -1.
        -11    1    3    3    0    0 -0.38028033160E+02  0.36957658146E+02 -0.16791219883E+02  0.55623240348E+02  0.00000000000E+00 0.  1.
         11    1    3    3    0    0  0.47725569368E+02  0.67439342106E+02  0.31820503017E+02  0.88534395844E+02  0.00000000000E+00 0. -1.
         21    1    1    2  503  502  0.10996561888E+02 -0.28037038249E+02  0.90397400827E+01  0.31443867255E+02  0.00000000000E+00 0.  1.
         -3    1    1    2    0  503 -0.12274222687E+02 -0.35291925227E+02  0.40536383604E+02  0.55130526249E+02  0.00000000000E+00 0.  1.
<scales pt_clust_5="13000.00000" pt_clust_6="13000.00000" pt_clust_7="13000.00000" pt_clust_8="13000.00000" pt_clust_9="28.74478" pt_clust_10="70.97418"></scales>
<clustering>
<clus scale="   28.745">  9 10 -1 -1</clus>
<clus scale="   70.974">  1  9  2 -1</clus>
<clus scale="   90.409">  5  6 -1 -1</clus>
<clus scale="   97.789">  7  8 -1 -1</clus>
<clus scale="  120.456">  1  5  2 -1</clus>
<clus scale="   70.974">  1  5  2 -1</clus>
</clustering>
</event>
<event>
10    2  0.3544405E-006  0.2334718E+03  0.7546771E-02  0.1124390E+00
         21   -1    0    0  503  502  0.00000000000E+00  0.00000000000E+00  0.18357860840E+03  0.18357860840E+03  0.00000000000E+00 0. -1.
         -1   -1    0    0    0  501 -0.00000000000E+00 -0.00000000000E+00 -0.69689330590E+03  0.69689330590E+03  0.00000000000E+00 0.  1.
         23    2    1    2    0    0  0.11874200163E+03 -0.18398380227E+03 -0.47900665654E+03  0.53456594188E+03  0.91453085010E+02 0.  0.
         23    2    1    2    0    0 -0.10941845557E+03  0.17012346252E+03 -0.61936068477E+02  0.22946940604E+03  0.88914232899E+02 0.  0.
        -13    1    4    4    0    0 -0.38270869922E+02  0.21783455060E+02 -0.46791102973E+02  0.64254071594E+02  0.00000000000E+00 0.  1.
         13    1    4    4    0    0 -0.71147585645E+02  0.14834000746E+03 -0.15144965505E+02  0.16521533445E+03  0.00000000000E+00 0. -1.
        -13    1    3    3    0    0  0.12976584359E+03 -0.15639740578E+03 -0.44624624718E+03  0.49034175410E+03  0.00000000000E+00 0.  1.
         13    1    3    3    0    0 -0.11023841955E+02 -0.27586396496E+02 -0.32760409366E+02  0.44224187781E+02  0.00000000000E+00 0. -1.
         21    1    1    2  503  501  0.38448585926E+02 -0.12293949646E+02 -0.19116646839E+02  0.44664092334E+02  0.00000000000E+00 0.  1.
         -1    1    1    2    0  502 -0.47772131992E+02  0.26154289394E+02  0.46744674358E+02  0.71772474039E+02  0.00000000000E+00 0.  1.
<scales pt_clust_5="13000.00000" pt_clust_6="13000.00000" pt_clust_7="13000.00000" pt_clust_8="13000.00000" pt_clust_9="40.36626" pt_clust_10="40.80140"></scales>
<clustering>
<clus scale="   40.366">  1  9  2 -1</clus>
<clus scale="   40.801">  1 10  2 -1</clus>
<clus scale="   88.914">  5  6 -1 -1</clus>
<clus scale="   91.453">  7  8 -1 -1</clus>
<clus scale="  232.489">  1  5  2 -1</clus>
<clus scale="   40.366">  1  5  2 -1</clus>
</clustering>
</event>
<event>
10    2  0.3544405E-006  0.9515814E+02  0.7546771E-02  0.1291320E+00
         21   -1    0    0  501  502  0.00000000000E+00  0.00000000000E+00  0.14019393043E+03  0.14019393043E+03  0.00000000000E+00 0.  1.
          3   -1    0    0  503    0 -0.00000000000E+00 -0.00000000000E+00 -0.15851309993E+03  0.15851309993E+03  0.00000000000E+00 0. -1.
         23    2    1    2    0    0  0.19759631256E+02  0.97610188167E+01 -0.59623808482E+02  0.11154764180E+03  0.91663282383E+02 0.  0.
         23    2    1    2    0    0  0.24887104832E+02 -0.27157700762E+02  0.12915870465E+01  0.99640376950E+02  0.92572284320E+02 0.  0.
        -11    1    3    3    0    0  0.10449534969E+02 -0.36263282317E+02 -0.28138122473E+01  0.37843572305E+02  0.00000000000E+00 0.  1.
         11    1    3    3    0    0  0.93100962866E+01  0.46024301134E+02 -0.56809996235E+02  0.73704069494E+02  0.00000000000E+00 0. -1.
        -11    1    4    4    0    0  0.44378492511E+02 -0.11718205624E+02  0.35022373662E+02  0.57735029207E+02  0.00000000000E+00 0.  1.
         11    1    4    4    0    0 -0.19491387680E+02 -0.15439495138E+02 -0.33730786615E+02  0.41905347743E+02  0.00000000000E+00 0. -1.
         21    1    1    2  503  502  0.15201074187E+01  0.23408505583E+02 -0.35916333041E+01  0.23731175487E+02  0.00000000000E+00 0. -1.
          3    1    1    2  501    0 -0.46166843506E+02 -0.60118236375E+01  0.43604685237E+02  0.63787836124E+02  0.00000000000E+00 0. -1.
<scales pt_clust_5="13000.00000" pt_clust_6="13000.00000" pt_clust_7="13000.00000" pt_clust_8="13000.00000" pt_clust_9="23.45781" pt_clust_10="46.26882"></scales>
<clustering>
<clus scale="   23.458">  2  9  1 -1</clus>
<clus scale="   46.269">  1 10  2 -1</clus>
<clus scale="   91.663">  5  6 -1 -1</clus>
<clus scale="   92.572">  7  8 -1 -1</clus>
<clus scale="   94.274">  2  5  1 -1</clus>
<clus scale="   46.269">  1  5  2 -1</clus>
</clustering>
</event>
<event>
10    2  0.3544405E-006  0.9724453E+02  0.7546771E-02  0.1286482E+00
         21   -1    0    0  501  502  0.00000000000E+00  0.00000000000E+00  0.16175344656E+03  0.16175344656E+03  0.00000000000E+00 0. -1.
          1   -1    0    0  503    0 -0.00000000000E+00 -0.00000000000E+00 -0.30135254170E+03  0.30135254170E+03  0.00000000000E+00 0. -1.
         23    2    1    2    0    0 -0.47234982038E+01  0.41382381197E+02 -0.16733583716E+03  0.19561629978E+03  0.92356057907E+02 0.  0.
         23    2    1    2    0    0  0.16591202198E+02 -0.37251400194E+02 -0.24970941348E+02  0.10351719590E+03  0.91811367104E+02 0.  0.
        -11    1    4    4    0    0  0.30141679072E+02 -0.53810181428E+02 -0.43287436725E+02  0.75351566810E+02  0.00000000000E+00 0. -1.
         11    1    4    4    0    0 -0.13550476873E+02  0.16558781234E+02  0.18316495376E+02  0.28165629095E+02  0.00000000000E+00 0.  1.
        -13    1    3    3    0    0 -0.40626417939E+02  0.39084474310E+02 -0.59626181340E+02  0.82057196319E+02  0.00000000000E+00 0. -1.
         13    1    3    3    0    0  0.35902919735E+02  0.22979068866E+01 -0.10770965582E+03  0.11355910346E+03  0.00000000000E+00 0.  1.
         21    1    1    2  503  502  0.93590198595E+00 -0.22671830555E+02 -0.52070028974E+02  0.56799434245E+02  0.00000000000E+00 0.  1.
          1    1    1    2  501    0 -0.12803605981E+02  0.18540849552E+02  0.10477771234E+03  0.10717305833E+03  0.00000000000E+00 0. -1.
<scales pt_clust_5="13000.00000" pt_clust_6="13000.00000" pt_clust_7="13000.00000" pt_clust_8="13000.00000" pt_clust_9="21.88932" pt_clust_10="22.53210"></scales>
<clustering>
<clus scale="   22.532">  1 10  2 -1</clus>
<clus scale="   21.889">  2  9  1 -1</clus>
<clus scale="   91.811">  5  6 -1 -1</clus>
<clus scale="   92.356">  7  8 -1 -1</clus>
<clus scale="   96.727">  1  5  2 -1</clus>
<clus scale="   22.532">  1  5  2 -1</clus>
</clustering>
</event>
<event>
10    2  0.3544405E-006  0.1220088E+03  0.7546771E-02  0.1248725E+00
         21   -1    0    0  501  502  0.00000000000E+00  0.00000000000E+00  0.78086687991E+02  0.78086687991E+02  0.00000000000E+00 0.  1.
          1   -1    0    0  503    0 -0.00000000000E+00 -0.00000000000E+00 -0.60544631500E+03  0.60544631500E+03  0.00000000000E+00 0. -1.
         23    2    1    2    0    0 -0.22342638151E+02  0.54853927790E+01 -0.30545480179E+03  0.31995272954E+03  0.92400379824E+02 0.  0.
         23    2    1    2    0    0  0.61800629339E+02  0.85502279116E+01 -0.16823553056E+03  0.21266331694E+03  0.11414932520E+03 0.  0.
        -11    1    4    4    0    0  0.54596711889E+02  0.52755907161E+02 -0.14128425976E+03  0.16039086241E+03  0.00000000000E+00 0. -1.
         11    1    4    4    0    0  0.72039174505E+01 -0.44205679250E+02 -0.26951270808E+02  0.52272454531E+02  0.00000000000E+00 0.  1.
        -11    1    3    3    0    0 -0.46767610133E+02  0.12147007639E+02 -0.27968200570E+03  0.28382526925E+03  0.00000000000E+00 0.  1.
         11    1    3    3    0    0  0.24424971983E+02 -0.66616148602E+01 -0.25772796088E+02  0.36127460291E+02  0.00000000000E+00 0. -1.
         21    1    1    2  503  502 -0.27020374270E+02  0.85243156583E+01 -0.96699438213E+02  0.10076480504E+03  0.00000000000E+00 0.  1.
          1    1    1    2  501    0 -0.12437616919E+02 -0.22559936349E+02  0.43030143558E+02  0.50152151473E+02  0.00000000000E+00 0. -1.
<scales pt_clust_5="13000.00000" pt_clust_6="13000.00000" pt_clust_7="13000.00000" pt_clust_8="13000.00000" pt_clust_9="28.70688" pt_clust_10="25.76131"></scales>
<clustering>
<clus scale="   25.761">  1 10  2 -1</clus>
<clus scale="   28.707">  2  9  1 -1</clus>
<clus scale="   92.400">  7  8 -1 -1</clus>
<clus scale="  101.951">  2  7  1 -1</clus>
<clus scale="  114.149">  5  6 -1 -1</clus>
<clus scale="   25.761">  1  5  2 -1</clus>
</clustering>
</event>
<event>
10    2  0.3544405E-006  0.1441489E+03  0.7546771E-02  0.1231254E+00
         21   -1    0    0  503  502  0.00000000000E+00  0.00000000000E+00  0.16028247891E+03  0.16028247891E+03  0.00000000000E+00 0.  1.
         -2   -1    0    0    0  501 -0.00000000000E+00 -0.00000000000E+00 -0.41461800414E+03  0.41461800414E+03  0.00000000000E+00 0.  1.
         23    2    1    2    0    0 -0.43615792475E+02 -0.30618357707E+02  0.54513707371E+02  0.11586949718E+03  0.87259239650E+02 0.  0.
         23    2    1    2    0    0 -0.54984330226E+01  0.75725294943E+01 -0.37201876129E+02  0.94730053279E+02  0.86615399544E+02 0.  0.
        -11    1    3    3    0    0 -0.22978104561E+02  0.18357243062E+02  0.55392358182E+02  0.62715986853E+02  0.00000000000E+00 0. -1.
         11    1    3    3    0    0 -0.20637687914E+02 -0.48975600769E+02 -0.87865081095E+00  0.53153510330E+02  0.00000000000E+00 0.  1.
        -13    1    4    4    0    0 -0.31273981357E+02 -0.27572496020E+02 -0.27893572868E+02  0.50163291898E+02  0.00000000000E+00 0.  1.
         13    1    4    4    0    0  0.25775548335E+02  0.35145025515E+02 -0.93083032610E+01  0.44566761381E+02  0.00000000000E+00 0. -1.
         21    1    1    2  503  501  0.92239140894E+02  0.84524239982E+02 -0.25969493150E+03  0.28826006262E+03  0.00000000000E+00 0.  1.
         -2    1    1    2    0  502 -0.43124915397E+02 -0.61478411769E+02 -0.11952424978E+02  0.76040869961E+02  0.00000000000E+00 0.  1.
<scales pt_clust_5="13000.00000" pt_clust_6="13000.00000" pt_clust_7="13000.00000" pt_clust_8="13000.00000" pt_clust_9="114.73766" pt_clust_10="75.09563"></scales>
<clustering>
<clus scale="   75.096">  1 10  2 -1</clus>
<clus scale="   86.615">  7  8 -1 -1</clus>
<clus scale="   87.259">  5  6 -1 -1</clus>
<clus scale="   88.154">  1  7  2 -1</clus>
<clus scale="  114.738">  2  9  1 -1</clus>
<clus scale="   75.096">  1  5  2 -1</clus>
</clustering>
</event>
<event>
10    2  0.3544405E-006  0.1880322E+03  0.7546771E-02  0.1176192E+00
          1   -1    0    0  503    0 -0.00000000000E+00  0.00000000000E+00  0.78118486586E+03  0.78118486586E+03  0.00000000000E+00 0. -1.
         21   -1    0    0  501  502  0.00000000000E+00 -0.00000000000E+00 -0.92642677033E+02  0.92642677033E+02  0.00000000000E+00 0. -1.
         23    2    1    2    0    0 -0.76341388971E+01 -0.84202312506E+02  0.21062341132E+03  0.24475805417E+03  0.91629548585E+02 0.  0.
         23    2    1    2    0    0  0.16532360161E+03  0.97079996670E+02  0.20974353375E+03  0.29763787924E+03  0.88541166739E+02 0.  0.
        -11    1    4    4    0    0  0.15221502970E+03  0.48371456754E+02  0.17137644230E+03  0.23426288240E+03  0.00000000000E+00 0. -1.
         11    1    4    4    0    0  0.13108571907E+02  0.48708539917E+02  0.38367091450E+02  0.63374996841E+02  0.00000000000E+00 0.  1.
        -13    1    3    3    0    0  0.24186055181E+02  0.59710337129E+01  0.73330772589E+02  0.77446889655E+02  0.00000000000E+00 0.  1.
         13    1    3    3    0    0 -0.31820194078E+02 -0.90173346219E+02  0.13729263873E+03  0.16731116451E+03  0.00000000000E+00 0. -1.
         21    1    1    2  503  502  0.80772464338E+00 -0.25326427643E+02  0.85915691068E+02  0.89574473640E+02  0.00000000000E+00 0. -1.
          1    1    1    2  501    0 -0.15849718735E+03  0.12448743478E+02  0.18225955269E+03  0.24185713585E+03  0.00000000000E+00 0. -1.
<scales pt_clust_5="13000.00000" pt_clust_6="13000.00000" pt_clust_7="13000.00000" pt_clust_8="13000.00000" pt_clust_9="25.33930" pt_clust_10="165.88114"></scales>
<clustering>
<clus scale="   25.339">  1  9  2 -1</clus>
<clus scale="   88.541">  5  6 -1 -1</clus>
<clus scale="   91.630">  7  8 -1 -1</clus>
<clus scale="  130.422">  1  7  2 -1</clus>
<clus scale="  165.881">  2 10  1 -1</clus>
<clus scale="  165.881">  2  5  1 -1</clus>
</clustering>
</event>
<event>
10    2  0.3544405E-006  0.9883538E+02  0.7546771E-02  0.1283752E+00
          1   -1    0    0  503    0 -0.00000000000E+00  0.00000000000E+00  0.20893874942E+03  0.20893874942E+03  0.00000000000E+00 0. -1.
         21   -1    0    0  501  502  0.00000000000E+00 -0.00000000000E+00 -0.10640177787E+03  0.10640177787E+03  0.00000000000E+00 0.  1.
         23    2    1    2    0    0 -0.15950442423E+02  0.50284329821E+01  0.10398439722E+03  0.13897008419E+03  0.90665471274E+02 0.  0.
         23    2    1    2    0    0  0.39641254666E+02 -0.43586060575E+02  0.19259640949E+01  0.10979005843E+03  0.92622750140E+02 0.  0.
        -11    1    4    4    0    0  0.48079704892E+02 -0.68054680455E+02 -0.32761281291E+01  0.83389631069E+02  0.00000000000E+00 0.  1.
         11    1    4    4    0    0 -0.84384502264E+01  0.24468619880E+02  0.52020922239E+01  0.26400427356E+02  0.00000000000E+00 0. -1.
        -13    1    3    3    0    0  0.61549477767E+01 -0.40317509208E+02  0.36636379095E+02  0.54823436631E+02  0.00000000000E+00 0.  1.
         13    1    3    3    0    0 -0.22105390199E+02  0.45345942190E+02  0.67348018127E+02  0.84146647555E+02  0.00000000000E+00 0. -1.
         21    1    1    2  503  502  0.31482238145E+01  0.26327851521E+02  0.16301967604E+02  0.31125893186E+02  0.00000000000E+00 0. -1.
          1    1    1    2  501    0 -0.26839036058E+02  0.12229776071E+02 -0.19675357366E+02  0.35454491489E+02  0.00000000000E+00 0. -1.
<scales pt_clust_5="13000.00000" pt_clust_6="13000.00000" pt_clust_7="13000.00000" pt_clust_8="13000.00000" pt_clust_9="26.51541" pt_clust_10="29.85646"></scales>
<clustering>
<clus scale="   26.515">  1  9  2 -1</clus>
<clus scale="   29.856">  2 10  1 -1</clus>
<clus scale="   90.665">  7  8 -1 -1</clus>
<clus scale="   92.623">  5  6 -1 -1</clus>
<clus scale="   97.004">  1  7  2 -1</clus>
<clus scale="   29.856">  2  5  1 -1</clus>
</clustering>
</event>
<event>
10    2  0.3544405E-006  0.1082768E+03  0.7546771E-02  0.1264601E+00
         21   -1    0    0  501  502  0.00000000000E+00  0.00000000000E+00  0.13739688190E+03  0.13739688190E+03  0.00000000000E+00 0. -1.
          2   -1    0    0  503    0 -0.00000000000E+00 -0.00000000000E+00 -0.41448163013E+03  0.41448163013E+03  0.00000000000E+00 0. -1.
         23    2    1    2    0    0 -0.29846696214E+02  0.18965433082E+02 -0.97722557227E+02  0.13778143714E+03  0.90462773013E+02 0.  0.
         23    2    1    2    0    0  0.55937870464E+02 -0.38668173316E+02 -0.22621194817E+02  0.11697461613E+03  0.92450361727E+02 0.  0.
        -13    1    4    4    0    0  0.25003495928E+02 -0.14021829902E+02 -0.57493892782E+02  0.64244332277E+02  0.00000000000E+00 0. -1.
         13    1    4    4    0    0  0.30934374535E+02 -0.24646343413E+02  0.34872697965E+02  0.52730283850E+02  0.00000000000E+00 0.  1.
        -13    1    3    3    0    0  0.20418137052E+02  0.15602739190E+02  0.22885765328E+01  0.25798902563E+02  0.00000000000E+00 0.  1.
         13    1    3    3    0    0 -0.50264833266E+02  0.33626938914E+01 -0.10001113376E+03  0.11198253457E+03  0.00000000000E+00 0. -1.
         21    1    1    2  503  502 -0.42407860259E+02 -0.25518294375E+01 -0.22212619783E+03  0.22615257285E+03  0.00000000000E+00 0. -1.
          2    1    1    2  501    0  0.16316686009E+02  0.22254569672E+02  0.65385201638E+02  0.70969885915E+02  0.00000000000E+00 0. -1.
<scales pt_clust_5="13000.00000" pt_clust_6="13000.00000" pt_clust_7="13000.00000" pt_clust_8="13000.00000" pt_clust_9="41.97653" pt_clust_10="27.59529"></scales>
<clustering>
<clus scale="   27.595">  1 10  2 -1</clus>
<clus scale="   41.977">  2  9  1 -1</clus>
<clus scale="   90.463">  7  8 -1 -1</clus>
<clus scale="   92.450">  5  6 -1 -1</clus>
<clus scale="  106.585">  2  7  1 -1</clus>
<clus scale="   27.595">  1  5  2 -1</clus>
</clustering>
</event>
<event>
10    2  0.3544405E-006  0.9850690E+02  0.7546771E-02  0.1283469E+00
         -1   -1    0    0    0  501 -0.00000000000E+00  0.00000000000E+00  0.60722910980E+03  0.60722910980E+03  0.00000000000E+00 0.  1.
         21   -1    0    0  503  502  0.00000000000E+00 -0.00000000000E+00 -0.45947659948E+02  0.45947659948E+02  0.00000000000E+00 0. -1.
         23    2    1    2    0    0  0.28016533531E+02 -0.23203578637E+02  0.32118948015E+03  0.33614594517E+03  0.92239265412E+02 0.  0.
         23    2    1    2    0    0 -0.19407393699E+02  0.20599896515E+02  0.21067820857E+03  0.23171923352E+03  0.92236071858E+02 0.  0.
        -11    1    3    3    0    0 -0.82068937439E+01 -0.49451368857E+02  0.12010985919E+03  0.13015056381E+03  0.00000000000E+00 0. -1.
         11    1    3    3    0    0  0.36223427275E+02  0.26247790219E+02  0.20107962096E+03  0.20599538135E+03  0.00000000000E+00 0.  1.
        -13    1    4    4    0    0 -0.44127513588E+02  0.44090307174E+02  0.13631414090E+03  0.14990909796E+03  0.00000000000E+00 0.  1.
         13    1    4    4    0    0  0.24720119889E+02 -0.23490410659E+02  0.74364067664E+02  0.81810135557E+02  0.00000000000E+00 0. -1.
         21    1    1    2  503  501 -0.49619890365E+01 -0.26146750871E+02  0.45093312147E+02  0.52361061073E+02  0.00000000000E+00 0. -1.
         -1    1    1    2    0  502 -0.36471507959E+01  0.28750432994E+02 -0.15679551010E+02  0.32950529983E+02  0.00000000000E+00 0.  1.
<scales pt_clust_5="13000.00000" pt_clust_6="13000.00000" pt_clust_7="13000.00000" pt_clust_8="13000.00000" pt_clust_9="26.61342" pt_clust_10="28.58971"></scales>
<clustering>
<clus scale="   26.613">  1  9  2 -1</clus>
<clus scale="   28.590">  2 10  1 -1</clus>
<clus scale="   92.236">  7  8 -1 -1</clus>
<clus scale="   92.239">  5  6 -1 -1</clus>
<clus scale="   98.504">  2  7  1 -1</clus>
<clus scale="   28.590">  2  5  1 -1</clus>
</clustering>
</event>
<event>
10    2  0.3544405E-006  0.1240310E+03  0.7546771E-02  0.1236828E+00
         21   -1    0    0  501  502  0.00000000000E+00  0.00000000000E+00  0.62001741462E+02  0.62001741462E+02  0.00000000000E+00 0.  1.
          1   -1    0    0  503    0 -0.00000000000E+00 -0.00000000000E+00 -0.59688189815E+03  0.59688189815E+03  0.00000000000E+00 0. -1.
         23    2    1    2    0    0 -0.44882558654E+01 -0.86109025013E+02 -0.31641192169E+03  0.34062199410E+03  0.92043088012E+02 0.  0.
         23    2    1    2    0    0 -0.72297521159E+02  0.77330080498E+02 -0.13767369160E+03  0.19617661400E+03  0.91237851812E+02 0.  0.
        -11    1    3    3    0    0 -0.28821733343E+02 -0.19085520964E+02 -0.20806637696E+03  0.21091838859E+03  0.00000000000E+00 0.  1.
         11    1    3    3    0    0  0.24333477477E+02 -0.67023504049E+02 -0.10834554473E+03  0.12970360551E+03  0.00000000000E+00 0. -1.
        -13    1    4    4    0    0 -0.58828740728E+02  0.51058453174E+01 -0.93086760338E+02  0.11023627054E+03  0.00000000000E+00 0.  1.
         13    1    4    4    0    0 -0.13468780431E+02  0.72224235181E+02 -0.44586931265E+02  0.85940343456E+02  0.00000000000E+00 0. -1.
         21    1    1    2  503  502  0.32285822202E+02  0.19151026948E+02 -0.62415967269E+02  0.72834669757E+02  0.00000000000E+00 0. -1.
          1    1    1    2  501    0  0.44499954822E+02 -0.10372082433E+02 -0.18378576133E+02  0.49250361764E+02  0.00000000000E+00 0. -1.
<scales pt_clust_5="13000.00000" pt_clust_6="13000.00000" pt_clust_7="13000.00000" pt_clust_8="13000.00000" pt_clust_9="37.53846" pt_clust_10="47.45294"></scales>
<clustering>
<clus scale="   37.538">  2  9  1 -1</clus>
<clus scale="   47.453">  1 10  2 -1</clus>
<clus scale="   91.238">  7  8 -1 -1</clus>
<clus scale="   92.043">  5  6 -1 -1</clus>
<clus scale="  123.435">  1  7  2 -1</clus>
<clus scale="   47.453">  1  5  2 -1</clus>
</clustering>
</event>
<event>
10    2  0.3544405E-006  0.1086861E+03  0.7546771E-02  0.1264103E+00
         -3   -1    0    0    0  501 -0.00000000000E+00  0.00000000000E+00  0.65563995736E+03  0.65563995736E+03  0.00000000000E+00 0.  1.
         21   -1    0    0  503  502  0.00000000000E+00 -0.00000000000E+00 -0.11568958906E+03  0.11568958906E+03  0.00000000000E+00 0.  1.
         23    2    1    2    0    0 -0.67347758247E+02 -0.15070066454E+02  0.32176959635E+03  0.34139779957E+03  0.90851290451E+02 0.  0.
         23    2    1    2    0    0  0.50141612749E+02  0.11015345964E+02  0.14739258275E+03  0.17923598654E+03  0.88121769426E+02 0.  0.
        -11    1    3    3    0    0 -0.34725145523E+02  0.37543067102E+02  0.16878720273E+03  0.17636450160E+03  0.00000000000E+00 0.  1.
         11    1    3    3    0    0 -0.32622612724E+02 -0.52613133555E+02  0.15298239362E+03  0.16503329798E+03  0.00000000000E+00 0. -1.
        -11    1    4    4    0    0  0.63647494452E+02  0.27522740376E+02  0.14073737863E+03  0.15689332214E+03  0.00000000000E+00 0.  1.
         11    1    4    4    0    0 -0.13505881703E+02 -0.16507394412E+02  0.66552041192E+01  0.22342664405E+02  0.00000000000E+00 0. -1.
         21    1    1    2  503  501  0.58024915608E+01  0.21923613879E+02  0.15867564502E+03  0.16028809712E+03  0.00000000000E+00 0.  1.
         -3    1    1    2    0  502  0.11403653937E+02 -0.17868893390E+02 -0.87887455820E+02  0.90407663196E+02  0.00000000000E+00 0.  1.
<scales pt_clust_5="13000.00000" pt_clust_6="13000.00000" pt_clust_7="13000.00000" pt_clust_8="13000.00000" pt_clust_9="22.24745" pt_clust_10="21.19766"></scales>
<clustering>
<clus scale="   21.198">  2 10  1 -1</clus>
<clus scale="   22.247">  1  9  2 -1</clus>
<clus scale="   88.122">  7  8 -1 -1</clus>
<clus scale="   90.851">  5  6 -1 -1</clus>
<clus scale="  106.415">  2  7  1 -1</clus>
<clus scale="   21.198">  2  5  1 -1</clus>
</clustering>
</event>
<event>
10    2  0.3544405E-006  0.2209981E+03  0.7546771E-02  0.1133163E+00
         21   -1    0    0  503  502  0.00000000000E+00  0.00000000000E+00  0.40397954486E+03  0.40397954486E+03  0.00000000000E+00 0.  1.
         -2   -1    0    0    0  501 -0.00000000000E+00 -0.00000000000E+00 -0.28509496036E+03  0.28509496036E+03  0.00000000000E+00 0.  1.
         23    2    1    2    0    0  0.19209948866E+03 -0.77762720590E+02 -0.62793736449E+02  0.23493317006E+03  0.91111397745E+02 0.  0.
         23    2    1    2    0    0 -0.96725527184E+02  0.16463004145E+03  0.95024492862E+02  0.23204017111E+03  0.91400812953E+02 0.  0.
        -11    1    4    4    0    0 -0.82650402155E+02  0.53055847818E+02  0.55670326714E+02  0.11289462893E+03  0.00000000000E+00 0. -1.
         11    1    4    4    0    0 -0.14075125028E+02  0.11157419363E+03  0.39354166148E+02  0.11914554218E+03  0.00000000000E+00 0.  1.
        -13    1    3    3    0    0  0.15367590080E+03 -0.97753461675E+02 -0.42117260349E+02  0.18693818598E+03  0.00000000000E+00 0.  1.
         13    1    3    3    0    0  0.38423587862E+02  0.19990741085E+02 -0.20676476101E+02  0.47994984085E+02  0.00000000000E+00 0. -1.
         21    1    1    2  503  501  0.34681745091E+02 -0.47405863360E+02 -0.37696245505E+01  0.58858724016E+02  0.00000000000E+00 0. -1.
         -2    1    1    2    0  502 -0.13005570657E+03 -0.39461457495E+02  0.90423452637E+02  0.16324244003E+03  0.00000000000E+00 0.  1.
<scales pt_clust_5="13000.00000" pt_clust_6="13000.00000" pt_clust_7="13000.00000" pt_clust_8="13000.00000" pt_clust_9="58.73789" pt_clust_10="133.36130"></scales>
<clustering>
<clus scale="   58.738">  2  9  1 -1</clus>
<clus scale="   91.111">  7  8 -1 -1</clus>
<clus scale="   91.401">  5  6 -1 -1</clus>
<clus scale="  133.361">  1 10  2 -1</clus>
<clus scale="  220.879">  2  7  1 -1</clus>
<clus scale="  133.361">  1  5  2 -1</clus>
</clustering>
</event>
<event>
10    2  0.3544405E-006  0.1655505E+03  0.7546771E-02  0.1201246E+00
         21   -1    0    0  501  502  0.00000000000E+00  0.00000000000E+00  0.17649030504E+03  0.17649030504E+03  0.00000000000E+00 0. -1.
          1   -1    0    0  503    0 -0.00000000000E+00 -0.00000000000E+00 -0.37536705487E+03  0.37536705487E+03  0.00000000000E+00 0. -1.
         23    2    1    2    0    0  0.15210039814E+01 -0.63766702186E+02 -0.73082857336E+02  0.12760989494E+03  0.82913662860E+02 0.  0.
         23    2    1    2    0    0 -0.76656191520E+02  0.17798307018E+03 -0.97414926869E+01  0.21377496878E+03  0.89725668710E+02 0.  0.
        -11    1    4    4    0    0 -0.37097907094E+02  0.14724017873E+03  0.23501054872E+02  0.15364968117E+03  0.00000000000E+00 0. -1.
         11    1    4    4    0    0 -0.39558284426E+02  0.30742891453E+02 -0.33242547559E+02  0.60125287607E+02  0.00000000000E+00 0.  1.
        -13    1    3    3    0    0 -0.34769044006E+02 -0.95329152735E+01 -0.41934509514E+02  0.55301591142E+02  0.00000000000E+00 0.  1.
         13    1    3    3    0    0  0.36290047987E+02 -0.54233786913E+02 -0.31148347822E+02  0.72308303796E+02  0.00000000000E+00 0. -1.
         21    1    1    2  503  502  0.21471584864E+02 -0.20665987173E+02 -0.96330458801E+02  0.10083486141E+03  0.00000000000E+00 0. -1.
          1    1    1    2  501    0  0.53663602674E+02 -0.93550380826E+02 -0.19721941003E+02  0.10963763479E+03  0.00000000000E+00 0. -1.
<scales pt_clust_5="13000.00000" pt_clust_6="13000.00000" pt_clust_7="13000.00000" pt_clust_8="13000.00000" pt_clust_9="29.80121" pt_clust_10="139.12683"></scales>
<clustering>
<clus scale="   29.801">  2  9  1 -1</clus>
<clus scale="   82.914">  7  8 -1 -1</clus>
<clus scale="   89.726">  5  6 -1 -1</clus>
<clus scale="  109.723">  2  7  1 -1</clus>
<clus scale="  139.127">  1 10  2 -1</clus>
<clus scale="  139.127">  1  5  2 -1</clus>
</clustering>
</event>
<event>
10    2  0.3544405E-006  0.1232505E+03  0.7546771E-02  0.1238258E+00
         -2   -1    0    0    0  501 -0.00000000000E+00  0.00000000000E+00  0.27332121967E+02  0.27332121967E+02  0.00000000000E+00 0.  1.
         21   -1    0    0  503  502  0.00000000000E+00 -0.00000000000E+00 -0.10297726065E+04  0.10297726065E+04  0.00000000000E+00 0. -1.
         23    2    1    2    0    0 -0.49628179306E+02 -0.25237077990E+02 -0.29334591689E+03  0.31266573303E+03  0.92780210030E+02 0.  0.
         23    2    1    2    0    0  0.85091055341E+02  0.73502248242E+02 -0.46314373422E+03  0.48527342281E+03  0.91351563451E+02 0.  0.
        -11    1    3    3    0    0 -0.35726013823E+02 -0.60318544421E+02 -0.17818937274E+03  0.19148401349E+03  0.00000000000E+00 0.  1.
         11    1    3    3    0    0 -0.13902165483E+02  0.35081466430E+02 -0.11515654414E+03  0.12118171954E+03  0.00000000000E+00 0. -1.
        -11    1    4    4    0    0  0.27728933742E+02  0.69988488701E+02 -0.35408284734E+03  0.36199716173E+03  0.00000000000E+00 0. -1.
         11    1    4    4    0    0  0.57362121599E+02  0.35137595415E+01 -0.10906088688E+03  0.12327626109E+03  0.00000000000E+00 0.  1.
         21    1    1    2  503  501  0.15278226828E+01 -0.40808448948E+02 -0.91974752613E+02  0.10063309031E+03  0.00000000000E+00 0.  1.
         -2    1    1    2    0  502 -0.36990698718E+02 -0.74567213035E+01 -0.15397608085E+03  0.15853248235E+03  0.00000000000E+00 0.  1.
<scales pt_clust_5="13000.00000" pt_clust_6="13000.00000" pt_clust_7="13000.00000" pt_clust_8="13000.00000" pt_clust_9="41.70859" pt_clust_10="37.73479"></scales>
<clustering>
<clus scale="   37.735">  2 10  1 -1</clus>
<clus scale="   41.709">  1  9  2 -1</clus>
<clus scale="   91.352">  7  8 -1 -1</clus>
<clus scale="   92.780">  5  6 -1 -1</clus>
<clus scale="  122.179">  2  7  1 -1</clus>
<clus scale="   37.735">  2  5  1 -1</clus>
</clustering>
</event>
<event>
10    2  0.3544405E-006  0.1235474E+03  0.7546771E-02  0.1238540E+00
         -2   -1    0    0    0  501 -0.00000000000E+00  0.00000000000E+00  0.75241626360E+02  0.75241626360E+02  0.00000000000E+00 0.  1.
         21   -1    0    0  503  502  0.00000000000E+00 -0.00000000000E+00 -0.54184598699E+03  0.54184598699E+03  0.00000000000E+00 0.  1.
         23    2    1    2    0    0  0.47369429551E+02  0.90272160840E+02 -0.95687873193E+02  0.16583386034E+03  0.89172721614E+02 0.  0.
         23    2    1    2    0    0 -0.27811431094E+00 -0.59263217072E+02 -0.21525883106E+03  0.24190672950E+03  0.93114419837E+02 0.  0.
        -11    1    4    4    0    0 -0.25802348263E+02 -0.59375758232E+02 -0.73835044472E+02  0.98198042922E+02  0.00000000000E+00 0. -1.
         11    1    4    4    0    0  0.25524233952E+02  0.11254116025E+00 -0.14142378659E+03  0.14370868658E+03  0.00000000000E+00 0.  1.
        -11    1    3    3    0    0 -0.21334834842E+02  0.52835785905E+02 -0.45014397088E+02  0.72616054665E+02  0.00000000000E+00 0. -1.
         11    1    3    3    0    0  0.68704264394E+02  0.37436374934E+02 -0.50673476105E+02  0.93217805674E+02  0.00000000000E+00 0.  1.
         21    1    1    2  503  501 -0.34068798489E+02 -0.73658096041E+00  0.13762959077E+02  0.36751117324E+02  0.00000000000E+00 0.  1.
         -2    1    1    2    0  502 -0.13022516751E+02 -0.30272362807E+02 -0.16942061545E+03  0.17259590619E+03  0.00000000000E+00 0.  1.
<scales pt_clust_5="13000.00000" pt_clust_6="13000.00000" pt_clust_7="13000.00000" pt_clust_8="13000.00000" pt_clust_9="34.51309" pt_clust_10="32.95454"></scales>
<clustering>
<clus scale="   32.955">  2 10  1 -1</clus>
<clus scale="   34.513">  1  9  2 -1</clus>
<clus scale="   89.173">  7  8 -1 -1</clus>
<clus scale="   93.114">  5  6 -1 -1</clus>
<clus scale="  120.604">  1  7  2 -1</clus>
<clus scale="   32.955">  2  5  1 -1</clus>
</clustering>
</event>
<event>
10    2  0.3544405E-006  0.1017131E+03  0.7546771E-02  0.1277915E+00
          1   -1    0    0  503    0 -0.00000000000E+00  0.00000000000E+00  0.94850733435E+02  0.94850733435E+02  0.00000000000E+00 0. -1.
         21   -1    0    0  501  502  0.00000000000E+00 -0.00000000000E+00 -0.41212117890E+03  0.41212117890E+03  0.00000000000E+00 0. -1.
         23    2    1    2    0    0  0.44712620045E+01  0.23644576510E+02 -0.25615208362E+02  0.97779123273E+02  0.91244505951E+02 0.  0.
         23    2    1    2    0    0  0.17295607919E+02 -0.71596379932E+02 -0.77340398399E+02  0.14208736778E+03  0.93712876308E+02 0.  0.
        -11    1    3    3    0    0  0.47509918072E+02  0.17541248375E+02 -0.10230666569E+02  0.51667729273E+02  0.00000000000E+00 0. -1.
         11    1    3    3    0    0 -0.43038656068E+02  0.61033281353E+01 -0.15384541793E+02  0.46111394000E+02  0.00000000000E+00 0.  1.
        -13    1    4    4    0    0 -0.17455023137E+02 -0.44375705591E+02 -0.84829903095E+02  0.97313891806E+02  0.00000000000E+00 0.  1.
         13    1    4    4    0    0  0.34750631056E+02 -0.27220674341E+02  0.74895046954E+01  0.44773475976E+02  0.00000000000E+00 0. -1.
         21    1    1    2  503  502  0.37019610291E+02 -0.13575378868E+02 -0.32881871560E+01  0.39567090268E+02  0.00000000000E+00 0. -1.
          1    1    1    2  501    0 -0.58786480215E+02  0.61527182290E+02 -0.21102665155E+03  0.22753833101E+03  0.00000000000E+00 0. -1.
<scales pt_clust_5="13000.00000" pt_clust_6="13000.00000" pt_clust_7="13000.00000" pt_clust_8="13000.00000" pt_clust_9="39.43022" pt_clust_10="81.30954"></scales>
<clustering>
<clus scale="   39.430">  1  9  2 -1</clus>
<clus scale="   81.310">  2 10  1 -1</clus>
<clus scale="   91.245">  5  6 -1 -1</clus>
<clus scale="   93.713">  7  8 -1 -1</clus>
<clus scale="   99.443">  1  5  2 -1</clus>
<clus scale="   81.310">  2  5  1 -1</clus>
</clustering>
</event>
<event>
10    2  0.3544405E-006  0.1010945E+03  0.7546771E-02  0.1278194E+00
          4   -1    0    0  503    0 -0.00000000000E+00  0.00000000000E+00  0.26727557455E+03  0.26727557455E+03  0.00000000000E+00 0. -1.
         21   -1    0    0  501  502  0.00000000000E+00 -0.00000000000E+00 -0.12731919456E+03  0.12731919456E+03  0.00000000000E+00 0.  1.
         23    2    1    2    0    0  0.16712318579E+02  0.11021864366E+02  0.89886748425E+02  0.13010182044E+03  0.91902519296E+02 0.  0.
         23    2    1    2    0    0 -0.18620962670E+02 -0.75538482731E+02 -0.50684816810E+02  0.13091596083E+03  0.92288869978E+02 0.  0.
        -11    1    4    4    0    0  0.54389271790E-01 -0.94177058481E+02 -0.42206701085E+02  0.10320235908E+03  0.00000000000E+00 0.  1.
         11    1    4    4    0    0 -0.18675351942E+02  0.18638575750E+02 -0.84781157251E+01  0.27713601758E+02  0.00000000000E+00 0. -1.
        -11    1    3    3    0    0  0.39700497061E+02 -0.17909178080E+02  0.14086790025E+02  0.45774510152E+02  0.00000000000E+00 0.  1.
         11    1    3    3    0    0 -0.22988178482E+02  0.28931042446E+02  0.75799958400E+02  0.84327310288E+02  0.00000000000E+00 0. -1.
         21    1    1    2  503  502 -0.11457599350E+01  0.28377195258E+02  0.91976768627E+02  0.96261643159E+02  0.00000000000E+00 0. -1.
          4    1    1    2  501    0  0.30544040256E+01  0.36139423107E+02  0.87776797431E+01  0.37315344674E+02  0.00000000000E+00 0. -1.
<scales pt_clust_5="13000.00000" pt_clust_6="13000.00000" pt_clust_7="13000.00000" pt_clust_8="13000.00000" pt_clust_9="28.40032" pt_clust_10="40.02167"></scales>
<clustering>
<clus scale="   28.400">  1  9  2 -1</clus>
<clus scale="   40.022">  2 10  1 -1</clus>
<clus scale="   91.903">  7  8 -1 -1</clus>
<clus scale="   92.289">  5  6 -1 -1</clus>
<clus scale="  100.742">  1  7  2 -1</clus>
<clus scale="   40.022">  2  5  1 -1</clus>
</clustering>
</event>
<event>
10    2  0.3544405E-006  0.1176439E+03  0.7546771E-02  0.1247212E+00
         21   -1    0    0  501  502  0.00000000000E+00  0.00000000000E+00  0.18560320321E+03  0.18560320321E+03  0.00000000000E+00 0. -1.
          1   -1    0    0  503    0 -0.00000000000E+00 -0.00000000000E+00 -0.65080751824E+03  0.65080751824E+03  0.00000000000E+00 0. -1.
         23    2    1    2    0    0 -0.88685919434E+01  0.28579056670E+02 -0.35644256413E+02  0.10241793428E+03  0.91233249661E+02 0.  0.
         23    2    1    2    0    0  0.26670807411E+02 -0.84537704605E+02  0.94291423143E+02  0.15865178150E+03  0.91769057026E+02 0.  0.
        -11    1    4    4    0    0  0.71710964452E+01 -0.69361809258E+02  0.10936754841E+03  0.12970638324E+03  0.00000000000E+00 0. -1.
         11    1    4    4    0    0  0.19499710965E+02 -0.15175895347E+02 -0.15076125270E+02  0.28945398260E+02  0.00000000000E+00 0.  1.
        -11    1    3    3    0    0 -0.19130893242E+02 -0.18410142414E+02 -0.46098874917E+02  0.53198032751E+02  0.00000000000E+00 0.  1.
         11    1    3    3    0    0  0.10262301299E+02  0.46989199084E+02  0.10454618504E+02  0.49219901529E+02  0.00000000000E+00 0. -1.
         21    1    1    2  503  502 -0.53477786388E+02  0.66675227414E+02 -0.53063789704E+03  0.53747747614E+03  0.00000000000E+00 0. -1.
          1    1    1    2  501    0  0.35675570921E+02 -0.10716579479E+02  0.67864152821E+01  0.37863529532E+02  0.00000000000E+00 0. -1.
<scales pt_clust_5="13000.00000" pt_clust_6="13000.00000" pt_clust_7="13000.00000" pt_clust_8="13000.00000" pt_clust_9="84.83053" pt_clust_10="37.25039"></scales>
<clustering>
<clus scale="   37.250">  1 10  2 -1</clus>
<clus scale="   84.831">  2  9  1 -1</clus>
<clus scale="   91.233">  7  8 -1 -1</clus>
<clus scale="   91.769">  5  6 -1 -1</clus>
<clus scale="  117.226">  2  7  1 -1</clus>
<clus scale="   37.250">  1  5  2 -1</clus>
</clustering>
</event>
<event>
10    2  0.3544405E-006  0.1555902E+03  0.7546771E-02  0.1200039E+00
          2   -1    0    0  503    0 -0.00000000000E+00  0.00000000000E+00  0.20400021130E+04  0.20400021130E+04  0.00000000000E+00 0. -1.
         21   -1    0    0  501  502  0.00000000000E+00 -0.00000000000E+00 -0.36030249340E+02  0.36030249340E+02  0.00000000000E+00 0. -1.
         23    2    1    2    0    0  0.10194699521E+03  0.11892956484E+03  0.91631748966E+03  0.93388675223E+03  0.89270896145E+02 0.  0.
         23    2    1    2    0    0 -0.50505884063E+02 -0.56732329538E+02  0.21223382515E+03  0.25412940234E+03  0.11734204300E+03 0.  0.
        -11    1    4    4    0    0  0.20460349748E+02 -0.62527971860E+02  0.12732050106E+03  0.14331393221E+03  0.00000000000E+00 0.  1.
         11    1    4    4    0    0 -0.70966233811E+02  0.57956423220E+01  0.84913324092E+02  0.11081547013E+03  0.00000000000E+00 0. -1.
        -13    1    3    3    0    0 -0.14945356837E+02  0.18513590405E+02  0.78939252526E+02  0.82447087941E+02  0.00000000000E+00 0.  1.
         13    1    3    3    0    0  0.11689235205E+03  0.10041597444E+03  0.83737823714E+03  0.85143966429E+03  0.00000000000E+00 0. -1.
         21    1    1    2  503  502 -0.15344795392E+02 -0.97400868285E+02  0.57367491205E+03  0.58208701807E+03  0.00000000000E+00 0. -1.
          2    1    1    2  501    0 -0.36096315753E+02  0.35203632981E+02  0.30174563678E+03  0.30592918968E+03  0.00000000000E+00 0. -1.
<scales pt_clust_5="13000.00000" pt_clust_6="13000.00000" pt_clust_7="13000.00000" pt_clust_8="13000.00000" pt_clust_9="95.12538" pt_clust_10="50.42065"></scales>
<clustering>
<clus scale="   50.421">  2 10  1 -1</clus>
<clus scale="   89.271">  7  8 -1 -1</clus>
<clus scale="   95.125">  1  9  2 -1</clus>
<clus scale="  117.342">  5  6 -1 -1</clus>
<clus scale="  135.678">  1  7  2 -1</clus>
<clus scale="   50.421">  2  5  1 -1</clus>
</clustering>
</event>
<event>
10    2  0.3544405E-006  0.1539325E+03  0.7546771E-02  0.1196089E+00
          2   -1    0    0  503    0 -0.00000000000E+00  0.00000000000E+00  0.48912150680E+03  0.48912150680E+03  0.00000000000E+00 0. -1.
         21   -1    0    0  501  502  0.00000000000E+00 -0.00000000000E+00 -0.22510811796E+03  0.22510811796E+03  0.00000000000E+00 0. -1.
         23    2    1    2    0    0  0.54036819269E+01  0.88457944237E+02  0.13939440807E+03  0.19007613454E+03  0.94043225412E+02 0.  0.
         23    2    1    2    0    0 -0.27496093348E+02 -0.16350993337E+03  0.23751335862E+03  0.30392577580E+03  0.92014934741E+02 0.  0.
        -13    1    4    4    0    0  0.25605332147E+02 -0.83465107301E+02  0.74757763188E+02  0.11493815871E+03  0.00000000000E+00 0.  1.
         13    1    4    4    0    0 -0.53101425495E+02 -0.80044826066E+02  0.16275559543E+03  0.18898761709E+03  0.00000000000E+00 0. -1.
        -13    1    3    3    0    0  0.55386089071E+01  0.63407735973E+02  0.18030312609E+02  0.66153679736E+02  0.00000000000E+00 0.  1.
         13    1    3    3    0    0 -0.13492698021E+00  0.25050208264E+02  0.12136409546E+03  0.12392245481E+03  0.00000000000E+00 0. -1.
         21    1    1    2  503  502  0.96456294796E+01  0.50538301486E+02  0.39819043972E+02  0.65059314075E+02  0.00000000000E+00 0.  1.
          2    1    1    2  501    0  0.12446781941E+02  0.24513687644E+02 -0.15271342181E+03  0.15516840034E+03  0.00000000000E+00 0. -1.
<scales pt_clust_5="13000.00000" pt_clust_6="13000.00000" pt_clust_7="13000.00000" pt_clust_8="13000.00000" pt_clust_9="56.15059" pt_clust_10="27.49260"></scales>
<clustering>
<clus scale="   27.493">  2 10  1 -1</clus>
<clus scale="   56.151">  2  9  1 -1</clus>
<clus scale="   92.015">  5  6 -1 -1</clus>
<clus scale="   94.043">  7  8 -1 -1</clus>
<clus scale="  152.702">  2  5  1 -1</clus>
<clus scale="   27.493">  2  5  1 -1</clus>
</clustering>
</event>
<event>
10    2  0.3544405E-006  0.9340083E+02  0.7546771E-02  0.1294858E+00
          2   -1    0    0  503    0 -0.00000000000E+00  0.00000000000E+00  0.74932626789E+03  0.74932626789E+03  0.00000000000E+00 0. -1.
         21   -1    0    0  501  502  0.00000000000E+00 -0.00000000000E+00 -0.64544018984E+02  0.64544018984E+02  0.00000000000E+00 0.  1.
         23    2    1    2    0    0 -0.60520622644E-01  0.45954086562E+02  0.49882699967E+03  0.50908219189E+03  0.90689143588E+02 0.  0.
         23    2    1    2    0    0  0.13938996619E+02 -0.10424951244E+02  0.55331949191E+02  0.10759371511E+03  0.90619025014E+02 0.  0.
        -13    1    4    4    0    0  0.16652888823E+02  0.37516133979E+02  0.11619041921E+02  0.42658892978E+02  0.00000000000E+00 0.  1.
         13    1    4    4    0    0 -0.27138922045E+01 -0.47941085223E+02  0.43712907270E+02  0.64934822132E+02  0.00000000000E+00 0. -1.
        -13    1    3    3    0    0 -0.27374558184E+02 -0.17158589933E+02  0.18605100729E+03  0.18883527467E+03  0.00000000000E+00 0. -1.
         13    1    3    3    0    0  0.27314037562E+02  0.63112676495E+02  0.31277599238E+03  0.32024691722E+03  0.00000000000E+00 0.  1.
         21    1    1    2  503  502  0.84212087685E+01 -0.25920866453E+02  0.15815423942E+03  0.16048542464E+03  0.00000000000E+00 0.  1.
          2    1    1    2  501    0 -0.22299684764E+02 -0.96082688652E+01 -0.27530939379E+02  0.36708955233E+02  0.00000000000E+00 0. -1.
<scales pt_clust_5="13000.00000" pt_clust_6="13000.00000" pt_clust_7="13000.00000" pt_clust_8="13000.00000" pt_clust_9="27.34913" pt_clust_10="24.28157"></scales>
<clustering>
<clus scale="   24.282">  2 10  1 -1</clus>
<clus scale="   27.349">  1  9  2 -1</clus>
<clus scale="   90.619">  5  6 -1 -1</clus>
<clus scale="   90.689">  7  8 -1 -1</clus>
<clus scale="   93.333">  2  5  1 -1</clus>
<clus scale="   24.282">  2  5  1 -1</clus>
</clustering>
</event>
<event>
10    2  0.3544405E-006  0.9894360E+02  0.7546771E-02  0.1282851E+00
         21   -1    0    0  501  502  0.00000000000E+00  0.00000000000E+00  0.51481122828E+02  0.51481122828E+02  0.00000000000E+00 0. -1.
          2   -1    0    0  503    0 -0.00000000000E+00 -0.00000000000E+00 -0.43464703524E+03  0.43464703524E+03  0.00000000000E+00 0. -1.
         23    2    1    2    0    0 -0.24697879387E+01  0.45150670236E+02 -0.19522103055E+03  0.21954706940E+03  0.89693823840E+02 0.  0.
         23    2    1    2    0    0  0.36818075101E+02 -0.38856214407E+02 -0.13452569386E+03  0.16997163677E+03  0.89038300437E+02 0.  0.
        -11    1    3    3    0    0 -0.31135196490E+02 -0.43740192118E+01 -0.25634785246E+02  0.40566916560E+02  0.00000000000E+00 0. -1.
         11    1    3    3    0    0  0.28665408551E+02  0.49524689448E+02 -0.16958624531E+03  0.17898015284E+03  0.00000000000E+00 0.  1.
        -13    1    4    4    0    0 -0.13998026716E+02 -0.22784862985E+02 -0.16344411593E+01  0.26791157704E+02  0.00000000000E+00 0.  1.
         13    1    4    4    0    0  0.50816101817E+02 -0.16071351422E+02 -0.13289125271E+03  0.14318047907E+03  0.00000000000E+00 0. -1.
         21    1    1    2  503  502  0.50968951780E+01 -0.20263137805E+02 -0.50512181178E+02  0.54663091218E+02  0.00000000000E+00 0. -1.
          2    1    1    2  501    0 -0.39445182340E+02  0.13968681976E+02 -0.29070068176E+01  0.41946360684E+02  0.00000000000E+00 0. -1.
<scales pt_clust_5="13000.00000" pt_clust_6="13000.00000" pt_clust_7="13000.00000" pt_clust_8="13000.00000" pt_clust_9="20.89433" pt_clust_10="41.17910"></scales>
<clustering>
<clus scale="   20.894">  2  9  1 -1</clus>
<clus scale="   41.179">  1 10  2 -1</clus>
<clus scale="   89.038">  7  8 -1 -1</clus>
<clus scale="   89.694">  5  6 -1 -1</clus>
<clus scale="   98.350">  1  7  2 -1</clus>
<clus scale="   41.179">  1  5  2 -1</clus>
</clustering>
</event>
<event>
10    2  0.3544405E-006  0.1117464E+03  0.7546771E-02  0.1264329E+00
          1   -1    0    0  503    0 -0.00000000000E+00  0.00000000000E+00  0.54740175877E+03  0.54740175877E+03  0.00000000000E+00 0. -1.
         21   -1    0    0  501  502  0.00000000000E+00 -0.00000000000E+00 -0.82837250193E+02  0.82837250193E+02  0.00000000000E+00 0.  1.
         23    2    1    2    0    0  0.29476095676E+02  0.21295537175E+02  0.28512634906E+03  0.30247499094E+03  0.94189941601E+02 0.  0.
         23    2    1    2    0    0 -0.10837488013E+02 -0.26168867341E+02  0.99360002350E+02  0.15010512518E+03  0.10888929137E+03 0.  0.
        -11    1    4    4    0    0  0.23282816789E+02 -0.54271954645E+02  0.85244489080E+02  0.10370225425E+03  0.00000000000E+00 0. -1.
         11    1    4    4    0    0 -0.34120304802E+02  0.28103087304E+02  0.14115513270E+02  0.46402870932E+02  0.00000000000E+00 0.  1.
        -11    1    3    3    0    0  0.43386112953E+02  0.47812057109E+02  0.23831776988E+03  0.24690829683E+03  0.00000000000E+00 0. -1.
         11    1    3    3    0    0 -0.13910017276E+02 -0.26516519934E+02  0.46808579172E+02  0.55566694108E+02  0.00000000000E+00 0.  1.
         21    1    1    2  503  502 -0.82891760398E+01 -0.19924128667E+02  0.12416631702E+03  0.12602759866E+03  0.00000000000E+00 0.  1.
          1    1    1    2  501    0 -0.10349431623E+02  0.24797458833E+02 -0.44088159848E+02  0.51631294175E+02  0.00000000000E+00 0. -1.
<scales pt_clust_5="13000.00000" pt_clust_6="13000.00000" pt_clust_7="13000.00000" pt_clust_8="13000.00000" pt_clust_9="21.57965" pt_clust_10="26.73517"></scales>
<clustering>
<clus scale="   21.580">  1  9  2 -1</clus>
<clus scale="   26.735">  2 10  1 -1</clus>
<clus scale="   94.190">  7  8 -1 -1</clus>
<clus scale="   97.479">  1  7  2 -1</clus>
<clus scale="  108.889">  5  6 -1 -1</clus>
<clus scale="   26.735">  2  5  1 -1</clus>
</clustering>
</event>
<event>
10    2  0.3544405E-006  0.9314515E+02  0.7546771E-02  0.1297182E+00
          1   -1    0    0  503    0 -0.00000000000E+00  0.00000000000E+00  0.89090912100E+02  0.89090912100E+02  0.00000000000E+00 0. -1.
         21   -1    0    0  501  502  0.00000000000E+00 -0.00000000000E+00 -0.56875297640E+03  0.56875297640E+03  0.00000000000E+00 0. -1.
         23    2    1    2    0    0 -0.63739406479E+01 -0.29838146544E+02  0.34915637161E+02  0.10339269138E+03  0.92412146410E+02 0.  0.
         23    2    1    2    0    0  0.38295591947E+02 -0.15160348271E+02 -0.17817998009E+03  0.20354955090E+03  0.89375197031E+02 0.  0.
        -11    1    4    4    0    0 -0.20044277303E+02  0.20870493838E+02 -0.66127128514E+02  0.72181352794E+02  0.00000000000E+00 0. -1.
         11    1    4    4    0    0  0.58339869250E+02 -0.36030842109E+02 -0.11205285158E+03  0.13136819811E+03  0.00000000000E+00 0.  1.
        -13    1    3    3    0    0  0.32542038542E+02 -0.42304426187E+02  0.32430900696E+02  0.62453279077E+02  0.00000000000E+00 0. -1.
         13    1    3    3    0    0 -0.38915979190E+02  0.12466279643E+02  0.24847364647E+01  0.40939412304E+02  0.00000000000E+00 0.  1.
         21    1    1    2  503  502  0.73259179419E+01  0.19784381774E+02 -0.14401744074E+02  0.25544100459E+02  0.00000000000E+00 0.  1.
          1    1    1    2  501    0 -0.39247569241E+02  0.25214113041E+02 -0.32199597730E+03  0.32535754576E+03  0.00000000000E+00 0. -1.
<scales pt_clust_5="13000.00000" pt_clust_6="13000.00000" pt_clust_7="13000.00000" pt_clust_8="13000.00000" pt_clust_9="21.09718" pt_clust_10="46.74194"></scales>
<clustering>
<clus scale="   21.097">  1  9  2 -1</clus>
<clus scale="   46.742">  2 10  1 -1</clus>
<clus scale="   89.375">  5  6 -1 -1</clus>
<clus scale="   90.133">  2  5  1 -1</clus>
<clus scale="   92.412">  7  8 -1 -1</clus>
<clus scale="   46.742">  2  5  1 -1</clus>
</clustering>
</event>
<event>
10    2  0.3544405E-006  0.9475981E+02  0.7546771E-02  0.1292983E+00
         21   -1    0    0  501  502  0.00000000000E+00  0.00000000000E+00  0.56445359348E+03  0.56445359348E+03  0.00000000000E+00 0. -1.
         -1   -1    0    0    0  501 -0.00000000000E+00 -0.00000000000E+00 -0.46285402419E+02  0.46285402419E+02  0.00000000000E+00 0.  1.
         23    2    1    2    0    0 -0.23490593563E+01  0.82508839700E+01  0.54976072229E+02  0.10731251526E+03  0.91760624713E+02 0.  0.
         23    2    1    2    0    0  0.64196194582E+02 -0.42069244143E+02  0.24530894036E+03  0.27216440098E+03  0.89476322203E+02 0.  0.
        -11    1    3    3    0    0  0.10236288312E+02  0.33647131047E+02  0.67664255880E+02  0.76258524440E+02  0.00000000000E+00 0. -1.
         11    1    3    3    0    0 -0.12585347668E+02 -0.25396247077E+02 -0.12688183650E+02  0.31053990820E+02  0.00000000000E+00 0.  1.
        -13    1    4    4    0    0  0.54053701339E+02  0.15570277468E+02  0.15139144972E+03  0.16150420185E+03  0.00000000000E+00 0. -1.
         13    1    4    4    0    0  0.10142493243E+02 -0.57639521610E+02  0.93917490648E+02  0.11066019912E+03  0.00000000000E+00 0.  1.
         21    1    1    2  503  502 -0.33649519368E+02  0.31107213450E+02  0.99633748750E+02  0.10966691740E+03  0.00000000000E+00 0. -1.
         -1    1    1    2    0  503 -0.28197615858E+02  0.27111467223E+01  0.11824942972E+03  0.12159516226E+03  0.00000000000E+00 0.  1.
<scales pt_clust_5="13000.00000" pt_clust_6="13000.00000" pt_clust_7="13000.00000" pt_clust_8="13000.00000" pt_clust_9="25.35927" pt_clust_10="77.51819"></scales>
<clustering>
<clus scale="   25.359">  9 10 -1 -1</clus>
<clus scale="   77.518">  1  9  2 -1</clus>
<clus scale="   89.476">  7  8 -1 -1</clus>
<clus scale="   91.761">  5  6 -1 -1</clus>
<clus scale="   92.550">  1  7  2 -1</clus>
<clus scale="   77.518">  1  5  2 -1</clus>
</clustering>
</event>
<event>
10    2  0.3544405E-006  0.1941974E+03  0.7546771E-02  0.1179757E+00
          1   -1    0    0  503    0 -0.00000000000E+00  0.00000000000E+00  0.61147813712E+03  0.61147813712E+03  0.00000000000E+00 0. -1.
         21   -1    0    0  501  502  0.00000000000E+00 -0.00000000000E+00 -0.17246182397E+03  0.17246182397E+03  0.00000000000E+00 0. -1.
         23    2    1    2    0    0  0.56013169663E+02  0.44818225899E+01  0.26891361544E+03  0.29063315458E+03  0.94844799874E+02 0.  0.
         23    2    1    2    0    0 -0.17049919371E+03  0.91863939580E+02 -0.34874372632E+02  0.21708244951E+03  0.91649383903E+02 0.  0.
        -13    1    3    3    0    0  0.21236284263E+01  0.37454499926E+02  0.16340590144E+03  0.16765690558E+03  0.00000000000E+00 0.  1.
         13    1    3    3    0    0  0.53889541237E+02 -0.32972677336E+02  0.10550771400E+03  0.12297624900E+03  0.00000000000E+00 0. -1.
        -13    1    4    4    0    0 -0.22588939287E+02  0.19419686595E+02  0.27911676528E+02  0.40822127482E+02  0.00000000000E+00 0.  1.
         13    1    4    4    0    0 -0.14791025442E+03  0.72444252985E+02 -0.62786049160E+02  0.17626032203E+03  0.00000000000E+00 0. -1.
         21    1    1    2  503  502 -0.83052917677E+01 -0.39436983976E+02  0.90108565560E+02  0.98710724664E+02  0.00000000000E+00 0.  1.
          1    1    1    2  501    0  0.12279131581E+03 -0.56908778194E+02  0.11486850478E+03  0.17751363234E+03  0.00000000000E+00 0. -1.
<scales pt_clust_5="13000.00000" pt_clust_6="13000.00000" pt_clust_7="13000.00000" pt_clust_8="13000.00000" pt_clust_9="40.30203" pt_clust_10="171.21058"></scales>
<clustering>
<clus scale="   40.302">  1  9  2 -1</clus>
<clus scale="   91.649">  7  8 -1 -1</clus>
<clus scale="   94.845">  5  6 -1 -1</clus>
<clus scale="  109.243">  1  5  2 -1</clus>
<clus scale="  171.211">  2 10  1 -1</clus>
<clus scale="  171.211">  2  5  1 -1</clus>
</clustering>
</event>
<event>
10    2  0.3544405E-006  0.1034732E+03  0.7546771E-02  0.1276350E+00
         21   -1    0    0  501  502  0.00000000000E+00  0.00000000000E+00  0.11953140279E+03  0.11953140279E+03  0.00000000000E+00 0.  1.
          1   -1    0    0  503    0 -0.00000000000E+00 -0.00000000000E+00 -0.32630710168E+03  0.32630710168E+03  0.00000000000E+00 0. -1.
         23    2    1    2    0    0  0.71256690517E+01 -0.30582360501E+02 -0.13804930984E+02  0.96586255717E+02  0.90289937096E+02 0.  0.
         23    2    1    2    0    0  0.56700127855E+02  0.25934686845E+02 -0.13975266481E+02  0.11605956962E+03  0.96886547811E+02 0.  0.
        -11    1    4    4    0    0  0.78049245399E+02  0.89307603633E+00  0.47485451127E+01  0.78198663498E+02  0.00000000000E+00 0.  1.
         11    1    4    4    0    0 -0.21349117544E+02  0.25041610809E+02 -0.18723811593E+02  0.37860906122E+02  0.00000000000E+00 0. -1.
        -11    1    3    3    0    0 -0.36127966414E+01 -0.57487254439E+02  0.10768810738E+02  0.58598668989E+02  0.00000000000E+00 0.  1.
         11    1    3    3    0    0  0.10738465693E+02  0.26904893938E+02 -0.24573741722E+02  0.37987586729E+02  0.00000000000E+00 0. -1.
         21    1    1    2  503  502 -0.38379032481E+02  0.13408623408E+02 -0.19677938844E+03  0.20093498707E+03  0.00000000000E+00 0.  1.
          1    1    1    2  501    0 -0.25446764426E+02 -0.87609497527E+01  0.17783887010E+02  0.32257692068E+02  0.00000000000E+00 0. -1.
<scales pt_clust_5="13000.00000" pt_clust_6="13000.00000" pt_clust_7="13000.00000" pt_clust_8="13000.00000" pt_clust_9="41.12016" pt_clust_10="26.91267"></scales>
<clustering>
<clus scale="   26.913">  1 10  2 -1</clus>
<clus scale="   41.120">  2  9  1 -1</clus>
<clus scale="   90.290">  7  8 -1 -1</clus>
<clus scale="   96.887">  5  6 -1 -1</clus>
<clus scale="   97.324">  2  7  1 -1</clus>
<clus scale="   26.913">  1  5  2 -1</clus>
</clustering>
</event>
<event>
10    2  0.3544405E-006  0.2541275E+03  0.7546771E-02  0.1110737E+00
         -1   -1    0    0    0  501 -0.00000000000E+00  0.00000000000E+00  0.22651133517E+03  0.22651133517E+03  0.00000000000E+00 0.  1.
         21   -1    0    0  503  502  0.00000000000E+00 -0.00000000000E+00 -0.59773724470E+03  0.59773724470E+03  0.00000000000E+00 0. -1.
         23    2    1    2    0    0  0.11192323044E+03  0.14995527945E+03 -0.17484126168E+02  0.20896471946E+03  0.91362814991E+02 0.  0.
         23    2    1    2    0    0 -0.17973783756E+03 -0.22251546212E+03 -0.35891450855E+03  0.46800470778E+03  0.91596729861E+02 0.  0.
        -11    1    3    3    0    0  0.30901181068E+02  0.28864952163E+02 -0.43833086304E+02  0.60904908749E+02  0.00000000000E+00 0. -1.
         11    1    3    3    0    0  0.81022049370E+02  0.12109032729E+03  0.26348960136E+02  0.14805981071E+03  0.00000000000E+00 0.  1.
        -13    1    4    4    0    0 -0.14647803601E+03 -0.19812870681E+03 -0.34604050210E+03  0.42479975116E+03  0.00000000000E+00 0. -1.
         13    1    4    4    0    0 -0.33259801546E+02 -0.24386755319E+02 -0.12874006443E+02  0.43204956611E+02  0.00000000000E+00 0.  1.
         21    1    1    2  503  501  0.40424584114E+02  0.46002077821E+02  0.56502413006E+02  0.83323831165E+02  0.00000000000E+00 0.  1.
         -1    1    1    2    0  502  0.27390023007E+02  0.26558104854E+02 -0.51329687818E+02  0.63955321477E+02  0.00000000000E+00 0.  1.
<scales pt_clust_5="13000.00000" pt_clust_6="13000.00000" pt_clust_7="13000.00000" pt_clust_8="13000.00000" pt_clust_9="62.18435" pt_clust_10="38.15162"></scales>
<clustering>
<clus scale="   38.152">  2 10  1 -1</clus>
<clus scale="   62.184">  1  9  2 -1</clus>
<clus scale="   91.363">  5  6 -1 -1</clus>
<clus scale="   91.597">  7  8 -1 -1</clus>
<clus scale="  254.043">  1  5  2 -1</clus>
<clus scale="   38.152">  2  5  1 -1</clus>
</clustering>
</event>
<event>
10    2  0.3544405E-006  0.1999153E+03  0.7546771E-02  0.1149857E+00
         -2   -1    0    0    0  501 -0.00000000000E+00  0.00000000000E+00  0.28493978457E+03  0.28493978457E+03  0.00000000000E+00 0.  1.
         21   -1    0    0  501  502  0.00000000000E+00 -0.00000000000E+00 -0.35101047309E+03  0.35101047309E+03  0.00000000000E+00 0. -1.
         23    2    1    2    0    0 -0.32354758129E+02 -0.18989600393E+03  0.12268051766E+03  0.24560501876E+03  0.90354818032E+02 0.  0.
         23    2    1    2    0    0  0.80325119466E+02  0.10445432091E+03 -0.22608208688E+03  0.27699637536E+03  0.90835301398E+02 0.  0.
        -11    1    3    3    0    0 -0.99534275407E+00 -0.17105261951E+03  0.78401025446E+02  0.18816670837E+03  0.00000000000E+00 0.  1.
         11    1    3    3    0    0 -0.31359415375E+02 -0.18843384424E+02  0.44279492214E+02  0.57438310386E+02  0.00000000000E+00 0. -1.
        -13    1    4    4    0    0  0.60907643933E+02  0.12151538598E+02 -0.62139864028E+02  0.87856494815E+02  0.00000000000E+00 0.  1.
         13    1    4    4    0    0  0.19417475532E+02  0.92302782311E+02 -0.16394222285E+03  0.18913988054E+03  0.00000000000E+00 0. -1.
         21    1    1    2  503  502 -0.81231101898E+01  0.36358608231E+02  0.33351071853E+02  0.50002273003E+02  0.00000000000E+00 0. -1.
         -2    1    1    2    0  503 -0.39847251147E+02  0.49083074792E+02  0.39798088378E+01  0.63346590543E+02  0.00000000000E+00 0.  1.
<scales pt_clust_5="13000.00000" pt_clust_6="13000.00000" pt_clust_7="13000.00000" pt_clust_8="13000.00000" pt_clust_9="33.04379" pt_clust_10="107.02515"></scales>
<clustering>
<clus scale="   33.044">  9 10 -1 -1</clus>
<clus scale="   90.355">  5  6 -1 -1</clus>
<clus scale="   90.835">  7  8 -1 -1</clus>
<clus scale="  107.025">  2  9  1 -1</clus>
<clus scale="  199.697">  1  5  2 -1</clus>
<clus scale="  107.025">  2  5  1 -1</clus>
</clustering>
</event>
<event>
10    2  0.3544405E-006  0.1188311E+03  0.7546771E-02  0.1245217E+00
         21   -1    0    0  501  502  0.00000000000E+00  0.00000000000E+00  0.49271055949E+03  0.49271055949E+03  0.00000000000E+00 0.  1.
          2   -1    0    0  503    0 -0.00000000000E+00 -0.00000000000E+00 -0.18643767101E+03  0.18643767101E+03  0.00000000000E+00 0. -1.
         23    2    1    2    0    0 -0.12754205583E+02 -0.13349332708E+03 -0.14756274903E+02  0.16261248192E+03  0.90785095110E+02 0.  0.
         23    2    1    2    0    0 -0.34685350993E+02  0.31694332288E+01  0.33495471711E+03  0.34892847808E+03  0.91341674087E+02 0.  0.
        -13    1    4    4    0    0 -0.36183524907E+02  0.40302653296E+02  0.25597040115E+03  0.26163791316E+03  0.00000000000E+00 0.  1.
         13    1    4    4    0    0  0.14981739142E+01 -0.37133220067E+02  0.78984315957E+02  0.87290564924E+02  0.00000000000E+00 0. -1.
        -13    1    3    3    0    0 -0.34944067778E+02 -0.32403853613E+02 -0.32394804668E+02  0.57623961781E+02  0.00000000000E+00 0. -1.
         13    1    3    3    0    0  0.22189862195E+02 -0.10108947346E+03  0.17638529765E+02  0.10498852014E+03  0.00000000000E+00 0.  1.
         21    1    1    2  503  502 -0.21831756372E+01  0.75662905207E+02  0.30316622409E+02  0.81539800555E+02  0.00000000000E+00 0. -1.
          2    1    1    2  501    0  0.49622732213E+02  0.54660988641E+02 -0.44242176141E+02  0.86067469936E+02  0.00000000000E+00 0. -1.
<scales pt_clust_5="13000.00000" pt_clust_6="13000.00000" pt_clust_7="13000.00000" pt_clust_8="13000.00000" pt_clust_9="82.22582" pt_clust_10="73.82577"></scales>
<clustering>
<clus scale="   73.826">  1 10  2 -1</clus>
<clus scale="   82.226">  2  9  1 -1</clus>
<clus scale="   90.785">  7  8 -1 -1</clus>
<clus scale="   91.342">  5  6 -1 -1</clus>
<clus scale="  118.404">  2  7  1 -1</clus>
<clus scale="   73.826">  1  5  2 -1</clus>
</clustering>
</event>
<event>
10    2  0.3544405E-006  0.1822817E+03  0.7546771E-02  0.1185768E+00
         21   -1    0    0  503  502  0.00000000000E+00  0.00000000000E+00  0.52832431437E+03  0.52832431437E+03  0.00000000000E+00 0.  1.
         -2   -1    0    0    0  501 -0.00000000000E+00 -0.00000000000E+00 -0.31912831494E+03  0.31912831494E+03  0.00000000000E+00 0.  1.
         23    2    1    2    0    0  0.16245633133E+02 -0.58504739313E+02  0.41211954553E+02  0.11689922150E+03  0.90996031076E+02 0.  0.
         23    2    1    2    0    0  0.51295195041E+02 -0.38520703816E+02 -0.16780276042E+03  0.19675353968E+03  0.80244297712E+02 0.  0.
        -11    1    4    4    0    0 -0.18494065900E+02 -0.10201068104E+02 -0.71161750724E+02  0.74229960461E+02  0.00000000000E+00 0.  1.
         11    1    4    4    0    0  0.69789260941E+02 -0.28319635712E+02 -0.96641009692E+02  0.12252357922E+03  0.00000000000E+00 0. -1.
        -13    1    3    3    0    0  0.43508399229E+02 -0.50415087836E+02  0.53983204092E+02  0.85725423353E+02  0.00000000000E+00 0.  1.
         13    1    3    3    0    0 -0.27262766096E+02 -0.80896514774E+01 -0.12771249539E+02  0.31173798149E+02  0.00000000000E+00 0. -1.
         21    1    1    2  503  501 -0.22711305019E+02 -0.72176832781E+02 -0.62890064821E+02  0.98389322688E+02  0.00000000000E+00 0.  1.
         -2    1    1    2    0  502 -0.44829523155E+02  0.16920227591E+03  0.39867687012E+03  0.43541054545E+03  0.00000000000E+00 0.  1.
<scales pt_clust_5="13000.00000" pt_clust_6="13000.00000" pt_clust_7="13000.00000" pt_clust_8="13000.00000" pt_clust_9="75.66570" pt_clust_10="163.66876"></scales>
<clustering>
<clus scale="   75.666">  2  9  1 -1</clus>
<clus scale="   80.244">  5  6 -1 -1</clus>
<clus scale="   90.996">  7  8 -1 -1</clus>
<clus scale="  115.474">  2  7  1 -1</clus>
<clus scale="  163.669">  1 10  2 -1</clus>
<clus scale="  163.669">  1  5  2 -1</clus>
</clustering>
</event>
<event>
10    2  0.3544405E-006  0.1702480E+03  0.7546771E-02  0.1201217E+00
         21   -1    0    0  501  502  0.00000000000E+00  0.00000000000E+00  0.25211292016E+03  0.25211292016E+03  0.00000000000E+00 0. -1.
          2   -1    0    0  503    0 -0.00000000000E+00 -0.00000000000E+00 -0.58367740270E+03  0.58367740270E+03  0.00000000000E+00 0. -1.
         23    2    1    2    0    0 -0.38641788201E+02  0.37126314033E+02 -0.38110818461E+03  0.39603219038E+03  0.93415718417E+02 0.  0.
         23    2    1    2    0    0 -0.57481291929E+02 -0.13823140579E+03  0.14842378523E+03  0.22827917170E+03  0.87577050315E+02 0.  0.
        -11    1    4    4    0    0 -0.11125161513E+02 -0.78706146156E+02  0.24469657878E+02  0.83169650823E+02  0.00000000000E+00 0.  1.
         11    1    4    4    0    0 -0.46356130416E+02 -0.59525259634E+02  0.12395412735E+03  0.14510952088E+03  0.00000000000E+00 0. -1.
        -13    1    3    3    0    0 -0.66345512036E+02  0.15101852093E+02 -0.19349457465E+03  0.20510958857E+03  0.00000000000E+00 0. -1.
         13    1    3    3    0    0  0.27703723835E+02  0.22024461940E+02 -0.18761360996E+03  0.19092260180E+03  0.00000000000E+00 0.  1.
         21    1    1    2  503  502  0.15477785194E+02 -0.13387575658E+02 -0.63950365509E+02  0.67144904984E+02  0.00000000000E+00 0. -1.
          2    1    1    2  501    0  0.80645294936E+02  0.11449266742E+03 -0.34929717656E+02  0.14433405580E+03  0.00000000000E+00 0. -1.
<scales pt_clust_5="13000.00000" pt_clust_6="13000.00000" pt_clust_7="13000.00000" pt_clust_8="13000.00000" pt_clust_9="20.46434" pt_clust_10="145.99540"></scales>
<clustering>
<clus scale="   20.464">  2  9  1 -1</clus>
<clus scale="   87.577">  5  6 -1 -1</clus>
<clus scale="   93.416">  7  8 -1 -1</clus>
<clus scale="  100.951">  2  7  1 -1</clus>
<clus scale="  145.995">  1 10  2 -1</clus>
<clus scale="  145.995">  1  5  2 -1</clus>
</clustering>
</event>
<event>
10    2  0.3544405E-006  0.9920657E+02  0.7546771E-02  0.1283366E+00
          1   -1    0    0  503    0 -0.00000000000E+00  0.00000000000E+00  0.10754368696E+03  0.10754368696E+03  0.00000000000E+00 0. -1.
         21   -1    0    0  501  502  0.00000000000E+00 -0.00000000000E+00 -0.14914479733E+03  0.14914479733E+03  0.00000000000E+00 0.  1.
         23    2    1    2    0    0  0.72928786361E+01 -0.23598264143E+02 -0.55406921676E+01  0.92038851668E+02  0.88489472805E+02 0.  0.
         23    2    1    2    0    0  0.28035592239E+01  0.58315009875E+02 -0.31100071233E+02  0.11274750569E+03  0.91303260003E+02 0.  0.
        -11    1    3    3    0    0 -0.21831608726E+02 -0.15349088121E+02 -0.38784036418E+02  0.47078818237E+02  0.00000000000E+00 0.  1.
         11    1    3    3    0    0  0.29124487362E+02 -0.82491760218E+01  0.33243344250E+02  0.44960033431E+02  0.00000000000E+00 0. -1.
        -13    1    4    4    0    0 -0.23001858789E+02  0.64885166546E+02 -0.45456601516E+02  0.82495290574E+02  0.00000000000E+00 0.  1.
         13    1    4    4    0    0  0.25805418013E+02 -0.65701566718E+01  0.14356530283E+02  0.30252215114E+02  0.00000000000E+00 0. -1.
         21    1    1    2  503  502 -0.19578803705E+02 -0.61290166075E+01  0.30366776473E+01  0.20739233598E+02  0.00000000000E+00 0. -1.
          1    1    1    2  501    0  0.94823658450E+01 -0.28587729124E+02 -0.79970246207E+01  0.31162893339E+02  0.00000000000E+00 0. -1.
<scales pt_clust_5="13000.00000" pt_clust_6="13000.00000" pt_clust_7="13000.00000" pt_clust_8="13000.00000" pt_clust_9="20.51571" pt_clust_10="30.17974"></scales>
<clustering>
<clus scale="   20.516">  1  9  2 -1</clus>
<clus scale="   30.180">  2 10  1 -1</clus>
<clus scale="   88.489">  5  6 -1 -1</clus>
<clus scale="   91.303">  7  8 -1 -1</clus>
<clus scale="   96.623">  1  5  2 -1</clus>
<clus scale="   30.180">  2  5  1 -1</clus>
</clustering>
</event>
<event>
10    2  0.3544405E-006  0.2133870E+03  0.7546771E-02  0.1171194E+00
         21   -1    0    0  503  502  0.00000000000E+00  0.00000000000E+00  0.68270486341E+03  0.68270486341E+03  0.00000000000E+00 0.  1.
         -1   -1    0    0    0  501 -0.00000000000E+00 -0.00000000000E+00 -0.48181403788E+03  0.48181403788E+03  0.00000000000E+00 0.  1.
         23    2    1    2    0    0  0.19729261358E+03  0.12713041861E+03  0.25703807709E+03  0.35955253195E+03  0.90127306894E+02 0.  0.
         23    2    1    2    0    0  0.48875474743E+01 -0.44041685503E+02  0.18573371568E+03  0.21053765657E+03  0.88687843092E+02 0.  0.
        -11    1    4    4    0    0 -0.29366571586E+02 -0.47481636285E+02  0.68585351053E+02  0.88435579323E+02  0.00000000000E+00 0.  1.
         11    1    4    4    0    0  0.34254119060E+02  0.34399507821E+01  0.11714836462E+03  0.12210207725E+03  0.00000000000E+00 0. -1.
        -13    1    3    3    0    0  0.14125921902E+03  0.38861399642E+02  0.14051317963E+03  0.20299834726E+03  0.00000000000E+00 0.  1.
         13    1    3    3    0    0  0.56033394555E+02  0.88269018968E+02  0.11652489746E+03  0.15655418469E+03  0.00000000000E+00 0. -1.
         21    1    1    2  503  501 -0.17377145536E+03 -0.78469171163E+02 -0.39500948728E+03  0.43861876905E+03  0.00000000000E+00 0.  1.
         -1    1    1    2    0  502 -0.28408705691E+02 -0.46195619440E+01  0.15312852004E+03  0.15580994372E+03  0.00000000000E+00 0.  1.
<scales pt_clust_5="13000.00000" pt_clust_6="13000.00000" pt_clust_7="13000.00000" pt_clust_8="13000.00000" pt_clust_9="193.41948" pt_clust_10="28.78185"></scales>
<clustering>
<clus scale="   28.782">  1 10  2 -1</clus>
<clus scale="   88.688">  5  6 -1 -1</clus>
<clus scale="   90.127">  7  8 -1 -1</clus>
<clus scale="   99.971">  1  5  2 -1</clus>
<clus scale="  193.419">  2  9  1 -1</clus>
<clus scale="   28.782">  1  5  2 -1</clus>
</clustering>
</event>
<event>
10    2  0.3544405E-006  0.1140596E+03  0.7546771E-02  0.1253316E+00
          1   -1    0    0  503    0 -0.00000000000E+00  0.00000000000E+00  0.16459058403E+03  0.16459058403E+03  0.00000000000E+00 0. -1.
         21   -1    0    0  501  502  0.00000000000E+00 -0.00000000000E+00 -0.36408363678E+03  0.36408363678E+03  0.00000000000E+00 0. -1.
         23    2    1    2    0    0  0.37129072995E+01 -0.72436103663E+02  0.10302824674E+03  0.15498150900E+03  0.90242305548E+02 0.  0.
         23    2    1    2    0    0 -0.36784318641E+02  0.51384668572E+02 -0.99889485835E+02  0.14885839070E+03  0.90484478437E+02 0.  0.
        -11    1    3    3    0    0 -0.26977683099E+02  0.85877353005E+01  0.33719215108E+02  0.44028741187E+02  0.00000000000E+00 0.  1.
         11    1    3    3    0    0  0.30690590398E+02 -0.81023838963E+02  0.69309031628E+02  0.11095276781E+03  0.00000000000E+00 0. -1.
        -13    1    4    4    0    0 -0.61682928064E+02  0.15088433110E+02 -0.41993498868E+02  0.76130797812E+02  0.00000000000E+00 0. -1.
         13    1    4    4    0    0  0.24898609423E+02  0.36296235462E+02 -0.57895986967E+02  0.72727592884E+02  0.00000000000E+00 0.  1.
         21    1    1    2  503  502  0.28006477855E+02 -0.12258637162E+02 -0.14729522075E+02  0.33935170656E+02  0.00000000000E+00 0.  1.
          1    1    1    2  501    0  0.50649334868E+01  0.33310072253E+02 -0.18790229158E+03  0.19089915046E+03  0.00000000000E+00 0. -1.
<scales pt_clust_5="13000.00000" pt_clust_6="13000.00000" pt_clust_7="13000.00000" pt_clust_8="13000.00000" pt_clust_9="30.57183" pt_clust_10="33.59403"></scales>
<clustering>
<clus scale="   30.572">  2  9  1 -1</clus>
<clus scale="   33.594">  2 10  1 -1</clus>
<clus scale="   90.242">  5  6 -1 -1</clus>
<clus scale="   90.484">  7  8 -1 -1</clus>
<clus scale="  113.868">  1  5  2 -1</clus>
<clus scale="   30.572">  2  5  1 -1</clus>
</clustering>
</event>
<event>
10    2  0.3544405E-006  0.1665394E+03  0.7546771E-02  0.1204276E+00
         21   -1    0    0  501  502  0.00000000000E+00  0.00000000000E+00  0.21152108007E+03  0.21152108007E+03  0.00000000000E+00 0. -1.
          2   -1    0    0  503    0 -0.00000000000E+00 -0.00000000000E+00 -0.34739280700E+03  0.34739280700E+03  0.00000000000E+00 0. -1.
         23    2    1    2    0    0  0.53741416592E+02  0.94041589893E+02 -0.85187547126E+02  0.16454886518E+03  0.89930252745E+02 0.  0.
         23    2    1    2    0    0 -0.30185577747E+02  0.12359856363E+02  0.25908726662E+02  0.10105739371E+03  0.92072794859E+02 0.  0.
        -11    1    4    4    0    0 -0.17296889947E+02 -0.30275551966E+02  0.41191145223E+02  0.53967600405E+02  0.00000000000E+00 0. -1.
         11    1    4    4    0    0 -0.12888687800E+02  0.42635408328E+02 -0.15282418561E+02  0.47089793306E+02  0.00000000000E+00 0.  1.
        -13    1    3    3    0    0 -0.22595217792E+02  0.41909216727E+02 -0.37031726369E+02  0.60318115617E+02  0.00000000000E+00 0. -1.
         13    1    3    3    0    0  0.76336634384E+02  0.52132373166E+02 -0.48155820757E+02  0.10423074956E+03  0.00000000000E+00 0.  1.
         21    1    1    2  503  502 -0.68023687422E+02 -0.17511635712E+03 -0.93323301111E+02  0.20976701149E+03  0.00000000000E+00 0. -1.
          2    1    1    2  501    0  0.44467848578E+02  0.68714910862E+02  0.16730394638E+02  0.83540616688E+02  0.00000000000E+00 0. -1.
<scales pt_clust_5="13000.00000" pt_clust_6="13000.00000" pt_clust_7="13000.00000" pt_clust_8="13000.00000" pt_clust_9="140.17101" pt_clust_10="81.84820"></scales>
<clustering>
<clus scale="   81.848">  1 10  2 -1</clus>
<clus scale="   89.930">  7  8 -1 -1</clus>
<clus scale="   92.073">  5  6 -1 -1</clus>
<clus scale="  100.946">  1  5  2 -1</clus>
<clus scale="  140.171">  1  9  2 -1</clus>
<clus scale="   81.848">  1  5  2 -1</clus>
</clustering>
</event>
<event>
10    2  0.3544405E-006  0.1590482E+03  0.7546771E-02  0.1206552E+00
          2   -1    0    0  503    0 -0.00000000000E+00  0.00000000000E+00  0.11896503773E+04  0.11896503773E+04  0.00000000000E+00 0. -1.
         21   -1    0    0  501  502  0.00000000000E+00 -0.00000000000E+00 -0.62654272360E+02  0.62654272360E+02  0.00000000000E+00 0. -1.
         23    2    1    2    0    0 -0.91167144740E+02  0.26590034791E+02  0.24901939401E+03  0.28263765123E+03  0.94100505152E+02 0.  0.
         23    2    1    2    0    0 -0.56592194636E+02  0.39177011874E+02  0.21332305583E+03  0.24174925679E+03  0.90545360218E+02 0.  0.
        -11    1    4    4    0    0 -0.20612429829E+02  0.28327984665E+02  0.12126063354E+02  0.37072744586E+02  0.00000000000E+00 0.  1.
         11    1    4    4    0    0 -0.35979764807E+02  0.10849027208E+02  0.20119699247E+03  0.20467651220E+03  0.00000000000E+00 0. -1.
        -13    1    3    3    0    0 -0.13770918859E+02 -0.22430427918E+02  0.12785997827E+02  0.29261647993E+02  0.00000000000E+00 0.  1.
         13    1    3    3    0    0 -0.77396225881E+02  0.49020462709E+02  0.23623339618E+03  0.25337600323E+03  0.00000000000E+00 0. -1.
         21    1    1    2  503  502  0.12661711395E+03 -0.67961673789E+02  0.68414724029E+03  0.69907662602E+03  0.00000000000E+00 0.  1.
          2    1    1    2  501    0  0.21142225422E+02  0.21946271251E+01 -0.19493585217E+02  0.28841115592E+02  0.00000000000E+00 0. -1.
<scales pt_clust_5="13000.00000" pt_clust_6="13000.00000" pt_clust_7="13000.00000" pt_clust_8="13000.00000" pt_clust_9="128.22417" pt_clust_10="21.25582"></scales>
<clustering>
<clus scale="   21.256">  2 10  1 -1</clus>
<clus scale="   90.545">  5  6 -1 -1</clus>
<clus scale="   94.101">  7  8 -1 -1</clus>
<clus scale="  110.351">  2  5  1 -1</clus>
<clus scale="  128.224">  1  9  2 -1</clus>
<clus scale="   21.256">  2  5  1 -1</clus>
</clustering>
</event>
<event>
10    2  0.3544405E-006  0.1585485E+03  0.7546771E-02  0.1191573E+00
         21   -1    0    0  501  502  0.00000000000E+00  0.00000000000E+00  0.14906036246E+03  0.14906036246E+03  0.00000000000E+00 0. -1.
          1   -1    0    0  503    0 -0.00000000000E+00 -0.00000000000E+00 -0.66060668690E+03  0.66060668690E+03  0.00000000000E+00 0. -1.
         23    2    1    2    0    0  0.62192643573E+02 -0.89708726595E+02 -0.31724772180E+03  0.34951211722E+03  0.97964394311E+02 0.  0.
         23    2    1    2    0    0 -0.77112346291E+02  0.13892907528E+03  0.61421098310E+02  0.19311036906E+03  0.90947575070E+02 0.  0.
        -11    1    4    4    0    0 -0.32267103679E+02  0.71027121294E+02 -0.17280458208E+02  0.79903893366E+02  0.00000000000E+00 0. -1.
         11    1    4    4    0    0 -0.44845242612E+02  0.67901953988E+02  0.78701556518E+02  0.11320647569E+03  0.00000000000E+00 0.  1.
        -13    1    3    3    0    0 -0.24742203212E+02 -0.35203022362E+02 -0.11357872624E+03  0.12145598568E+03  0.00000000000E+00 0.  1.
         13    1    3    3    0    0  0.86934846785E+02 -0.54505704233E+02 -0.20366899557E+03  0.22805613155E+03  0.00000000000E+00 0. -1.
         21    1    1    2  503  502 -0.11939174762E+02 -0.24532348618E+02 -0.18938307394E+03  0.19133825733E+03  0.00000000000E+00 0.  1.
          1    1    1    2  501    0  0.26858877480E+02 -0.24688000070E+02 -0.66336627013E+02  0.75706305750E+02  0.00000000000E+00 0. -1.
<scales pt_clust_5="13000.00000" pt_clust_6="13000.00000" pt_clust_7="13000.00000" pt_clust_8="13000.00000" pt_clust_9="27.28333" pt_clust_10="37.86766"></scales>
<clustering>
<clus scale="   27.283">  2  9  1 -1</clus>
<clus scale="   37.868">  1 10  2 -1</clus>
<clus scale="   90.948">  5  6 -1 -1</clus>
<clus scale="   97.964">  7  8 -1 -1</clus>
<clus scale="  154.312">  1  5  2 -1</clus>
<clus scale="   37.868">  1  5  2 -1</clus>
</clustering>
</event>
<event>
10    2  0.3544405E-006  0.1332236E+03  0.7546771E-02  0.1224423E+00
          1   -1    0    0  503    0 -0.00000000000E+00  0.00000000000E+00  0.37620013552E+03  0.37620013552E+03  0.00000000000E+00 0. -1.
         21   -1    0    0  501  502  0.00000000000E+00 -0.00000000000E+00 -0.89188839937E+02  0.89188839937E+02  0.00000000000E+00 0. -1.
         23    2    1    2    0    0 -0.33350704703E+02 -0.80144160131E+02  0.12200422883E+03  0.17718562833E+03  0.94733094148E+02 0.  0.
         23    2    1    2    0    0  0.59716212723E+02  0.81584539607E+02  0.76790820049E+02  0.15458115695E+03  0.88184130526E+02 0.  0.
        -11    1    3    3    0    0 -0.65207288606E+02 -0.38669826340E+02  0.65421445264E+02  0.10013646417E+03  0.00000000000E+00 0. -1.
         11    1    3    3    0    0  0.31856583902E+02 -0.41474333790E+02  0.56582783564E+02  0.77049164156E+02  0.00000000000E+00 0.  1.
        -11    1    4    4    0    0 -0.16467125402E+02  0.47972617265E+02  0.32862121751E+02  0.60435562976E+02  0.00000000000E+00 0.  1.
         11    1    4    4    0    0  0.76183338125E+02  0.33611922342E+02  0.43928698298E+02  0.94145593978E+02  0.00000000000E+00 0. -1.
         21    1    1    2  503  502  0.10274082523E+02 -0.17504203165E+02  0.91269933811E+02  0.93499490469E+02  0.00000000000E+00 0. -1.
          1    1    1    2  501    0 -0.36639590543E+02  0.16063823689E+02 -0.30536871058E+01  0.40122699705E+02  0.00000000000E+00 0. -1.
<scales pt_clust_5="13000.00000" pt_clust_6="13000.00000" pt_clust_7="13000.00000" pt_clust_8="13000.00000" pt_clust_9="20.29665" pt_clust_10="38.94061"></scales>
<clustering>
<clus scale="   20.297">  1  9  2 -1</clus>
<clus scale="   38.941">  2 10  1 -1</clus>
<clus scale="   88.184">  7  8 -1 -1</clus>
<clus scale="   94.733">  5  6 -1 -1</clus>
<clus scale="  128.649">  2  7  1 -1</clus>
<clus scale="   38.941">  2  5  1 -1</clus>
</clustering>
</event>
<event>
10    2  0.3544405E-006  0.1907418E+03  0.7546771E-02  0.1178069E+00
         21   -1    0    0  501  502  0.00000000000E+00  0.00000000000E+00  0.10882782816E+03  0.10882782816E+03  0.00000000000E+00 0. -1.
          3   -1    0    0  503    0 -0.00000000000E+00 -0.00000000000E+00 -0.99825735510E+03  0.99825735510E+03  0.00000000000E+00 0. -1.
         23    2    1    2    0    0 -0.94965227563E+01  0.79119767463E+02 -0.50434148889E+03  0.51881278796E+03  0.91957870717E+02 0.  0.
         23    2    1    2    0    0 -0.16461954960E+03 -0.92672556975E+02 -0.86680175060E+02  0.22681938675E+03  0.90806291254E+02 0.  0.
        -11    1    3    3    0    0 -0.17836881701E+02  0.98187109795E+02 -0.38822511012E+03  0.40084610389E+03  0.00000000000E+00 0. -1.
         11    1    3    3    0    0  0.83403589451E+01 -0.19067342332E+02 -0.11611637878E+03  0.11796668407E+03  0.00000000000E+00 0.  1.
        -13    1    4    4    0    0 -0.39580401464E+02 -0.56260623494E+02 -0.65292644830E+02  0.94841949606E+02  0.00000000000E+00 0.  1.
         13    1    4    4    0    0 -0.12503914814E+03 -0.36411933481E+02 -0.21387530230E+02  0.13197743715E+03  0.00000000000E+00 0. -1.
         21    1    1    2  503  502  0.25496358827E+02 -0.43772385401E+01 -0.14432658180E+03  0.14662669179E+03  0.00000000000E+00 0. -1.
          3    1    1    2  501    0  0.14861971353E+03  0.17930028052E+02 -0.15408128119E+03  0.21482631676E+03  0.00000000000E+00 0. -1.
<scales pt_clust_5="13000.00000" pt_clust_6="13000.00000" pt_clust_7="13000.00000" pt_clust_8="13000.00000" pt_clust_9="25.86937" pt_clust_10="167.73990"></scales>
<clustering>
<clus scale="   25.869">  2  9  1 -1</clus>
<clus scale="   90.806">  7  8 -1 -1</clus>
<clus scale="   91.958">  5  6 -1 -1</clus>
<clus scale="  119.755">  2  5  1 -1</clus>
<clus scale="  167.740">  1 10  2 -1</clus>
<clus scale="  167.740">  1  5  2 -1</clus>
</clustering>
</event>
<event>
10    2  0.3544405E-006  0.1478291E+03  0.7546771E-02  0.1212964E+00
         21   -1    0    0  503  502  0.00000000000E+00  0.00000000000E+00  0.89988989313E+02  0.89988989313E+02  0.00000000000E+00 0.  1.
         -4   -1    0    0    0  501 -0.00000000000E+00 -0.00000000000E+00 -0.85692094285E+03  0.85692094285E+03  0.00000000000E+00 0.  1.
         23    2    1    2    0    0  0.36129810619E+02 -0.10400569631E+03 -0.45014682172E+03  0.48029629358E+03  0.12621339249E+03 0.  0.
         23    2    1    2    0    0 -0.40277809995E+01  0.55482748558E+02 -0.21021373496E+03  0.23605503452E+03  0.91856445328E+02 0.  0.
        -11    1    4    4    0    0  0.39348798107E+02  0.89219015936E+01 -0.54252276265E+02  0.67610929002E+02  0.00000000000E+00 0. -1.
         11    1    4    4    0    0 -0.43376579107E+02  0.46560846965E+02 -0.15596145869E+03  0.16844410552E+03  0.00000000000E+00 0.  1.
        -13    1    3    3    0    0  0.72769808766E+02 -0.10651757660E+03 -0.37675489035E+03  0.39822818408E+03  0.00000000000E+00 0. -1.
         13    1    3    3    0    0 -0.36639998148E+02  0.25118802921E+01 -0.73391931373E+02  0.82068109504E+02  0.00000000000E+00 0.  1.
         21    1    1    2  503  501 -0.37063040025E+02  0.23805801067E+02 -0.16295068213E+03  0.16879961466E+03  0.00000000000E+00 0.  1.
         -4    1    1    2    0  502  0.49610104061E+01  0.24717146686E+02  0.56379285275E+02  0.61758989408E+02  0.00000000000E+00 0.  1.
<scales pt_clust_5="13000.00000" pt_clust_6="13000.00000" pt_clust_7="13000.00000" pt_clust_8="13000.00000" pt_clust_9="44.97327" pt_clust_10="25.21010"></scales>
<clustering>
<clus scale="   25.210">  1 10  2 -1</clus>
<clus scale="   44.973">  2  9  1 -1</clus>
<clus scale="   91.856">  5  6 -1 -1</clus>
<clus scale="  119.838">  1  5  2 -1</clus>
<clus scale="  126.213">  7  8 -1 -1</clus>
<clus scale="   25.210">  1  5  2 -1</clus>
</clustering>
</event>
<event>
10    2  0.3544405E-006  0.1335542E+03  0.7546771E-02  0.1234075E+00
         21   -1    0    0  501  502  0.00000000000E+00  0.00000000000E+00  0.63383629314E+03  0.63383629314E+03  0.00000000000E+00 0. -1.
          1   -1    0    0  503    0 -0.00000000000E+00 -0.00000000000E+00 -0.42345804527E+03  0.42345804527E+03  0.00000000000E+00 0. -1.
         23    2    1    2    0    0 -0.42343995775E+02 -0.35624060639E+02  0.67148932979E+02  0.12594016978E+03  0.91048665496E+02 0.  0.
         23    2    1    2    0    0  0.33074787869E+02  0.59949223005E+02 -0.18327054091E+02  0.10366340416E+03  0.75646345046E+02 0.  0.
        -11    1    3    3    0    0 -0.16744476949E+02  0.28404188621E+02  0.54680072030E+01  0.33422665098E+02  0.00000000000E+00 0.  1.
         11    1    3    3    0    0 -0.25599518826E+02 -0.64028249260E+02  0.61680925776E+02  0.92517504679E+02  0.00000000000E+00 0. -1.
        -13    1    4    4    0    0 -0.13643494389E+02  0.29160664728E+02 -0.32707142111E+02  0.45893860718E+02  0.00000000000E+00 0.  1.
         13    1    4    4    0    0  0.46718282258E+02  0.30788558277E+02  0.14380088021E+02  0.57769543441E+02  0.00000000000E+00 0. -1.
         21    1    1    2  503  502 -0.27449351197E+02  0.87033822009E+02 -0.31964079333E+03  0.33241328165E+03  0.00000000000E+00 0. -1.
          1    1    1    2  501    0  0.36718559103E+02 -0.11135898437E+03  0.48119716231E+03  0.49527748283E+03  0.00000000000E+00 0. -1.
<scales pt_clust_5="13000.00000" pt_clust_6="13000.00000" pt_clust_7="13000.00000" pt_clust_8="13000.00000" pt_clust_9="91.25981" pt_clust_10="110.06524"></scales>
<clustering>
<clus scale="   75.646">  7  8 -1 -1</clus>
<clus scale="   91.049">  5  6 -1 -1</clus>
<clus scale="   91.260">  2  9  1 -1</clus>
<clus scale="  104.597">  2  5  1 -1</clus>
<clus scale="  110.065">  1 10  2 -1</clus>
<clus scale="  110.065">  1  5  2 -1</clus>
</clustering>
</event>
<event>
10    2  0.3544405E-006  0.9610537E+02  0.7546771E-02  0.1289508E+00
         -3   -1    0    0    0  501 -0.00000000000E+00  0.00000000000E+00  0.31512174254E+03  0.31512174254E+03  0.00000000000E+00 0.  1.
         21   -1    0    0  503  502  0.00000000000E+00 -0.00000000000E+00 -0.72352160452E+02  0.72352160452E+02  0.00000000000E+00 0. -1.
         23    2    1    2    0    0 -0.48601257654E+01 -0.31519219152E+01  0.11173558981E+03  0.14430756564E+03  0.91138773506E+02 0.  0.
         23    2    1    2    0    0  0.30722735025E+02  0.23936095080E+02  0.56053899312E+02  0.11506103149E+03  0.92629251562E+02 0.  0.
        -11    1    4    4    0    0  0.13181456694E+02  0.55560305123E+02  0.12507139328E+02  0.58456195909E+02  0.00000000000E+00 0. -1.
         11    1    4    4    0    0  0.17541278331E+02 -0.31624210043E+02  0.43546759984E+02  0.56604835584E+02  0.00000000000E+00 0.  1.
        -11    1    3    3    0    0 -0.37735907879E+02  0.23116500146E+02  0.33611328594E+02  0.55570610328E+02  0.00000000000E+00 0. -1.
         11    1    3    3    0    0  0.32875782114E+02 -0.26268422061E+02  0.78124261220E+02  0.88736955314E+02  0.00000000000E+00 0.  1.
         21    1    1    2  503  501 -0.37766978119E+02 -0.35256197193E+01  0.93013701307E+02  0.10045060110E+03  0.00000000000E+00 0. -1.
         -3    1    1    2    0  502  0.11904368859E+02 -0.17258553445E+02 -0.18033608348E+02  0.27654704754E+02  0.00000000000E+00 0.  1.
<scales pt_clust_5="13000.00000" pt_clust_6="13000.00000" pt_clust_7="13000.00000" pt_clust_8="13000.00000" pt_clust_9="37.18681" pt_clust_10="20.96596"></scales>
<clustering>
<clus scale="   20.966">  2 10  1 -1</clus>
<clus scale="   37.187">  1  9  2 -1</clus>
<clus scale="   91.139">  7  8 -1 -1</clus>
<clus scale="   92.629">  5  6 -1 -1</clus>
<clus scale="   94.670">  1  7  2 -1</clus>
<clus scale="   20.966">  2  5  1 -1</clus>
</clustering>
</event>
<event>
10    2  0.3544405E-006  0.1695035E+03  0.7546771E-02  0.1178411E+00
          1   -1    0    0  503    0 -0.00000000000E+00  0.00000000000E+00  0.76997499487E+03  0.76997499487E+03  0.00000000000E+00 0. -1.
         21   -1    0    0  501  502  0.00000000000E+00 -0.00000000000E+00 -0.23072463927E+03  0.23072463927E+03  0.00000000000E+00 0.  1.
         23    2    1    2    0    0 -0.82264052648E+02 -0.18279299744E+03  0.30108921982E+03  0.37310139170E+03  0.91483746756E+02 0.  0.
         23    2    1    2    0    0  0.95851837360E+02  0.11104997448E+03 -0.11317128912E+03  0.20649330835E+03  0.91170577251E+02 0.  0.
        -11    1    3    3    0    0 -0.10172531043E+03 -0.16302174668E+03  0.27051152893E+03  0.33181412863E+03  0.00000000000E+00 0. -1.
         11    1    3    3    0    0  0.19461257786E+02 -0.19771250757E+02  0.30577690890E+02  0.41287263063E+02  0.00000000000E+00 0.  1.
        -13    1    4    4    0    0  0.10945200134E+03  0.85815151124E+02 -0.11062721546E+03  0.17771426943E+03  0.00000000000E+00 0.  1.
         13    1    4    4    0    0 -0.13600163984E+02  0.25234823359E+02 -0.25440736618E+01  0.28779038920E+02  0.00000000000E+00 0. -1.
         21    1    1    2  503  502  0.13865250847E+02  0.69753666146E+02  0.37689171234E+03  0.38354293365E+03  0.00000000000E+00 0. -1.
          1    1    1    2  501    0 -0.27453035560E+02  0.19893568117E+01 -0.25559287453E+02  0.37562000441E+02  0.00000000000E+00 0. -1.
<scales pt_clust_5="13000.00000" pt_clust_6="13000.00000" pt_clust_7="13000.00000" pt_clust_8="13000.00000" pt_clust_9="71.06302" pt_clust_10="27.52502"></scales>
<clustering>
<clus scale="   27.525">  2 10  1 -1</clus>
<clus scale="   71.063">  1  9  2 -1</clus>
<clus scale="   91.171">  7  8 -1 -1</clus>
<clus scale="   91.484">  5  6 -1 -1</clus>
<clus scale="  169.335">  2  7  1 -1</clus>
<clus scale="   27.525">  2  5  1 -1</clus>
</clustering>
</event>
<event>
10    2  0.3544405E-006  0.1036915E+03  0.7546771E-02  0.1272821E+00
         21   -1    0    0  501  502  0.00000000000E+00  0.00000000000E+00  0.38160658065E+02  0.38160658065E+02  0.00000000000E+00 0. -1.
          3   -1    0    0  503    0 -0.00000000000E+00 -0.00000000000E+00 -0.60861144758E+03  0.60861144758E+03  0.00000000000E+00 0. -1.
         23    2    1    2    0    0 -0.32305758191E+02 -0.68490759581E+01 -0.19583306162E+03  0.21929095777E+03  0.92991205397E+02 0.  0.
         23    2    1    2    0    0  0.58764143652E+02  0.26949897683E+02 -0.17682017623E+03  0.20988168275E+03  0.92765427112E+02 0.  0.
        -11    1    4    4    0    0  0.65133515815E+02 -0.18018533607E+02 -0.10202143320E+03  0.12237407924E+03  0.00000000000E+00 0.  1.
         11    1    4    4    0    0 -0.63693721630E+01  0.44968431290E+02 -0.74798743027E+02  0.87507603514E+02  0.00000000000E+00 0. -1.
        -13    1    3    3    0    0  0.28974303952E+02 -0.11370202150E+02 -0.10583456137E+03  0.11031657250E+03  0.00000000000E+00 0.  1.
         13    1    3    3    0    0 -0.61280062143E+02  0.45211261916E+01 -0.89998500244E+02  0.10897438527E+03  0.00000000000E+00 0. -1.
         21    1    1    2  503  502  0.19250593381E+02  0.84528752957E+01 -0.12140675743E+02  0.24278230038E+02  0.00000000000E+00 0.  1.
          3    1    1    2  501    0 -0.45708978841E+02 -0.28553697021E+02 -0.18565687592E+03  0.19332123509E+03  0.00000000000E+00 0. -1.
<scales pt_clust_5="13000.00000" pt_clust_6="13000.00000" pt_clust_7="13000.00000" pt_clust_8="13000.00000" pt_clust_9="21.02466" pt_clust_10="51.41146"></scales>
<clustering>
<clus scale="   21.025">  1  9  2 -1</clus>
<clus scale="   51.411">  1 10  2 -1</clus>
<clus scale="   92.765">  5  6 -1 -1</clus>
<clus scale="   92.991">  7  8 -1 -1</clus>
<clus scale="  103.489">  1  5  2 -1</clus>
<clus scale="   21.025">  1  5  2 -1</clus>
</clustering>
</event>
<event>
10    2  0.3544405E-006  0.9531089E+02  0.7546771E-02  0.1292563E+00
          1   -1    0    0  503    0 -0.00000000000E+00  0.00000000000E+00  0.29657859180E+03  0.29657859180E+03  0.00000000000E+00 0. -1.
         21   -1    0    0  501  502  0.00000000000E+00 -0.00000000000E+00 -0.15876424084E+03  0.15876424084E+03  0.00000000000E+00 0.  1.
         23    2    1    2    0    0 -0.36349928564E+02 -0.27284461311E+01  0.11583944110E+02  0.10014133937E+03  0.92549113255E+02 0.  0.
         23    2    1    2    0    0 -0.33807125368E+02 -0.35605247415E+02 -0.31162004861E+02  0.10614130420E+03  0.88793302344E+02 0.  0.
        -11    1    3    3    0    0  0.15589975940E+02 -0.28935528312E+02  0.23945276641E+02  0.40665568014E+02  0.00000000000E+00 0. -1.
         11    1    3    3    0    0 -0.51939904503E+02  0.26207082180E+02 -0.12361332531E+02  0.59475771354E+02  0.00000000000E+00 0.  1.
        -11    1    4    4    0    0  0.13411629877E+02  0.22702068851E+02 -0.98066549511E+01  0.28132298651E+02  0.00000000000E+00 0. -1.
         11    1    4    4    0    0 -0.47218755245E+02 -0.58307316265E+02 -0.21355349910E+02  0.78009005549E+02  0.00000000000E+00 0.  1.
         21    1    1    2  503  502  0.52841416310E+02  0.59002854605E+02  0.19053047230E+03  0.20633810362E+03  0.00000000000E+00 0. -1.
          1    1    1    2  501    0  0.17315637622E+02 -0.20669161059E+02 -0.33138060590E+02  0.42722085446E+02  0.00000000000E+00 0. -1.
<scales pt_clust_5="13000.00000" pt_clust_6="13000.00000" pt_clust_7="13000.00000" pt_clust_8="13000.00000" pt_clust_9="78.97354" pt_clust_10="26.96378"></scales>
<clustering>
<clus scale="   26.964">  2 10  1 -1</clus>
<clus scale="   78.974">  1  9  2 -1</clus>
<clus scale="   88.793">  7  8 -1 -1</clus>
<clus scale="   91.668">  2  7  1 -1</clus>
<clus scale="   92.549">  5  6 -1 -1</clus>
<clus scale="   26.964">  2  5  1 -1</clus>
</clustering>
</event>
<event>
10    2  0.3544405E-006  0.1034942E+03  0.7546771E-02  0.1275620E+00
          1   -1    0    0  503    0 -0.00000000000E+00  0.00000000000E+00  0.28800142925E+03  0.28800142925E+03  0.00000000000E+00 0. -1.
         21   -1    0    0  501  502  0.00000000000E+00 -0.00000000000E+00 -0.15135134492E+03  0.15135134492E+03  0.00000000000E+00 0.  1.
         23    2    1    2    0    0  0.93757184921E+01 -0.23969329100E+02  0.83053170688E+02  0.12990208399E+03  0.96510566406E+02 0.  0.
         23    2    1    2    0    0 -0.13161097863E+02  0.46209211943E+02 -0.66077329874E+02  0.12250176785E+03  0.91279591577E+02 0.  0.
        -13    1    3    3    0    0  0.46075921892E+02 -0.32840659688E+01  0.73329989605E+02  0.86666389350E+02  0.00000000000E+00 0.  1.
         13    1    3    3    0    0 -0.36700203400E+02 -0.20685263131E+02  0.97231810830E+01  0.43235694637E+02  0.00000000000E+00 0. -1.
        -13    1    4    4    0    0  0.37510825251E+02  0.23050202500E+02 -0.13896196318E+02  0.46167933876E+02  0.00000000000E+00 0.  1.
         13    1    4    4    0    0 -0.50671923114E+02  0.23159009443E+02 -0.52181133555E+02  0.76333833977E+02  0.00000000000E+00 0. -1.
         21    1    1    2  503  502 -0.16941454841E+02 -0.15301059221E+02  0.14879602528E+03  0.15053701354E+03  0.00000000000E+00 0. -1.
          1    1    1    2  501    0  0.20726834212E+02 -0.69388236234E+01 -0.29121781758E+02  0.36411908801E+02  0.00000000000E+00 0. -1.
<scales pt_clust_5="13000.00000" pt_clust_6="13000.00000" pt_clust_7="13000.00000" pt_clust_8="13000.00000" pt_clust_9="22.75004" pt_clust_10="21.85747"></scales>
<clustering>
<clus scale="   21.857">  2 10  1 -1</clus>
<clus scale="   22.750">  1  9  2 -1</clus>
<clus scale="   91.280">  7  8 -1 -1</clus>
<clus scale="   96.511">  5  6 -1 -1</clus>
<clus scale="   98.634">  2  7  1 -1</clus>
<clus scale="   21.857">  2  5  1 -1</clus>
</clustering>
</event>
<event>
10    2  0.3544405E-006  0.9799204E+02  0.7546771E-02  0.1284908E+00
          2   -1    0    0  503    0 -0.00000000000E+00  0.00000000000E+00  0.25149711578E+03  0.25149711578E+03  0.00000000000E+00 0. -1.
         21   -1    0    0  501  502  0.00000000000E+00 -0.00000000000E+00 -0.83447986550E+02  0.83447986550E+02  0.00000000000E+00 0.  1.
         23    2    1    2    0    0  0.47839736225E+01  0.47303063483E+02  0.12161157458E+03  0.15920087111E+03  0.91077308224E+02 0.  0.
         23    2    1    2    0    0  0.23738962962E+02 -0.32786708998E+02  0.42131511487E+02  0.10765197984E+03  0.90417796116E+02 0.  0.
        -13    1    4    4    0    0 -0.55556581165E+01 -0.36274263176E+02  0.62026336837E+02  0.72069091624E+02  0.00000000000E+00 0. -1.
         13    1    4    4    0    0  0.29294621078E+02  0.34875541785E+01 -0.19894825350E+02  0.35582888218E+02  0.00000000000E+00 0.  1.
        -13    1    3    3    0    0 -0.10809829509E+02 -0.21335608845E+02  0.73906729547E+01  0.25033630690E+02  0.00000000000E+00 0.  1.
         13    1    3    3    0    0  0.15593803132E+02  0.68638672328E+02  0.11422090163E+03  0.13416724042E+03  0.00000000000E+00 0. -1.
         21    1    1    2  503  502 -0.24190191668E+01 -0.22610626584E+02  0.25012371480E+02  0.33804005906E+02  0.00000000000E+00 0. -1.
          2    1    1    2  501    0 -0.26103917417E+02  0.80942720985E+01 -0.20706328313E+02  0.34288245472E+02  0.00000000000E+00 0. -1.
<scales pt_clust_5="13000.00000" pt_clust_6="13000.00000" pt_clust_7="13000.00000" pt_clust_8="13000.00000" pt_clust_9="22.73966" pt_clust_10="27.20449"></scales>
<clustering>
<clus scale="   22.740">  1  9  2 -1</clus>
<clus scale="   27.204">  2 10  1 -1</clus>
<clus scale="   90.418">  5  6 -1 -1</clus>
<clus scale="   91.077">  7  8 -1 -1</clus>
<clus scale="   97.379">  2  5  1 -1</clus>
<clus scale="   27.204">  2  5  1 -1</clus>
</clustering>
</event>
<event>
10    2  0.3544405E-006  0.2156618E+03  0.7546771E-02  0.1137451E+00
         21   -1    0    0  501  502  0.00000000000E+00  0.00000000000E+00  0.20016120330E+03  0.20016120330E+03  0.00000000000E+00 0.  1.
          3   -1    0    0  503    0 -0.00000000000E+00 -0.00000000000E+00 -0.64599652863E+03  0.64599652863E+03  0.00000000000E+00 0. -1.
         23    2    1    2    0    0  0.13666625929E+03 -0.10514710351E+03 -0.14404382379E+03  0.24203145090E+03  0.89983444283E+02 0.  0.
         23    2    1    2    0    0 -0.19110652953E+03  0.14207604880E+03 -0.75542481037E+02  0.26676441556E+03  0.93537573717E+02 0.  0.
        -11    1    3    3    0    0  0.35285414807E+02 -0.29408564495E+02  0.53489646780E+01  0.46244303291E+02  0.00000000000E+00 0.  1.
         11    1    3    3    0    0  0.10138084449E+03 -0.75738539012E+02 -0.14939278847E+03  0.19578714760E+03  0.00000000000E+00 0. -1.
        -13    1    4    4    0    0 -0.68305879037E+02  0.10253607334E+03 -0.14540106357E+02  0.12405947823E+03  0.00000000000E+00 0.  1.
         13    1    4    4    0    0 -0.12280065049E+03  0.39539975459E+02 -0.61002374680E+02  0.14270493732E+03  0.00000000000E+00 0. -1.
         21    1    1    2  503  502 -0.30158252443E+02 -0.33634734415E+02 -0.24625762947E+03  0.25036700186E+03  0.00000000000E+00 0. -1.
          3    1    1    2  501    0  0.84598522677E+02 -0.32942108763E+01  0.20008608965E+02  0.86994863626E+02  0.00000000000E+00 0. -1.
<scales pt_clust_5="13000.00000" pt_clust_6="13000.00000" pt_clust_7="13000.00000" pt_clust_8="13000.00000" pt_clust_9="45.17539" pt_clust_10="82.28700"></scales>
<clustering>
<clus scale="   45.175">  2  9  1 -1</clus>
<clus scale="   82.287">  1 10  2 -1</clus>
<clus scale="   89.983">  5  6 -1 -1</clus>
<clus scale="   93.538">  7  8 -1 -1</clus>
<clus scale="  214.144">  2  5  1 -1</clus>
<clus scale="   82.287">  1  5  2 -1</clus>
</clustering>
</event>
<event>
10    2  0.3544405E-006  0.2615979E+03  0.7546771E-02  0.1106253E+00
         -1   -1    0    0    0  501 -0.00000000000E+00  0.00000000000E+00  0.99073486648E+03  0.99073486648E+03  0.00000000000E+00 0.  1.
         21   -1    0    0  503  502  0.00000000000E+00 -0.00000000000E+00 -0.16914178427E+03  0.16914178427E+03  0.00000000000E+00 0. -1.
         23    2    1    2    0    0 -0.24611775917E+03  0.55163728080E+02  0.47551471318E+03  0.54639554229E+03  0.93898125150E+02 0.  0.
         23    2    1    2    0    0  0.23025456723E+03 -0.48969211112E+02  0.37638785644E+03  0.45350851894E+03  0.92666115238E+02 0.  0.
        -13    1    4    4    0    0  0.19625902564E+03 -0.16533153067E+02  0.24736903060E+03  0.31619991713E+03  0.00000000000E+00 0.  1.
         13    1    4    4    0    0  0.33995541582E+02 -0.32436058045E+02  0.12901882584E+03  0.13730860181E+03  0.00000000000E+00 0. -1.
        -13    1    3    3    0    0 -0.23930971376E+03  0.27881352176E+02  0.42141899203E+03  0.48542813654E+03  0.00000000000E+00 0.  1.
         13    1    3    3    0    0 -0.68080454133E+01  0.27282375904E+02  0.54095721153E+02  0.60967405754E+02  0.00000000000E+00 0. -1.
         21    1    1    2  503  501  0.45583600467E+02  0.60958848601E+01  0.53295569403E+02  0.70394901533E+02  0.00000000000E+00 0. -1.
         -1    1    1    2    0  502 -0.29720408522E+02 -0.12290401828E+02 -0.83605056818E+02  0.89577687989E+02  0.00000000000E+00 0.  1.
<scales pt_clust_5="13000.00000" pt_clust_6="13000.00000" pt_clust_7="13000.00000" pt_clust_8="13000.00000" pt_clust_9="42.77824" pt_clust_10="32.16142"></scales>
<clustering>
<clus scale="   32.161">  2 10  1 -1</clus>
<clus scale="   42.778">  2  9  1 -1</clus>
<clus scale="   92.666">  5  6 -1 -1</clus>
<clus scale="   93.898">  7  8 -1 -1</clus>
<clus scale="  261.158">  2  5  1 -1</clus>
<clus scale="   32.161">  2  5  1 -1</clus>
</clustering>
</event>
<event>
10    2  0.3544405E-006  0.1785957E+03  0.7546771E-02  0.1169331E+00
         21   -1    0    0  501  502  0.00000000000E+00  0.00000000000E+00  0.25066588776E+03  0.25066588776E+03  0.00000000000E+00 0. -1.
          2   -1    0    0  503    0 -0.00000000000E+00 -0.00000000000E+00 -0.59961441425E+03  0.59961441425E+03  0.00000000000E+00 0. -1.
         23    2    1    2    0    0 -0.25216617965E+02 -0.17463483296E+03 -0.47508652718E+03  0.51503237250E+03  0.91749298114E+02 0.  0.
         23    2    1    2    0    0  0.16524801773E+02  0.86912785627E+02 -0.16002120206E+02  0.12753678187E+03  0.90458064864E+02 0.  0.
        -11    1    4    4    0    0  0.47382112355E+02  0.45861700750E+02  0.14895132748E+02  0.67603440345E+02  0.00000000000E+00 0. -1.
         11    1    4    4    0    0 -0.30857310582E+02  0.41051084878E+02 -0.30897252954E+02  0.59933341523E+02  0.00000000000E+00 0.  1.
        -11    1    3    3    0    0 -0.20741911774E+02 -0.41060521489E+02 -0.43823559745E+02  0.63535011747E+02  0.00000000000E+00 0.  1.
         11    1    3    3    0    0 -0.44747061910E+01 -0.13357431147E+03 -0.43126296744E+03  0.45149736075E+03  0.00000000000E+00 0. -1.
         21    1    1    2  503  502 -0.23785115234E+02  0.23490017041E+02 -0.13641724643E+02  0.36105529473E+02  0.00000000000E+00 0. -1.
          2    1    1    2  501    0  0.32476931426E+02  0.64232030288E+02  0.15578184554E+03  0.17160561818E+03  0.00000000000E+00 0. -1.
<scales pt_clust_5="13000.00000" pt_clust_6="13000.00000" pt_clust_7="13000.00000" pt_clust_8="13000.00000" pt_clust_9="33.42922" pt_clust_10="81.91255"></scales>
<clustering>
<clus scale="   33.429">  1  9  2 -1</clus>
<clus scale="   81.913">  1 10  2 -1</clus>
<clus scale="   90.458">  5  6 -1 -1</clus>
<clus scale="   91.749">  7  8 -1 -1</clus>
<clus scale="  177.936">  1  5  2 -1</clus>
<clus scale="   33.429">  1  5  2 -1</clus>
</clustering>
</event>
<event>
10    2  0.3544405E-006  0.2490775E+03  0.7546771E-02  0.1136250E+00
         21   -1    0    0  503  502  0.00000000000E+00  0.00000000000E+00  0.61704133116E+03  0.61704133116E+03  0.00000000000E+00 0.  1.
         -3   -1    0    0    0  501 -0.00000000000E+00 -0.00000000000E+00 -0.29388694950E+03  0.29388694950E+03  0.00000000000E+00 0.  1.
         23    2    1    2    0    0  0.10866837794E+03 -0.47346989663E+02  0.14585471082E+03  0.20876870231E+03  0.90885755776E+02 0.  0.
         23    2    1    2    0    0 -0.22643465860E+03  0.14406168844E+03  0.32666723733E+02  0.28620912592E+03  0.93926163717E+02 0.  0.
        -11    1    3    3    0    0  0.48869616081E+02 -0.69171686069E+02  0.71085539010E+02  0.11057176577E+03  0.00000000000E+00 0. -1.
         11    1    3    3    0    0  0.59798761858E+02  0.21824696405E+02  0.74769171813E+02  0.98196936543E+02  0.00000000000E+00 0.  1.
        -13    1    4    4    0    0 -0.16070472944E+03  0.79795757880E+02 -0.19550294438E+02  0.18048708279E+03  0.00000000000E+00 0.  1.
         13    1    4    4    0    0 -0.65729929156E+02  0.64265930563E+02  0.52217018170E+02  0.10572204313E+03  0.00000000000E+00 0. -1.
         21    1    1    2  503  501 -0.29336819241E+02  0.66376812278E+02 -0.75686900020E+02  0.10485722200E+03  0.00000000000E+00 0.  1.
         -3    1    1    2    0  502  0.14710309990E+03 -0.16309151106E+03  0.22031984712E+03  0.31109323042E+03  0.00000000000E+00 0.  1.
<scales pt_clust_5="13000.00000" pt_clust_6="13000.00000" pt_clust_7="13000.00000" pt_clust_8="13000.00000" pt_clust_9="72.57086" pt_clust_10="230.68917"></scales>
<clustering>
<clus scale="   72.571">  2  9  1 -1</clus>
<clus scale="   90.886">  5  6 -1 -1</clus>
<clus scale="   93.926">  7  8 -1 -1</clus>
<clus scale="  143.110">  2  5  1 -1</clus>
<clus scale="  230.689">  1 10  2 -1</clus>
<clus scale="  230.689">  1  5  2 -1</clus>
</clustering>
</event>
<event>
10    2  0.3544405E-006  0.3048558E+03  0.7546771E-02  0.1115473E+00
          2   -1    0    0  503    0 -0.00000000000E+00  0.00000000000E+00  0.96955489272E+03  0.96955489272E+03  0.00000000000E+00 0. -1.
         21   -1    0    0  501  502  0.00000000000E+00 -0.00000000000E+00 -0.66883705417E+03  0.66883705417E+03  0.00000000000E+00 0. -1.
         23    2    1    2    0    0 -0.87426523621E+02 -0.24093333652E+02  0.42497882118E+03  0.44366455982E+03  0.89483838978E+02 0.  0.
         23    2    1    2    0    0  0.99979365009E+02 -0.22661059611E+03 -0.41345271947E+02  0.26800293903E+03  0.93637108650E+02 0.  0.
        -11    1    4    4    0    0  0.21751062890E+02 -0.16164558220E+03 -0.26323948335E+02  0.16521305407E+03  0.00000000000E+00 0. -1.
         11    1    4    4    0    0  0.78228302119E+02 -0.64965013916E+02 -0.15021323612E+02  0.10278988495E+03  0.00000000000E+00 0.  1.
        -13    1    3    3    0    0 -0.97008526769E+02 -0.42142792031E+02  0.33091966748E+03  0.34741113325E+03  0.00000000000E+00 0.  1.
         13    1    3    3    0    0  0.95820031483E+01  0.18049458379E+02  0.94059153700E+02  0.96253426572E+02  0.00000000000E+00 0. -1.
         21    1    1    2  503  502  0.76990300966E+02  0.33366319803E+03  0.34239423680E+03  0.48424420446E+03  0.00000000000E+00 0. -1.
          2    1    1    2  501    0 -0.89543142354E+02 -0.82959268271E+02 -0.42530994748E+03  0.44248024358E+03  0.00000000000E+00 0. -1.
<scales pt_clust_5="13000.00000" pt_clust_6="13000.00000" pt_clust_7="13000.00000" pt_clust_8="13000.00000" pt_clust_9="290.11917" pt_clust_10="122.06643"></scales>
<clustering>
<clus scale="   89.484">  7  8 -1 -1</clus>
<clus scale="   93.637">  5  6 -1 -1</clus>
<clus scale="  122.066">  2 10  1 -1</clus>
<clus scale="  130.524">  1  7  2 -1</clus>
<clus scale="  290.119">  1  9  2 -1</clus>
<clus scale="  122.066">  2  5  1 -1</clus>
</clustering>
</event>
<event>
10    2  0.3544405E-006  0.1828936E+03  0.7546771E-02  0.1168313E+00
         21   -1    0    0  503  502  0.00000000000E+00  0.00000000000E+00  0.12506596673E+03  0.12506596673E+03  0.00000000000E+00 0.  1.
         -2   -1    0    0    0  501 -0.00000000000E+00 -0.00000000000E+00 -0.86000502099E+03  0.86000502099E+03  0.00000000000E+00 0.  1.
         23    2    1    2    0    0 -0.12549573415E+03  0.65903778841E+02 -0.11861523625E+03  0.20604004314E+03  0.91051841013E+02 0.  0.
         23    2    1    2    0    0  0.10296323462E+03  0.12705965366E+03 -0.41380513009E+03  0.45422275850E+03  0.91312898183E+02 0.  0.
        -11    1    4    4    0    0  0.83082299469E+02  0.14023695163E+03 -0.37082144826E+03  0.40506495476E+03  0.00000000000E+00 0.  1.
         11    1    4    4    0    0  0.19880935147E+02 -0.13177297969E+02 -0.42983681833E+02  0.49157803735E+02  0.00000000000E+00 0. -1.
        -13    1    3    3    0    0 -0.91983558572E+02  0.76584168802E+02 -0.12174549411E+03  0.17072807412E+03  0.00000000000E+00 0.  1.
         13    1    3    3    0    0 -0.33512175575E+02 -0.10680389961E+02  0.31302578582E+01  0.35311969015E+02  0.00000000000E+00 0. -1.
         21    1    1    2  503  501 -0.19343092055E+02 -0.25791705311E+02 -0.13650554378E+03  0.14026093809E+03  0.00000000000E+00 0. -1.
         -2    1    1    2    0  502  0.41875591587E+02 -0.16717172719E+03 -0.66013144138E+02  0.18454724799E+03  0.00000000000E+00 0.  1.
<scales pt_clust_5="13000.00000" pt_clust_6="13000.00000" pt_clust_7="13000.00000" pt_clust_8="13000.00000" pt_clust_9="32.23922" pt_clust_10="158.46770"></scales>
<clustering>
<clus scale="   32.239">  2  9  1 -1</clus>
<clus scale="   91.052">  7  8 -1 -1</clus>
<clus scale="   91.313">  5  6 -1 -1</clus>
<clus scale="  169.596">  2  7  1 -1</clus>
<clus scale="  158.468">  1 10  2 -1</clus>
<clus scale="  158.468">  1  5  2 -1</clus>
</clustering>
</event>
<event>
10    2  0.3544405E-006  0.9688359E+02  0.7546771E-02  0.1289171E+00
          3   -1    0    0  503    0 -0.00000000000E+00  0.00000000000E+00  0.21059628130E+03  0.21059628130E+03  0.00000000000E+00 0. -1.
         21   -1    0    0  501  502  0.00000000000E+00 -0.00000000000E+00 -0.40533557918E+03  0.40533557918E+03  0.00000000000E+00 0. -1.
         23    2    1    2    0    0  0.27536272774E+02  0.43121663391E+02  0.67323547297E+02  0.12442727839E+03  0.91279589252E+02 0.  0.
         23    2    1    2    0    0  0.36800065352E+02 -0.80190291176E+01  0.35231122211E+01  0.94995499205E+02  0.87138871415E+02 0.  0.
        -13    1    4    4    0    0  0.59402334523E+02  0.10543166244E+02  0.17161942510E+02  0.62724221573E+02  0.00000000000E+00 0. -1.
         13    1    4    4    0    0 -0.22602269171E+02 -0.18562195361E+02 -0.13638830289E+02  0.32271277631E+02  0.00000000000E+00 0.  1.
        -13    1    3    3    0    0 -0.37465796794E-01 -0.26595670710E+02  0.52856953334E+01  0.27115856604E+02  0.00000000000E+00 0.  1.
         13    1    3    3    0    0  0.27573738571E+02  0.69717334102E+02  0.62037851963E+02  0.97311421782E+02  0.00000000000E+00 0. -1.
         21    1    1    2  503  502 -0.25887064687E+02  0.15437388111E+02  0.58741669125E+02  0.66023001760E+02  0.00000000000E+00 0. -1.
          3    1    1    2  501    0 -0.38449273439E+02 -0.50540022385E+02 -0.32432762652E+03  0.33048608112E+03  0.00000000000E+00 0. -1.
<scales pt_clust_5="13000.00000" pt_clust_6="13000.00000" pt_clust_7="13000.00000" pt_clust_8="13000.00000" pt_clust_9="30.14056" pt_clust_10="63.57650"></scales>
<clustering>
<clus scale="   30.141">  1  9  2 -1</clus>
<clus scale="   63.577">  2 10  1 -1</clus>
<clus scale="   87.139">  5  6 -1 -1</clus>
<clus scale="   91.280">  7  8 -1 -1</clus>
<clus scale="   92.993">  2  5  1 -1</clus>
<clus scale="   63.577">  2  5  1 -1</clus>
</clustering>
</event>
<event>
10    2  0.3544405E-006  0.2236737E+03  0.7546771E-02  0.1161202E+00
         -2   -1    0    0    0  501 -0.00000000000E+00  0.00000000000E+00  0.39455497247E+03  0.39455497247E+03  0.00000000000E+00 0.  1.
         21   -1    0    0  503  502  0.00000000000E+00 -0.00000000000E+00 -0.36112898790E+03  0.36112898790E+03  0.00000000000E+00 0.  1.
         23    2    1    2    0    0  0.61377982776E+02 -0.42195914528E+01 -0.60802389131E+02  0.12608606688E+03  0.91737146330E+02 0.  0.
         23    2    1    2    0    0  0.64880725490E+02  0.18775142502E+03  0.25232125367E+03  0.33376910728E+03  0.90970851273E+02 0.  0.
        -11    1    4    4    0    0  0.86129716688E+02  0.16828012005E+03  0.20984986066E+03  0.28244201338E+03  0.00000000000E+00 0.  1.
         11    1    4    4    0    0 -0.21248991197E+02  0.19471304972E+02  0.42471393010E+02  0.51327093902E+02  0.00000000000E+00 0. -1.
        -11    1    3    3    0    0 -0.12215291372E+02 -0.15849951844E+02  0.10810038210E+02  0.22744037524E+02  0.00000000000E+00 0. -1.
         11    1    3    3    0    0  0.73593274148E+02  0.11630360392E+02 -0.71612427341E+02  0.10334202936E+03  0.00000000000E+00 0.  1.
         21    1    1    2  503  501 -0.25338213458E+02 -0.42505983469E+01  0.12496010751E+02  0.28569965563E+02  0.00000000000E+00 0.  1.
         -2    1    1    2    0  502 -0.10092049481E+03 -0.17928123522E+03 -0.17058889072E+03  0.26725882064E+03  0.00000000000E+00 0.  1.
<scales pt_clust_5="13000.00000" pt_clust_6="13000.00000" pt_clust_7="13000.00000" pt_clust_8="13000.00000" pt_clust_9="25.69227" pt_clust_10="204.33857"></scales>
<clustering>
<clus scale="   25.692">  1  9  2 -1</clus>
<clus scale="   90.971">  5  6 -1 -1</clus>
<clus scale="   91.737">  7  8 -1 -1</clus>
<clus scale="  109.259">  1  7  2 -1</clus>
<clus scale="  204.339">  2 10  1 -1</clus>
<clus scale="  204.339">  2  5  1 -1</clus>
</clustering>
</event>
<event>
10    2  0.3544405E-006  0.1401519E+03  0.7546771E-02  0.1214233E+00
         21   -1    0    0  501  502  0.00000000000E+00  0.00000000000E+00  0.36968871537E+03  0.36968871537E+03  0.00000000000E+00 0.  1.
          1   -1    0    0  503    0 -0.00000000000E+00 -0.00000000000E+00 -0.18598137374E+03  0.18598137374E+03  0.00000000000E+00 0. -1.
         23    2    1    2    0    0  0.57690799821E+00  0.11299221012E+03  0.19903235832E+02  0.14616789447E+03  0.90561262172E+02 0.  0.
         23    2    1    2    0    0 -0.13260820475E+03 -0.33142199420E+02  0.10897556503E+03  0.19915576924E+03  0.95414911311E+02 0.  0.
        -11    1    3    3    0    0 -0.29888627441E+02  0.10605302914E+03  0.28403763316E+02  0.11378641751E+03  0.00000000000E+00 0. -1.
         11    1    3    3    0    0  0.30465535440E+02  0.69391809808E+01 -0.85005274841E+01  0.32381476955E+02  0.00000000000E+00 0.  1.
        -13    1    4    4    0    0 -0.27244698866E+02 -0.50669883086E+02  0.54536211721E+02  0.79271111113E+02  0.00000000000E+00 0.  1.
         13    1    4    4    0    0 -0.10536350588E+03  0.17527683665E+02  0.54439353310E+02  0.11988465813E+03  0.00000000000E+00 0. -1.
         21    1    1    2  503  502  0.11197835726E+03 -0.48024961397E+02 -0.22917248796E+02  0.12397882765E+03  0.00000000000E+00 0.  1.
          1    1    1    2  501    0  0.20052939486E+02 -0.31825049303E+02  0.77745789567E+02  0.86367597747E+02  0.00000000000E+00 0. -1.
<scales pt_clust_5="13000.00000" pt_clust_6="13000.00000" pt_clust_7="13000.00000" pt_clust_8="13000.00000" pt_clust_9="127.33893" pt_clust_10="37.61588"></scales>
<clustering>
<clus scale="   37.616">  1 10  2 -1</clus>
<clus scale="   90.561">  5  6 -1 -1</clus>
<clus scale="   95.415">  7  8 -1 -1</clus>
<clus scale="  127.339">  2  9  1 -1</clus>
<clus scale="  136.894">  2  5  1 -1</clus>
<clus scale="   37.616">  1  5  2 -1</clus>
</clustering>
</event>
<event>
10    2  0.3544405E-006  0.1426789E+03  0.7546771E-02  0.1227914E+00
         21   -1    0    0  503  502  0.00000000000E+00  0.00000000000E+00  0.13686266867E+03  0.13686266867E+03  0.00000000000E+00 0.  1.
         -3   -1    0    0    0  501 -0.00000000000E+00 -0.00000000000E+00 -0.40705474536E+03  0.40705474536E+03  0.00000000000E+00 0.  1.
         23    2    1    2    0    0  0.19407606772E+02  0.10685045608E+02 -0.92591266383E+02  0.13346748598E+03  0.93539306197E+02 0.  0.
         23    2    1    2    0    0 -0.10262618953E+03 -0.61287029795E+02  0.83428602092E+01  0.15004411151E+03  0.90307238261E+02 0.  0.
        -11    1    4    4    0    0 -0.79755377033E+02 -0.65077200168E+02 -0.28234669796E+02  0.10673874051E+03  0.00000000000E+00 0.  1.
         11    1    4    4    0    0 -0.22870812502E+02  0.37901703729E+01  0.36577530005E+02  0.43305370997E+02  0.00000000000E+00 0. -1.
        -11    1    3    3    0    0 -0.33981852250E+02 -0.14052702834E+02 -0.42419483229E+02  0.56139623233E+02  0.00000000000E+00 0.  1.
         11    1    3    3    0    0  0.53389459022E+02  0.24737748441E+02 -0.50171783154E+02  0.77327862750E+02  0.00000000000E+00 0. -1.
         21    1    1    2  503  501 -0.19616153043E+02  0.32881467437E+02 -0.14218821331E+03  0.14725308949E+03  0.00000000000E+00 0.  1.
         -3    1    1    2    0  502  0.10283473581E+03  0.17720516751E+02 -0.43755457208E+02  0.11315272704E+03  0.00000000000E+00 0.  1.
<scales pt_clust_5="13000.00000" pt_clust_6="13000.00000" pt_clust_7="13000.00000" pt_clust_8="13000.00000" pt_clust_9="38.28818" pt_clust_10="110.46218"></scales>
<clustering>
<clus scale="   38.288">  2  9  1 -1</clus>
<clus scale="   90.307">  5  6 -1 -1</clus>
<clus scale="   93.539">  7  8 -1 -1</clus>
<clus scale="   97.403">  2  7  1 -1</clus>
<clus scale="  110.462">  1 10  2 -1</clus>
<clus scale="  110.462">  1  5  2 -1</clus>
</clustering>
</event>
<event>
10    2  0.3544405E-006  0.1333589E+03  0.7546771E-02  0.1233838E+00
          1   -1    0    0  503    0 -0.00000000000E+00  0.00000000000E+00  0.50870287198E+03  0.50870287198E+03  0.00000000000E+00 0. -1.
         21   -1    0    0  501  502  0.00000000000E+00 -0.00000000000E+00 -0.16915533883E+03  0.16915533883E+03  0.00000000000E+00 0. -1.
         23    2    1    2    0    0 -0.18625150754E+02  0.78166029874E+02  0.11545870320E+03  0.16739360933E+03  0.90736342400E+02 0.  0.
         23    2    1    2    0    0 -0.82612409547E+01  0.80894327902E+02 -0.15618278241E+02  0.12271709891E+03  0.90572707599E+02 0.  0.
        -11    1    4    4    0    0  0.26760543380E+01  0.49064008366E+02  0.36127290104E+02  0.60988681524E+02  0.00000000000E+00 0. -1.
         11    1    4    4    0    0 -0.10937295293E+02  0.31830319536E+02 -0.51745568345E+02  0.61728417390E+02  0.00000000000E+00 0.  1.
        -11    1    3    3    0    0  0.26680885268E+02  0.28355082711E+02  0.67409963589E+01  0.39513559522E+02  0.00000000000E+00 0.  1.
         11    1    3    3    0    0 -0.45306036022E+02  0.49810947163E+02  0.10871770684E+03  0.12788004981E+03  0.00000000000E+00 0. -1.
         21    1    1    2  503  502 -0.14136658285E+02 -0.53350009513E+02  0.26573625257E+03  0.27140711957E+03  0.00000000000E+00 0. -1.
          1    1    1    2  501    0  0.41023049993E+02 -0.10571034826E+03 -0.26029144380E+02  0.11634038301E+03  0.00000000000E+00 0. -1.
<scales pt_clust_5="13000.00000" pt_clust_6="13000.00000" pt_clust_7="13000.00000" pt_clust_8="13000.00000" pt_clust_9="55.19120" pt_clust_10="97.88349"></scales>
<clustering>
<clus scale="   55.191">  1  9  2 -1</clus>
<clus scale="   90.573">  5  6 -1 -1</clus>
<clus scale="   90.736">  7  8 -1 -1</clus>
<clus scale="  105.568">  1  7  2 -1</clus>
<clus scale="   97.883">  2 10  1 -1</clus>
<clus scale="   97.883">  2  5  1 -1</clus>
</clustering>
</event>
<event>
10    2  0.3544405E-006  0.1349860E+03  0.7546771E-02  0.1220275E+00
         21   -1    0    0  501  502  0.00000000000E+00  0.00000000000E+00  0.19641037970E+03  0.19641037970E+03  0.00000000000E+00 0.  1.
          3   -1    0    0  503    0 -0.00000000000E+00 -0.00000000000E+00 -0.24247751249E+03  0.24247751249E+03  0.00000000000E+00 0. -1.
         23    2    1    2    0    0 -0.10813082135E+02  0.11665894006E+03 -0.28893232857E+02  0.15152931391E+03  0.91651966849E+02 0.  0.
         23    2    1    2    0    0 -0.51649979372E+02 -0.77570426787E+02 -0.15646348265E+02  0.13174500965E+03  0.91798953546E+02 0.  0.
        -11    1    3    3    0    0  0.24261825825E+02  0.10528180297E+03 -0.61723409489E+01  0.10821733697E+03  0.00000000000E+00 0. -1.
         11    1    3    3    0    0 -0.35074907959E+02  0.11377137088E+02 -0.22720891908E+02  0.43311976932E+02  0.00000000000E+00 0.  1.
        -13    1    4    4    0    0 -0.21426491232E+02 -0.48904708202E+02 -0.53409253818E+02  0.75520284720E+02  0.00000000000E+00 0. -1.
         13    1    4    4    0    0 -0.30223488140E+02 -0.28665718585E+02  0.37762905554E+02  0.56224724928E+02  0.00000000000E+00 0.  1.
         21    1    1    2  503  502  0.49599202944E+02 -0.14748653428E+02 -0.66960764148E+02  0.84624746061E+02  0.00000000000E+00 0. -1.
          3    1    1    2  501    0  0.12863858562E+02 -0.24339859844E+02  0.65433212482E+02  0.70988822571E+02  0.00000000000E+00 0. -1.
<scales pt_clust_5="13000.00000" pt_clust_6="13000.00000" pt_clust_7="13000.00000" pt_clust_8="13000.00000" pt_clust_9="53.09025" pt_clust_10="27.53012"></scales>
<clustering>
<clus scale="   27.530">  1 10  2 -1</clus>
<clus scale="   53.090">  2  9  1 -1</clus>
<clus scale="   91.652">  5  6 -1 -1</clus>
<clus scale="   91.799">  7  8 -1 -1</clus>
<clus scale="  134.886">  2  5  1 -1</clus>
<clus scale="   27.530">  1  5  2 -1</clus>
</clustering>
</event>
<event>
10    2  0.3544405E-006  0.1410047E+03  0.7546771E-02  0.1212477E+00
         21   -1    0    0  503  502  0.00000000000E+00  0.00000000000E+00  0.16044476694E+03  0.16044476694E+03  0.00000000000E+00 0.  1.
         -1   -1    0    0    0  501 -0.00000000000E+00 -0.00000000000E+00 -0.77518886781E+03  0.77518886781E+03  0.00000000000E+00 0.  1.
         23    2    1    2    0    0  0.83099663924E+02  0.53585744794E+01 -0.39321143888E+03  0.41218915016E+03  0.91380475928E+02 0.  0.
         23    2    1    2    0    0 -0.12773456866E+03 -0.49047191340E+02 -0.19508582266E+03  0.25601495333E+03  0.93613199482E+02 0.  0.
        -11    1    4    4    0    0 -0.12350331058E+03 -0.69224290495E+02 -0.14905530751E+03  0.20557858550E+03  0.00000000000E+00 0.  1.
         11    1    4    4    0    0 -0.42312580824E+01  0.20177099154E+02 -0.46030515153E+02  0.50436367836E+02  0.00000000000E+00 0. -1.
        -11    1    3    3    0    0  0.67928338065E+02 -0.33380418431E+02 -0.31065528369E+03  0.31974242247E+03  0.00000000000E+00 0.  1.
         11    1    3    3    0    0  0.15171325859E+02  0.38738992911E+02 -0.82556155192E+02  0.92446727687E+02  0.00000000000E+00 0. -1.
         21    1    1    2  503  501  0.17078181597E+02  0.21958093878E+02 -0.14301395172E+03  0.14569424340E+03  0.00000000000E+00 0.  1.
         -1    1    1    2    0  502  0.27556723142E+02  0.21730522983E+02  0.11656711238E+03  0.12173528785E+03  0.00000000000E+00 0.  1.
<scales pt_clust_5="13000.00000" pt_clust_6="13000.00000" pt_clust_7="13000.00000" pt_clust_8="13000.00000" pt_clust_9="27.81766" pt_clust_10="35.20464"></scales>
<clustering>
<clus scale="   27.818">  2  9  1 -1</clus>
<clus scale="   35.205">  1 10  2 -1</clus>
<clus scale="   91.380">  7  8 -1 -1</clus>
<clus scale="   93.613">  5  6 -1 -1</clus>
<clus scale="  139.532">  2  7  1 -1</clus>
<clus scale="   35.205">  1  5  2 -1</clus>
</clustering>
</event>
<event>
10    2  0.3544405E-006  0.9555480E+02  0.7546771E-02  0.1294921E+00
          2   -1    0    0  503    0 -0.00000000000E+00  0.00000000000E+00  0.52598389942E+03  0.52598389942E+03  0.00000000000E+00 0.  1.
         21   -1    0    0  501  502  0.00000000000E+00 -0.00000000000E+00 -0.90616749767E+02  0.90616749767E+02  0.00000000000E+00 0. -1.
         23    2    1    2    0    0  0.28773267037E+02 -0.10155596275E+02  0.31138655874E+03  0.32370573000E+03  0.83022729628E+02 0.  0.
         23    2    1    2    0    0 -0.40086236416E+02 -0.13277318080E+02  0.11026804251E+03  0.14962025443E+03  0.91891162847E+02 0.  0.
        -11    1    4    4    0    0 -0.15638896184E+02  0.31648872598E+02  0.86088908267E+02  0.93045829231E+02  0.00000000000E+00 0. -1.
         11    1    4    4    0    0 -0.24447340231E+02 -0.44926190679E+02  0.24179134247E+02  0.56574425196E+02  0.00000000000E+00 0.  1.
        -11    1    3    3    0    0  0.32380056168E+01 -0.40356971025E+02  0.88284711220E+02  0.97125485975E+02  0.00000000000E+00 0. -1.
         11    1    3    3    0    0  0.25535261420E+02  0.30201374750E+02  0.22310184752E+03  0.22658024402E+03  0.00000000000E+00 0.  1.
         21    1    1    2  503  502 -0.23304475831E+02 -0.24208599564E+02  0.59732557134E+02  0.68535635025E+02  0.00000000000E+00 0. -1.
          2    1    1    2  501    0  0.34617445210E+02  0.47641513919E+02 -0.46020008741E+02  0.74739029736E+02  0.00000000000E+00 0.  1.
<scales pt_clust_5="13000.00000" pt_clust_6="13000.00000" pt_clust_7="13000.00000" pt_clust_8="13000.00000" pt_clust_9="33.60290" pt_clust_10="57.85577"></scales>
<clustering>
<clus scale="   33.603">  1  9  2 -1</clus>
<clus scale="   57.856">  2 10  1 -1</clus>
<clus scale="   83.023">  7  8 -1 -1</clus>
<clus scale="   87.060">  1  7  2 -1</clus>
<clus scale="   91.891">  5  6 -1 -1</clus>
<clus scale="   57.856">  2  5  1 -1</clus>
</clustering>
</event>
<event>
10    2  0.3544405E-006  0.1040806E+03  0.7546771E-02  0.1272706E+00
          3   -1    0    0  503    0 -0.00000000000E+00  0.00000000000E+00  0.40960467848E+03  0.40960467848E+03  0.00000000000E+00 0. -1.
         21   -1    0    0  501  502  0.00000000000E+00 -0.00000000000E+00 -0.12832736043E+03  0.12832736043E+03  0.00000000000E+00 0. -1.
         23    2    1    2    0    0  0.13828604786E+02 -0.51289361402E+02  0.18917415674E+03  0.21684102667E+03  0.91713359787E+02 0.  0.
         23    2    1    2    0    0 -0.30850515783E+02  0.59696959866E+02  0.68853960336E+02  0.13409786421E+03  0.93412461647E+02 0.  0.
        -13    1    4    4    0    0  0.70970699548E+01  0.52935835739E+02 -0.19902672895E+01  0.53446536569E+02  0.00000000000E+00 0.  1.
         13    1    4    4    0    0 -0.37947585738E+02  0.67611241270E+01  0.70844227625E+02  0.80651327643E+02  0.00000000000E+00 0. -1.
        -13    1    3    3    0    0 -0.18307569109E+02  0.18012388041E+02  0.76637258712E+02  0.80826249650E+02  0.00000000000E+00 0.  1.
         13    1    3    3    0    0  0.32136173895E+02 -0.69301749444E+02  0.11253689803E+03  0.13601477701E+03  0.00000000000E+00 0. -1.
         21    1    1    2  503  502 -0.29808491263E+01  0.28842713080E+02  0.97405647710E+02  0.10162995506E+03  0.00000000000E+00 0.  1.
          3    1    1    2  501    0  0.20002760123E+02 -0.37250311544E+02 -0.74156446733E+02  0.85363192974E+02  0.00000000000E+00 0. -1.
<scales pt_clust_5="13000.00000" pt_clust_6="13000.00000" pt_clust_7="13000.00000" pt_clust_8="13000.00000" pt_clust_9="28.99634" pt_clust_10="41.79696"></scales>
<clustering>
<clus scale="   28.996">  1  9  2 -1</clus>
<clus scale="   41.797">  2 10  1 -1</clus>
<clus scale="   91.713">  7  8 -1 -1</clus>
<clus scale="   93.412">  5  6 -1 -1</clus>
<clus scale="  102.558">  1  7  2 -1</clus>
<clus scale="   41.797">  2  5  1 -1</clus>
</clustering>
</event>
<event>
10    2  0.3544405E-006  0.3105024E+03  0.7546771E-02  0.1080121E+00
          2   -1    0    0  503    0 -0.00000000000E+00  0.00000000000E+00  0.66268114721E+03  0.66268114721E+03  0.00000000000E+00 0. -1.
         21   -1    0    0  501  502  0.00000000000E+00 -0.00000000000E+00 -0.27674086871E+03  0.27674086871E+03  0.00000000000E+00 0.  1.
         23    2    1    2    0    0 -0.92032252701E+02 -0.24606554612E+03  0.14285197452E+03  0.31315948991E+03  0.92973065842E+02 0.  0.
         23    2    1    2    0    0  0.78761497332E+02  0.34144920308E+03  0.10921607501E+03  0.37852262136E+03  0.92521846544E+02 0.  0.
        -11    1    4    4    0    0 -0.16472115109E+02  0.20920458195E+02 -0.42010425653E+00  0.26630295433E+02  0.00000000000E+00 0. -1.
         11    1    4    4    0    0  0.95233612441E+02  0.32052874489E+03  0.10963617927E+03  0.35189232592E+03  0.00000000000E+00 0.  1.
        -13    1    3    3    0    0 -0.62697670737E+02 -0.56612564057E+02  0.24895257739E+02  0.88066759807E+02  0.00000000000E+00 0.  1.
         13    1    3    3    0    0 -0.29334581963E+02 -0.18945298207E+03  0.11795671678E+03  0.22509273011E+03  0.00000000000E+00 0. -1.
         21    1    1    2  503  502  0.49923580083E+02 -0.13582521642E+02  0.14819370950E+03  0.15696567866E+03  0.00000000000E+00 0.  1.
          2    1    1    2  501    0 -0.36652824715E+02 -0.81801135320E+02 -0.14321480532E+02  0.90774225988E+02  0.00000000000E+00 0. -1.
<scales pt_clust_5="13000.00000" pt_clust_6="13000.00000" pt_clust_7="13000.00000" pt_clust_8="13000.00000" pt_clust_9="51.73827" pt_clust_10="89.11880"></scales>
<clustering>
<clus scale="   51.738">  1  9  2 -1</clus>
<clus scale="   89.119">  2 10  1 -1</clus>
<clus scale="   92.522">  5  6 -1 -1</clus>
<clus scale="   92.973">  7  8 -1 -1</clus>
<clus scale="  310.368">  2  5  1 -1</clus>
<clus scale="   89.119">  2  5  1 -1</clus>
</clustering>
</event>
<event>
10    2  0.3544405E-006  0.1500801E+03  0.7546771E-02  0.1227187E+00
         21   -1    0    0  503  502  0.00000000000E+00  0.00000000000E+00  0.12781510205E+03  0.12781510205E+03  0.00000000000E+00 0.  1.
         -2   -1    0    0    0  501 -0.00000000000E+00 -0.00000000000E+00 -0.44673665554E+03  0.44673665554E+03  0.00000000000E+00 0.  1.
         23    2    1    2    0    0  0.62758751637E+02  0.54735697797E+02 -0.44800070922E+02  0.11128807837E+03  0.58679915754E+02 0.  0.
         23    2    1    2    0    0  0.82097627851E+02  0.30049410393E+02 -0.22250632817E+03  0.25617567089E+03  0.92053901142E+02 0.  0.
        -13    1    4    4    0    0  0.28786229697E+02 -0.30268380514E+02 -0.11138204883E+03  0.11895706234E+03  0.00000000000E+00 0.  1.
         13    1    4    4    0    0  0.53311398154E+02  0.60317790907E+02 -0.11112427934E+03  0.13721860855E+03  0.00000000000E+00 0. -1.
        -13    1    3    3    0    0 -0.43349691247E-01  0.36467065418E+02 -0.16103121015E+02  0.39864260257E+02  0.00000000000E+00 0. -1.
         13    1    3    3    0    0  0.62802101328E+02  0.18268632379E+02 -0.28696949907E+02  0.71423818115E+02  0.00000000000E+00 0.  1.
         21    1    1    2  503  501 -0.29519069362E+02 -0.75002144147E+02 -0.42130115301E+02  0.90948577218E+02  0.00000000000E+00 0.  1.
         -2    1    1    2    0  502 -0.11533731013E+03 -0.97829640428E+01 -0.94850390948E+01  0.11613943111E+03  0.00000000000E+00 0.  1.
<scales pt_clust_5="13000.00000" pt_clust_6="13000.00000" pt_clust_7="13000.00000" pt_clust_8="13000.00000" pt_clust_9="80.60209" pt_clust_10="118.53324"></scales>
<clustering>
<clus scale="   58.680">  7  8 -1 -1</clus>
<clus scale="   80.602">  1  9  2 -1</clus>
<clus scale="   84.963">  2  7  1 -1</clus>
<clus scale="   92.054">  5  6 -1 -1</clus>
<clus scale="  118.533">  1 10  2 -1</clus>
<clus scale="   80.602">  1  5  2 -1</clus>
</clustering>
</event>
<event>
10    2  0.3544405E-006  0.2088421E+03  0.7546771E-02  0.1142622E+00
          1   -1    0    0  503    0 -0.00000000000E+00  0.00000000000E+00  0.68095739661E+03  0.68095739661E+03  0.00000000000E+00 0. -1.
         21   -1    0    0  501  502  0.00000000000E+00 -0.00000000000E+00 -0.19669117018E+03  0.19669117018E+03  0.00000000000E+00 0. -1.
         23    2    1    2    0    0  0.16920128606E+03 -0.18574729701E+03  0.13656889640E+03  0.30003857795E+03  0.90779685214E+02 0.  0.
         23    2    1    2    0    0 -0.99682693493E+02  0.91457229356E+02  0.18228897095E+02  0.16479795342E+03  0.92330973016E+02 0.  0.
        -11    1    3    3    0    0  0.16210606571E+03 -0.12167917388E+03  0.10426040083E+03  0.22793514226E+03  0.00000000000E+00 0. -1.
         11    1    3    3    0    0  0.70952203476E+01 -0.64068123123E+02  0.32308495566E+02  0.72103435688E+02  0.00000000000E+00 0.  1.
        -13    1    4    4    0    0  0.79594202160E+01  0.46417824741E+02  0.59037493492E+01  0.47463892384E+02  0.00000000000E+00 0.  1.
         13    1    4    4    0    0 -0.10764211371E+03  0.45039404615E+02  0.12325147746E+02  0.11733406103E+03  0.00000000000E+00 0. -1.
         21    1    1    2  503  502 -0.15616456383E+02  0.61837200226E+02  0.34264435803E+03  0.34852958143E+03  0.00000000000E+00 0. -1.
          1    1    1    2  501    0 -0.53902136186E+02  0.32452867424E+02 -0.13175925089E+02  0.64282453993E+02  0.00000000000E+00 0. -1.
<scales pt_clust_5="13000.00000" pt_clust_6="13000.00000" pt_clust_7="13000.00000" pt_clust_8="13000.00000" pt_clust_9="64.61591" pt_clust_10="62.91764"></scales>
<clustering>
<clus scale="   62.918">  2 10  1 -1</clus>
<clus scale="   64.616">  1  9  2 -1</clus>
<clus scale="   90.780">  5  6 -1 -1</clus>
<clus scale="   92.331">  7  8 -1 -1</clus>
<clus scale="  208.161">  1  5  2 -1</clus>
<clus scale="   62.918">  2  5  1 -1</clus>
</clustering>
</event>
<event>
10    2  0.3544405E-006  0.2317864E+03  0.7546771E-02  0.1138185E+00
         -3   -1    0    0    0  501 -0.00000000000E+00  0.00000000000E+00  0.18371075834E+03  0.18371075834E+03  0.00000000000E+00 0.  1.
         21   -1    0    0  503  502  0.00000000000E+00 -0.00000000000E+00 -0.13227105591E+04  0.13227105591E+04  0.00000000000E+00 0.  1.
         23    2    1    2    0    0 -0.87040114208E+02 -0.11141142661E+03 -0.15600020476E+03  0.23032513458E+03  0.93408330845E+02 0.  0.
         23    2    1    2    0    0  0.16400461123E+03 -0.10893059906E+03 -0.45096815390E+03  0.50053692028E+03  0.91659941171E+02 0.  0.
        -13    1    3    3    0    0 -0.32260966964E+02 -0.10970701033E+03 -0.99023239175E+02  0.15126797415E+03  0.00000000000E+00 0. -1.
         13    1    3    3    0    0 -0.54779147244E+02 -0.17044162748E+01 -0.56976965587E+02  0.79057160429E+02  0.00000000000E+00 0.  1.
        -13    1    4    4    0    0  0.32759977428E+02  0.13311531143E+02 -0.49563073899E+02  0.60884409144E+02  0.00000000000E+00 0. -1.
         13    1    4    4    0    0  0.13124463380E+03 -0.12224213020E+03 -0.40140508000E+03  0.43965251114E+03  0.00000000000E+00 0.  1.
         21    1    1    2  503  501 -0.22136409621E+03 -0.38007134195E+01 -0.53513549006E+02  0.22777227321E+03  0.00000000000E+00 0.  1.
         -3    1    1    2    0  502  0.14439959919E+03  0.22414273909E+03 -0.47851789310E+03  0.54778698939E+03  0.00000000000E+00 0.  1.
<scales pt_clust_5="13000.00000" pt_clust_6="13000.00000" pt_clust_7="13000.00000" pt_clust_8="13000.00000" pt_clust_9="231.78641" pt_clust_10="13000.00000"></scales>
<clustering>
<clus scale="   91.660">  7  8 -1 -1</clus>
<clus scale="   93.408">  5  6 -1 -1</clus>
<clus scale="  169.451">  1  5  2 -1</clus>
<clus scale="  216.825">  1  7  2 -1</clus>
<clus scale="  231.786">  1  9  2 -1</clus>
<clus scale="  231.786">  2  5  1 -1</clus>
</clustering>
</event>
<event>
10    2  0.3544405E-006  0.1214029E+03  0.7546771E-02  0.1241103E+00
          1   -1    0    0  503    0 -0.00000000000E+00  0.00000000000E+00  0.19789849031E+03  0.19789849031E+03  0.00000000000E+00 0. -1.
         21   -1    0    0  501  502  0.00000000000E+00 -0.00000000000E+00 -0.35234235564E+03  0.35234235564E+03  0.00000000000E+00 0. -1.
         23    2    1    2    0    0  0.38022372008E+02  0.20047416795E+01 -0.56076293032E+01  0.98971787289E+02  0.91182506055E+02 0.  0.
         23    2    1    2    0    0 -0.10882835640E+03  0.96569115549E+02  0.77608457305E+00  0.17223122070E+03  0.92161737397E+02 0.  0.
        -11    1    4    4    0    0 -0.92070166747E+02  0.74996622640E+02 -0.38105069353E+02  0.12471329249E+03  0.00000000000E+00 0. -1.
         11    1    4    4    0    0 -0.16758189656E+02  0.21572492909E+02  0.38881153926E+02  0.47517928211E+02  0.00000000000E+00 0.  1.
        -13    1    3    3    0    0  0.59703684551E+02 -0.22793023114E+01 -0.29322988811E+02  0.66554961054E+02  0.00000000000E+00 0.  1.
         13    1    3    3    0    0 -0.21681312544E+02  0.42840439909E+01  0.23715359508E+02  0.32416826235E+02  0.00000000000E+00 0. -1.
         21    1    1    2  503  502 -0.20480364450E+02 -0.78743849286E+02  0.21438738489E+02  0.84140707368E+02  0.00000000000E+00 0. -1.
          1    1    1    2  501    0  0.91286348846E+02 -0.19830007943E+02 -0.17105105908E+03  0.19489713060E+03  0.00000000000E+00 0. -1.
<scales pt_clust_5="13000.00000" pt_clust_6="13000.00000" pt_clust_7="13000.00000" pt_clust_8="13000.00000" pt_clust_9="81.36362" pt_clust_10="93.38357"></scales>
<clustering>
<clus scale="   81.364">  1  9  2 -1</clus>
<clus scale="   91.183">  7  8 -1 -1</clus>
<clus scale="   92.162">  5  6 -1 -1</clus>
<clus scale="   93.384">  2 10  1 -1</clus>
<clus scale="  120.661">  1  7  2 -1</clus>
<clus scale="   93.384">  2  5  1 -1</clus>
</clustering>
</event>
<event>
10    2  0.3544405E-006  0.1087561E+03  0.7546771E-02  0.1275142E+00
         21   -1    0    0  501  502  0.00000000000E+00  0.00000000000E+00  0.35264280185E+03  0.35264280185E+03  0.00000000000E+00 0.  1.
          2   -1    0    0  503    0 -0.00000000000E+00 -0.00000000000E+00 -0.24188235832E+03  0.24188235832E+03  0.00000000000E+00 0. -1.
         23    2    1    2    0    0 -0.10857815406E+02 -0.45486116298E+02 -0.57817914892E+02  0.11874918309E+03  0.92582818440E+02 0.  0.
         23    2    1    2    0    0 -0.44039838775E+02  0.40738208151E+02  0.18579607827E+03  0.20547861953E+03  0.64048195747E+02 0.  0.
        -13    1    4    4    0    0 -0.21550548344E+02  0.22727110039E+02  0.16951515133E+03  0.17238426319E+03  0.00000000000E+00 0.  1.
         13    1    4    4    0    0 -0.22489290431E+02  0.18011098112E+02  0.16280926941E+02  0.33094356337E+02  0.00000000000E+00 0. -1.
        -13    1    3    3    0    0 -0.43994281970E+02 -0.53859565390E+02 -0.38514560426E+02  0.79496672854E+02  0.00000000000E+00 0. -1.
         13    1    3    3    0    0  0.33136466564E+02  0.83734490922E+01 -0.19303354466E+02  0.39252510234E+02  0.00000000000E+00 0.  1.
         21    1    1    2  503  502 -0.15835354144E+02 -0.16392224936E+02 -0.13192913520E+03  0.13388338281E+03  0.00000000000E+00 0. -1.
          2    1    1    2  501    0  0.70733008325E+02  0.21140133082E+02  0.11471141535E+03  0.13641397474E+03  0.00000000000E+00 0. -1.
<scales pt_clust_5="13000.00000" pt_clust_6="13000.00000" pt_clust_7="13000.00000" pt_clust_8="13000.00000" pt_clust_9="22.79174" pt_clust_10="71.85498"></scales>
<clustering>
<clus scale="   22.792">  2  9  1 -1</clus>
<clus scale="   64.048">  5  6 -1 -1</clus>
<clus scale="   71.855">  1 10  2 -1</clus>
<clus scale="   85.782">  1  5  2 -1</clus>
<clus scale="   92.583">  7  8 -1 -1</clus>
<clus scale="   71.855">  1  5  2 -1</clus>
</clustering>
</event>
<event>
10    2  0.3544405E-006  0.1103477E+03  0.7546771E-02  0.1260071E+00
         21   -1    0    0  501  502  0.00000000000E+00  0.00000000000E+00  0.44670824493E+02  0.44670824493E+02  0.00000000000E+00 0. -1.
          2   -1    0    0  503    0 -0.00000000000E+00 -0.00000000000E+00 -0.50258574241E+03  0.50258574241E+03  0.00000000000E+00 0. -1.
         23    2    1    2    0    0 -0.32803384502E+02 -0.34159204030E+02 -0.24205205347E+03  0.26396616372E+03  0.94053313301E+02 0.  0.
         23    2    1    2    0    0  0.38196075878E+02  0.63723470094E+02 -0.10097989272E+03  0.15694341221E+03  0.94417556891E+02 0.  0.
        -11    1    4    4    0    0 -0.20187754031E+02  0.24784691728E+02 -0.76006094414E+02  0.82454549571E+02  0.00000000000E+00 0.  1.
         11    1    4    4    0    0  0.58383829909E+02  0.38938778366E+02 -0.24973798305E+02  0.74488862639E+02  0.00000000000E+00 0. -1.
        -13    1    3    3    0    0  0.19993377462E+02  0.18583925185E+02 -0.98003117136E+02  0.10173351653E+03  0.00000000000E+00 0.  1.
         13    1    3    3    0    0 -0.52796761963E+02 -0.52743129215E+02 -0.14404893634E+03  0.16223264719E+03  0.00000000000E+00 0. -1.
         21    1    1    2  503  502  0.18435604373E+02 -0.18928243891E+02 -0.61077818707E+02  0.66548101876E+02  0.00000000000E+00 0.  1.
          2    1    1    2  501    0 -0.23828295750E+02 -0.10636022173E+02 -0.53805153019E+02  0.59798889098E+02  0.00000000000E+00 0. -1.
<scales pt_clust_5="13000.00000" pt_clust_6="13000.00000" pt_clust_7="13000.00000" pt_clust_8="13000.00000" pt_clust_9="25.88139" pt_clust_10="26.09432"></scales>
<clustering>
<clus scale="   26.094">  1 10  2 -1</clus>
<clus scale="   25.881">  2  9  1 -1</clus>
<clus scale="   94.053">  7  8 -1 -1</clus>
<clus scale="   94.418">  5  6 -1 -1</clus>
<clus scale="  110.036">  2  7  1 -1</clus>
<clus scale="   26.094">  1  5  2 -1</clus>
</clustering>
</event>
<event>
10    2  0.3544405E-006  0.1070271E+03  0.7546771E-02  0.1266252E+00
          2   -1    0    0  503    0 -0.00000000000E+00  0.00000000000E+00  0.52578265359E+03  0.52578265359E+03  0.00000000000E+00 0. -1.
         21   -1    0    0  501  502  0.00000000000E+00 -0.00000000000E+00 -0.11740370148E+03  0.11740370148E+03  0.00000000000E+00 0. -1.
         23    2    1    2    0    0  0.53297161945E+02 -0.39437182208E+02  0.39592922167E+03  0.41167934802E+03  0.91236276789E+02 0.  0.
         23    2    1    2    0    0 -0.16170560939E+02 -0.12169826091E+02  0.23705818524E+02  0.96588886203E+02  0.91421307133E+02 0.  0.
        -11    1    4    4    0    0 -0.38203713590E+02  0.12488743602E+02 -0.17429782552E+02  0.43809699481E+02  0.00000000000E+00 0.  1.
         11    1    4    4    0    0  0.22033152651E+02 -0.24658569693E+02  0.41135601077E+02  0.52779186721E+02  0.00000000000E+00 0. -1.
        -11    1    3    3    0    0 -0.13373781762E+02 -0.32078725319E+02  0.61969447032E+02  0.71050088122E+02  0.00000000000E+00 0.  1.
         11    1    3    3    0    0  0.66670943707E+02 -0.73584568890E+01  0.33395977464E+03  0.34062925990E+03  0.00000000000E+00 0. -1.
         21    1    1    2  503  502 -0.30795376093E+01  0.48605780086E+02  0.46802384781E+02  0.67546048225E+02  0.00000000000E+00 0. -1.
          2    1    1    2  501    0 -0.34047063397E+02  0.30012282129E+01 -0.58058472874E+02  0.67372072621E+02  0.00000000000E+00 0. -1.
<scales pt_clust_5="13000.00000" pt_clust_6="13000.00000" pt_clust_7="13000.00000" pt_clust_8="13000.00000" pt_clust_9="50.09118" pt_clust_10="34.17909"></scales>
<clustering>
<clus scale="   34.179">  2 10  1 -1</clus>
<clus scale="   50.091">  2  9  1 -1</clus>
<clus scale="   91.236">  7  8 -1 -1</clus>
<clus scale="   91.421">  5  6 -1 -1</clus>
<clus scale="  106.869">  1  7  2 -1</clus>
<clus scale="   34.179">  2  5  1 -1</clus>
</clustering>
</event>
<event>
10    2  0.3544405E-006  0.1154808E+03  0.7546771E-02  0.1250943E+00
         -1   -1    0    0    0  501 -0.00000000000E+00  0.00000000000E+00  0.37546606697E+03  0.37546606697E+03  0.00000000000E+00 0.  1.
         21   -1    0    0  503  502  0.00000000000E+00 -0.00000000000E+00 -0.14882124273E+03  0.14882124273E+03  0.00000000000E+00 0.  1.
         23    2    1    2    0    0 -0.21175554593E+02  0.47568065807E+02  0.20946507707E+03  0.23434724897E+03  0.91279184884E+02 0.  0.
         23    2    1    2    0    0  0.81655787634E+02 -0.10309330422E+03  0.39534717969E+02  0.16521590674E+03  0.91855347613E+02 0.  0.
        -11    1    4    4    0    0  0.39950430606E+02 -0.10720682921E+03  0.11919972722E+02  0.11502793958E+03  0.00000000000E+00 0.  1.
         11    1    4    4    0    0  0.41705357027E+02  0.41135249839E+01  0.27614745248E+02  0.50187967160E+02  0.00000000000E+00 0. -1.
        -13    1    3    3    0    0  0.25341318751E+02  0.51956805704E+02  0.12767970832E+03  0.14015634132E+03  0.00000000000E+00 0.  1.
         13    1    3    3    0    0 -0.46516873343E+02 -0.43887398975E+01  0.81785368745E+02  0.94190907652E+02  0.00000000000E+00 0. -1.
         21    1    1    2  503  501 -0.22046044536E+02 -0.99686188052E+01  0.25351252519E+02  0.35044078599E+02  0.00000000000E+00 0.  1.
         -1    1    1    2    0  502 -0.38434188505E+02  0.65493857220E+02 -0.47706223312E+02  0.89680075392E+02  0.00000000000E+00 0.  1.
<scales pt_clust_5="13000.00000" pt_clust_6="13000.00000" pt_clust_7="13000.00000" pt_clust_8="13000.00000" pt_clust_9="24.19507" pt_clust_10="76.10803"></scales>
<clustering>
<clus scale="   24.195">  1  9  2 -1</clus>
<clus scale="   76.108">  2 10  1 -1</clus>
<clus scale="   91.279">  7  8 -1 -1</clus>
<clus scale="   91.855">  5  6 -1 -1</clus>
<clus scale="  115.023">  1  7  2 -1</clus>
<clus scale="   76.108">  2  5  1 -1</clus>
</clustering>
</event>
<event>
10    2  0.3544405E-006  0.2257316E+03  0.7546771E-02  0.1130596E+00
          1   -1    0    0  503    0 -0.00000000000E+00  0.00000000000E+00  0.78906360284E+02  0.78906360284E+02  0.00000000000E+00 0. -1.
         21   -1    0    0  501  502  0.00000000000E+00 -0.00000000000E+00 -0.11909201826E+04  0.11909201826E+04  0.00000000000E+00 0. -1.
         23    2    1    2    0    0  0.72670463442E+02 -0.22041856883E+03 -0.39892910697E+03  0.47092181749E+03  0.93581964391E+02 0.  0.
         23    2    1    2    0    0 -0.19269454697E+02  0.18079473489E+03 -0.42952514193E+03  0.47335734339E+03  0.80729665785E+02 0.  0.
        -11    1    3    3    0    0 -0.10311049290E+01 -0.25353755770E+02 -0.59764261023E+01  0.26069019506E+02  0.00000000000E+00 0.  1.
         11    1    3    3    0    0  0.73701568371E+02 -0.19506481306E+03 -0.39295268087E+03  0.44485279798E+03  0.00000000000E+00 0. -1.
        -11    1    4    4    0    0 -0.35967363201E+02  0.76431645243E+02 -0.26198143494E+03  0.27526300126E+03  0.00000000000E+00 0.  1.
         11    1    4    4    0    0  0.16697908505E+02  0.10436308965E+03 -0.16754370699E+03  0.19809434213E+03  0.00000000000E+00 0. -1.
         21    1    1    2  503  502 -0.61729669288E+02 -0.43500120063E+00 -0.29867438091E+02  0.68577001645E+02  0.00000000000E+00 0. -1.
          1    1    1    2  501    0  0.83286605426E+01  0.40058835135E+02 -0.25369213533E+03  0.25697038037E+03  0.00000000000E+00 0. -1.
<scales pt_clust_5="13000.00000" pt_clust_6="13000.00000" pt_clust_7="13000.00000" pt_clust_8="13000.00000" pt_clust_9="61.31431" pt_clust_10="40.91548"></scales>
<clustering>
<clus scale="   40.915">  2 10  1 -1</clus>
<clus scale="   61.314">  1  9  2 -1</clus>
<clus scale="   80.730">  7  8 -1 -1</clus>
<clus scale="   93.582">  5  6 -1 -1</clus>
<clus scale="  220.714">  2  7  1 -1</clus>
<clus scale="   40.915">  2  5  1 -1</clus>
</clustering>
</event>
<event>
10    2  0.3544405E-006  0.1352957E+03  0.7546771E-02  0.1234534E+00
         21   -1    0    0  501  502  0.00000000000E+00  0.00000000000E+00  0.34281131074E+03  0.34281131074E+03  0.00000000000E+00 0. -1.
          2   -1    0    0  503    0 -0.00000000000E+00 -0.00000000000E+00 -0.44822504203E+03  0.44822504203E+03  0.00000000000E+00 0. -1.
         23    2    1    2    0    0  0.79820057026E+02 -0.24701865163E+02 -0.40046447195E+02  0.12796358170E+03  0.88258351802E+02 0.  0.
         23    2    1    2    0    0 -0.25389501989E+02  0.80116898047E+02 -0.24850523120E+02  0.12636911183E+03  0.91039880061E+02 0.  0.
        -13    1    3    3    0    0  0.61040573199E+02 -0.42613586244E+02  0.64419771933E+01  0.74721940414E+02  0.00000000000E+00 0.  1.
         13    1    3    3    0    0  0.18779483826E+02  0.17911721081E+02 -0.46488424388E+02  0.53241641287E+02  0.00000000000E+00 0. -1.
        -13    1    4    4    0    0 -0.56587938457E+02  0.45582087281E+02 -0.31792740010E+02  0.79313931797E+02  0.00000000000E+00 0. -1.
         13    1    4    4    0    0  0.31198436468E+02  0.34534810765E+02  0.69422168895E+01  0.47055180033E+02  0.00000000000E+00 0.  1.
         21    1    1    2  503  502 -0.10367482238E+03  0.26453888793E+02 -0.26875812866E+03  0.28927358806E+03  0.00000000000E+00 0. -1.
          2    1    1    2  501    0  0.49244267345E+02 -0.81868921676E+02  0.22824136768E+03  0.24743007118E+03  0.00000000000E+00 0. -1.
<scales pt_clust_5="13000.00000" pt_clust_6="13000.00000" pt_clust_7="13000.00000" pt_clust_8="13000.00000" pt_clust_9="102.54454" pt_clust_10="95.53805"></scales>
<clustering>
<clus scale="   88.258">  5  6 -1 -1</clus>
<clus scale="   91.040">  7  8 -1 -1</clus>
<clus scale="   95.538">  1 10  2 -1</clus>
<clus scale="   99.667">  1  7  2 -1</clus>
<clus scale="  102.545">  2  9  1 -1</clus>
<clus scale="   95.538">  1  5  2 -1</clus>
</clustering>
</event>
<event>
10    2  0.3544405E-006  0.1130291E+03  0.7546771E-02  0.1255684E+00
         21   -1    0    0  501  502  0.00000000000E+00  0.00000000000E+00  0.91995055206E+02  0.91995055206E+02  0.00000000000E+00 0.  1.
          1   -1    0    0  503    0 -0.00000000000E+00 -0.00000000000E+00 -0.28745792958E+03  0.28745792958E+03  0.00000000000E+00 0. -1.
         23    2    1    2    0    0  0.56451727543E+01 -0.43159065032E+02 -0.56433106941E+02  0.11541539287E+03  0.90782401833E+02 0.  0.
         23    2    1    2    0    0 -0.35277097685E+02  0.82404071347E+02 -0.25211081807E+02  0.13123760270E+03  0.92481377155E+02 0.  0.
        -11    1    4    4    0    0 -0.46407842062E+02  0.21405441338E+02  0.19598063903E+02  0.54735407484E+02  0.00000000000E+00 0.  1.
         11    1    4    4    0    0  0.11130744377E+02  0.60998630009E+02 -0.44809145710E+02  0.76502195215E+02  0.00000000000E+00 0. -1.
        -13    1    3    3    0    0 -0.18270720683E+02  0.20738575891E+02 -0.33516911961E+02  0.43442964352E+02  0.00000000000E+00 0.  1.
         13    1    3    3    0    0  0.23915893438E+02 -0.63897640923E+02 -0.22916194980E+02  0.71972428518E+02  0.00000000000E+00 0. -1.
         21    1    1    2  503  502  0.48685490206E+01 -0.28872457248E+02 -0.96515648909E+02  0.10085926849E+03  0.00000000000E+00 0. -1.
          1    1    1    2  501    0  0.24763375910E+02 -0.10372549068E+02 -0.17303036717E+02  0.31940720722E+02  0.00000000000E+00 0. -1.
<scales pt_clust_5="13000.00000" pt_clust_6="13000.00000" pt_clust_7="13000.00000" pt_clust_8="13000.00000" pt_clust_9="29.65371" pt_clust_10="26.84800"></scales>
<clustering>
<clus scale="   26.848">  1 10  2 -1</clus>
<clus scale="   29.654">  2  9  1 -1</clus>
<clus scale="   90.782">  7  8 -1 -1</clus>
<clus scale="   92.481">  5  6 -1 -1</clus>
<clus scale="  111.643">  2  7  1 -1</clus>
<clus scale="   26.848">  1  5  2 -1</clus>
</clustering>
</event>
<event>
10    2  0.3544405E-006  0.1278634E+03  0.7546771E-02  0.1231203E+00
         21   -1    0    0  501  502  0.00000000000E+00  0.00000000000E+00  0.10525014507E+03  0.10525014507E+03  0.00000000000E+00 0. -1.
          1   -1    0    0  503    0 -0.00000000000E+00 -0.00000000000E+00 -0.40518738411E+03  0.40518738411E+03  0.00000000000E+00 0. -1.
         23    2    1    2    0    0  0.42995759825E+02 -0.13418415793E+03 -0.14428437421E+03  0.22083870884E+03  0.89987394011E+02 0.  0.
         23    2    1    2    0    0 -0.17921788688E+02  0.46938739986E+02 -0.59189263502E+02  0.11732064174E+03  0.87956399667E+02 0.  0.
        -13    1    4    4    0    0  0.33964456845E+02  0.53501036861E+01 -0.15216446696E+02  0.37599842929E+02  0.00000000000E+00 0. -1.
         13    1    4    4    0    0 -0.51886245533E+02  0.41588636299E+02 -0.43972816806E+02  0.79720798808E+02  0.00000000000E+00 0.  1.
        -13    1    3    3    0    0  0.53920899904E+02 -0.36232708602E+02 -0.35438244571E+02  0.74000958084E+02  0.00000000000E+00 0.  1.
         13    1    3    3    0    0 -0.10925140079E+02 -0.97951449323E+02 -0.10884612964E+03  0.14683775076E+03  0.00000000000E+00 0. -1.
         21    1    1    2  503  502  0.53994322728E+01  0.33537510739E+02 -0.10461476520E+03  0.10999167056E+03  0.00000000000E+00 0. -1.
          1    1    1    2  501    0 -0.30473403410E+02  0.53707907201E+02  0.81511638625E+01  0.62286508038E+02  0.00000000000E+00 0. -1.
<scales pt_clust_5="13000.00000" pt_clust_6="13000.00000" pt_clust_7="13000.00000" pt_clust_8="13000.00000" pt_clust_9="33.96938" pt_clust_10="64.18828"></scales>
<clustering>
<clus scale="   33.969">  2  9  1 -1</clus>
<clus scale="   64.188">  1 10  2 -1</clus>
<clus scale="   87.956">  5  6 -1 -1</clus>
<clus scale="   89.987">  7  8 -1 -1</clus>
<clus scale="  126.442">  1  5  2 -1</clus>
<clus scale="   64.188">  1  5  2 -1</clus>
</clustering>
</event>
<event>
10    2  0.3544405E-006  0.1025575E+03  0.7546771E-02  0.1275797E+00
         21   -1    0    0  503  502  0.00000000000E+00  0.00000000000E+00  0.43951678674E+03  0.43951678674E+03  0.00000000000E+00 0. -1.
         -3   -1    0    0    0  501 -0.00000000000E+00 -0.00000000000E+00 -0.76415542194E+02  0.76415542194E+02  0.00000000000E+00 0.  1.
         23    2    1    2    0    0 -0.30162333232E+02  0.66109543748E+02  0.11734143377E+03  0.16592897550E+03  0.92104151427E+02 0.  0.
         23    2    1    2    0    0 -0.21640383177E+02 -0.26355613011E+02  0.11896471467E+03  0.15324898687E+03  0.90386526206E+02 0.  0.
        -11    1    4    4    0    0 -0.34274950473E+02  0.25784012639E+02  0.55690249060E+02  0.70292185753E+02  0.00000000000E+00 0.  1.
         11    1    4    4    0    0  0.12634567296E+02 -0.52139625650E+02  0.63274465613E+02  0.82956801121E+02  0.00000000000E+00 0. -1.
        -13    1    3    3    0    0  0.16840150217E+02  0.46985304322E+02  0.10092998754E+03  0.11259694430E+03  0.00000000000E+00 0. -1.
         13    1    3    3    0    0 -0.47002483449E+02  0.19124239426E+02  0.16411446230E+02  0.53332031195E+02  0.00000000000E+00 0.  1.
         21    1    1    2  503  501  0.26171298068E+02 -0.22127899813E+02 -0.24606121423E+02  0.42190544014E+02  0.00000000000E+00 0.  1.
         -3    1    1    2    0  502  0.25631418340E+02 -0.17626030924E+02  0.15140121752E+03  0.15456382255E+03  0.00000000000E+00 0.  1.
<scales pt_clust_5="13000.00000" pt_clust_6="13000.00000" pt_clust_7="13000.00000" pt_clust_8="13000.00000" pt_clust_9="35.22208" pt_clust_10="31.10702"></scales>
<clustering>
<clus scale="   31.107">  1 10  2 -1</clus>
<clus scale="   35.222">  2  9  1 -1</clus>
<clus scale="   90.387">  5  6 -1 -1</clus>
<clus scale="   92.104">  7  8 -1 -1</clus>
<clus scale="  101.018">  1  5  2 -1</clus>
<clus scale="   31.107">  1  5  2 -1</clus>
</clustering>
</event>
<event>
10    2  0.3544405E-006  0.1268303E+03  0.7546771E-02  0.1232927E+00
          1   -1    0    0  503    0 -0.00000000000E+00  0.00000000000E+00  0.19026660679E+03  0.19026660679E+03  0.00000000000E+00 0. -1.
         21   -1    0    0  501  502  0.00000000000E+00 -0.00000000000E+00 -0.27632115694E+03  0.27632115694E+03  0.00000000000E+00 0. -1.
         23    2    1    2    0    0  0.59628967954E+02 -0.36551988286E+01  0.99020349497E+02  0.15044149591E+03  0.96221825898E+02 0.  0.
         23    2    1    2    0    0 -0.49056330014E+02 -0.24551662487E+02 -0.15480915837E+03  0.19153208424E+03  0.98536065147E+02 0.  0.
        -11    1    4    4    0    0 -0.67672378393E+02 -0.47868934156E+02 -0.11132343954E+03  0.13879443017E+03  0.00000000000E+00 0. -1.
         11    1    4    4    0    0  0.18616048379E+02  0.23317271670E+02 -0.43485718829E+02  0.52737654076E+02  0.00000000000E+00 0.  1.
        -13    1    3    3    0    0  0.20388112357E+02 -0.43564233440E+02  0.75959196645E+02  0.89907269537E+02  0.00000000000E+00 0. -1.
         13    1    3    3    0    0  0.39240855596E+02  0.39909034611E+02  0.23061152851E+02  0.60534226371E+02  0.00000000000E+00 0.  1.
         21    1    1    2  503  502  0.35201425969E+02  0.49440300137E+01  0.29232949329E+02  0.46023354393E+02  0.00000000000E+00 0. -1.
          1    1    1    2  501    0 -0.45774063909E+02  0.23262831302E+02 -0.59498690609E+02  0.78590829179E+02  0.00000000000E+00 0. -1.
<scales pt_clust_5="13000.00000" pt_clust_6="13000.00000" pt_clust_7="13000.00000" pt_clust_8="13000.00000" pt_clust_9="35.54692" pt_clust_10="49.53996"></scales>
<clustering>
<clus scale="   35.547">  1  9  2 -1</clus>
<clus scale="   49.540">  2 10  1 -1</clus>
<clus scale="   96.222">  7  8 -1 -1</clus>
<clus scale="   98.536">  5  6 -1 -1</clus>
<clus scale="  125.041">  1  7  2 -1</clus>
<clus scale="   49.540">  2  5  1 -1</clus>
</clustering>
</event>
<event>
10    2  0.3544405E-006  0.1040687E+03  0.7546771E-02  0.1278691E+00
         21   -1    0    0  501  502  0.00000000000E+00  0.00000000000E+00  0.13606495753E+03  0.13606495753E+03  0.00000000000E+00 0. -1.
          1   -1    0    0  503    0 -0.00000000000E+00 -0.00000000000E+00 -0.38223780639E+03  0.38223780639E+03  0.00000000000E+00 0. -1.
         23    2    1    2    0    0  0.40163185174E+00 -0.15498728328E+02 -0.19038328953E+03  0.21725152758E+03  0.10349906964E+03 0.  0.
         23    2    1    2    0    0 -0.85618316604E+01 -0.33411765572E+02 -0.12052214010E+03  0.15480697132E+03  0.90829296349E+02 0.  0.
        -11    1    3    3    0    0 -0.35546292386E+02 -0.26484642538E+02 -0.32527289706E+02  0.54981813069E+02  0.00000000000E+00 0. -1.
         11    1    3    3    0    0  0.35947924238E+02  0.10985914209E+02 -0.15785599982E+03  0.16226971451E+03  0.00000000000E+00 0.  1.
        -13    1    4    4    0    0 -0.22434411325E+02 -0.11678480889E+02 -0.12594499738E+03  0.12845945700E+03  0.00000000000E+00 0. -1.
         13    1    4    4    0    0  0.13872579665E+02 -0.21733284682E+02  0.54228572838E+01  0.26347514318E+02  0.00000000000E+00 0.  1.
         21    1    1    2  503  502  0.10420605530E+01  0.21144599418E+02 -0.35862607801E+02  0.41645007060E+02  0.00000000000E+00 0. -1.
          1    1    1    2  501    0  0.71181392557E+01  0.27765894482E+02  0.10059518857E+03  0.10459925796E+03  0.00000000000E+00 0. -1.
<scales pt_clust_5="13000.00000" pt_clust_6="13000.00000" pt_clust_7="13000.00000" pt_clust_8="13000.00000" pt_clust_9="21.17026" pt_clust_10="28.78469"></scales>
<clustering>
<clus scale="   21.170">  2  9  1 -1</clus>
<clus scale="   28.785">  1 10  2 -1</clus>
<clus scale="   90.829">  7  8 -1 -1</clus>
<clus scale="   91.478">  1  7  2 -1</clus>
<clus scale="  103.499">  5  6 -1 -1</clus>
<clus scale="   28.785">  1  5  2 -1</clus>
</clustering>
</event>
<event>
10    2  0.3544405E-006  0.1159365E+03  0.7546771E-02  0.1250959E+00
         21   -1    0    0  503  502  0.00000000000E+00  0.00000000000E+00  0.12245407024E+03  0.12245407024E+03  0.00000000000E+00 0. -1.
         -1   -1    0    0    0  501 -0.00000000000E+00 -0.00000000000E+00 -0.26423022942E+03  0.26423022942E+03  0.00000000000E+00 0.  1.
         23    2    1    2    0    0 -0.68726698298E+02  0.20708756080E+02 -0.53358738462E+02  0.12831488268E+03  0.92007295963E+02 0.  0.
         23    2    1    2    0    0  0.74426210457E+02 -0.45927708357E+02  0.19637472521E+02  0.12637844119E+03  0.89091328832E+02 0.  0.
        -11    1    3    3    0    0  0.19995151565E+02 -0.52333447646E+01 -0.23225659197E+02  0.31090597110E+02  0.00000000000E+00 0.  1.
         11    1    3    3    0    0 -0.88721849862E+02  0.25942100844E+02 -0.30133079265E+02  0.97224285573E+02  0.00000000000E+00 0. -1.
        -11    1    4    4    0    0  0.92729082667E+01 -0.50204657038E+02 -0.13987623476E+02  0.52935319273E+02  0.00000000000E+00 0. -1.
         11    1    4    4    0    0  0.65153302190E+02  0.42769486808E+01  0.33625095997E+02  0.73443121918E+02  0.00000000000E+00 0.  1.
         21    1    1    2  503  501  0.32432400636E+02  0.12540684213E+02 -0.60008347377E+02  0.69355108871E+02  0.00000000000E+00 0.  1.
         -1    1    1    2    0  502 -0.38131912794E+02  0.12678268064E+02 -0.48046545861E+02  0.62635866911E+02  0.00000000000E+00 0.  1.
<scales pt_clust_5="13000.00000" pt_clust_6="13000.00000" pt_clust_7="13000.00000" pt_clust_8="13000.00000" pt_clust_9="34.77254" pt_clust_10="33.31681"></scales>
<clustering>
<clus scale="   34.773">  2  9  1 -1</clus>
<clus scale="   33.317">  1 10  2 -1</clus>
<clus scale="   89.091">  7  8 -1 -1</clus>
<clus scale="   92.007">  5  6 -1 -1</clus>
<clus scale="  113.636">  1  7  2 -1</clus>
<clus scale="   33.317">  1  5  2 -1</clus>
</clustering>
</event>
<event>
10    2  0.3544405E-006  0.1106200E+03  0.7546771E-02  0.1260456E+00
          1   -1    0    0  503    0 -0.00000000000E+00  0.00000000000E+00  0.19073858681E+03  0.19073858681E+03  0.00000000000E+00 0. -1.
         21   -1    0    0  501  502  0.00000000000E+00 -0.00000000000E+00 -0.20718296723E+03  0.20718296723E+03  0.00000000000E+00 0. -1.
         23    2    1    2    0    0 -0.65314184772E+02 -0.39016552284E+02  0.66756485683E+02  0.13773562550E+03  0.93415416646E+02 0.  0.
         23    2    1    2    0    0  0.13520578375E+02  0.64285777340E+02  0.14766994430E+02  0.11302424620E+03  0.90779672264E+02 0.  0.
        -11    1    3    3    0    0 -0.86261823990E+02 -0.45266451525E+02  0.46553145859E+02  0.10796920534E+03  0.00000000000E+00 0. -1.
         11    1    3    3    0    0  0.20947639218E+02  0.62498992413E+01  0.20203339824E+02  0.29766420165E+02  0.00000000000E+00 0.  1.
        -11    1    4    4    0    0 -0.28401595932E+02  0.38577034656E+02  0.35531027523E+02  0.59643039587E+02  0.00000000000E+00 0.  1.
         11    1    4    4    0    0  0.41922174306E+02  0.25708742685E+02 -0.20764033093E+02  0.53381206612E+02  0.00000000000E+00 0. -1.
         21    1    1    2  503  502  0.32893075470E+02  0.16483727564E+02  0.23530800352E+01  0.36867393099E+02  0.00000000000E+00 0.  1.
          1    1    1    2  501    0  0.18900530927E+02 -0.41752952620E+02 -0.10032094057E+03  0.11029428924E+03  0.00000000000E+00 0. -1.
<scales pt_clust_5="13000.00000" pt_clust_6="13000.00000" pt_clust_7="13000.00000" pt_clust_8="13000.00000" pt_clust_9="36.79222" pt_clust_10="45.80186"></scales>
<clustering>
<clus scale="   36.792">  1  9  2 -1</clus>
<clus scale="   45.802">  2 10  1 -1</clus>
<clus scale="   90.780">  7  8 -1 -1</clus>
<clus scale="   93.415">  5  6 -1 -1</clus>
<clus scale="  108.403">  2  7  1 -1</clus>
<clus scale="   45.802">  2  5  1 -1</clus>
</clustering>
</event>
<event>
10    2  0.3544405E-006  0.1028532E+03  0.7546771E-02  0.1274774E+00
         -3   -1    0    0    0  501 -0.00000000000E+00  0.00000000000E+00  0.34718196837E+03  0.34718196837E+03  0.00000000000E+00 0.  1.
         21   -1    0    0  503  502  0.00000000000E+00 -0.00000000000E+00 -0.20595224595E+03  0.20595224595E+03  0.00000000000E+00 0.  1.
         23    2    1    2    0    0 -0.18896754424E+02 -0.42793335258E+02  0.19369377834E+03  0.21931930392E+03  0.91625981221E+02 0.  0.
         23    2    1    2    0    0  0.11560055142E+02  0.45939145924E+02  0.72092587139E+02  0.12525653663E+03  0.90817502972E+02 0.  0.
        -11    1    4    4    0    0  0.15164572149E+02 -0.26000569734E+02  0.25704426328E+02  0.39581705469E+02  0.00000000000E+00 0.  1.
         11    1    4    4    0    0 -0.36045170069E+01  0.71939715658E+02  0.46388160811E+02  0.85674831166E+02  0.00000000000E+00 0. -1.
        -13    1    3    3    0    0 -0.30945759389E+02  0.19933770785E+02  0.50185085879E+02  0.62237754511E+02  0.00000000000E+00 0.  1.
         13    1    3    3    0    0  0.12049004965E+02 -0.62727106043E+02  0.14350869246E+03  0.15708154941E+03  0.00000000000E+00 0. -1.
         21    1    1    2  503  501 -0.38834814917E+02  0.20115959440E+02  0.24959182594E+02  0.50356285304E+02  0.00000000000E+00 0.  1.
         -3    1    1    2    0  502  0.46171514199E+02 -0.23261770106E+02 -0.14951582565E+03  0.15820208846E+03  0.00000000000E+00 0.  1.
<scales pt_clust_5="13000.00000" pt_clust_6="13000.00000" pt_clust_7="13000.00000" pt_clust_8="13000.00000" pt_clust_9="43.73551" pt_clust_10="51.08664"></scales>
<clustering>
<clus scale="   43.736">  1  9  2 -1</clus>
<clus scale="   51.087">  2 10  1 -1</clus>
<clus scale="   90.818">  5  6 -1 -1</clus>
<clus scale="   91.626">  7  8 -1 -1</clus>
<clus scale="  102.134">  2  5  1 -1</clus>
<clus scale="   51.087">  2  5  1 -1</clus>
</clustering>
</event>
<event>
10    2  0.3544405E-006  0.1080113E+03  0.7546771E-02  0.1264581E+00
         21   -1    0    0  501  502  0.00000000000E+00  0.00000000000E+00  0.76844048947E+02  0.76844048947E+02  0.00000000000E+00 0.  1.
          1   -1    0    0  503    0 -0.00000000000E+00 -0.00000000000E+00 -0.33238484497E+03  0.33238484497E+03  0.00000000000E+00 0. -1.
         23    2    1    2    0    0 -0.12912881565E+02 -0.82666568477E+02 -0.96094641752E+02  0.15594234314E+03  0.89907342058E+02 0.  0.
         23    2    1    2    0    0  0.30426039083E+02  0.29197220735E+02 -0.74054124904E+02  0.12439384668E+03  0.90617846612E+02 0.  0.
        -11    1    3    3    0    0  0.27720658974E+02 -0.23220434167E+02 -0.37548381826E+00  0.36163026490E+02  0.00000000000E+00 0.  1.
         11    1    3    3    0    0 -0.40633540539E+02 -0.59446134310E+02 -0.95719157933E+02  0.11977931665E+03  0.00000000000E+00 0. -1.
        -13    1    4    4    0    0  0.61660592623E+02  0.16890697844E+02 -0.61027042985E+02  0.88383393982E+02  0.00000000000E+00 0.  1.
         13    1    4    4    0    0 -0.31234553540E+02  0.12306522891E+02 -0.13027081919E+02  0.36010452702E+02  0.00000000000E+00 0. -1.
         21    1    1    2  503  502  0.24997584357E+02  0.21767610123E+02 -0.63283409860E+02  0.71438771250E+02  0.00000000000E+00 0.  1.
          1    1    1    2  501    0 -0.42510741875E+02  0.31701737619E+02 -0.22108619507E+02  0.57453932844E+02  0.00000000000E+00 0. -1.
<scales pt_clust_5="13000.00000" pt_clust_6="13000.00000" pt_clust_7="13000.00000" pt_clust_8="13000.00000" pt_clust_9="33.14677" pt_clust_10="52.20213"></scales>
<clustering>
<clus scale="   33.147">  2  9  1 -1</clus>
<clus scale="   52.202">  1 10  2 -1</clus>
<clus scale="   89.907">  5  6 -1 -1</clus>
<clus scale="   90.618">  7  8 -1 -1</clus>
<clus scale="  107.416">  2  5  1 -1</clus>
<clus scale="   52.202">  1  5  2 -1</clus>
</clustering>
</event>
<event>
10    2  0.3544405E-006  0.9215834E+02  0.7546771E-02  0.1301953E+00
         21   -1    0    0  503  502  0.00000000000E+00  0.00000000000E+00  0.54351027946E+02  0.54351027946E+02  0.00000000000E+00 0. -1.
         -1   -1    0    0    0  501 -0.00000000000E+00 -0.00000000000E+00 -0.31719482405E+03  0.31719482405E+03  0.00000000000E+00 0.  1.
         23    2    1    2    0    0 -0.78440145589E-01  0.54700650098E+01 -0.19499634503E+03  0.21273291662E+03  0.84863369442E+02 0.  0.
         23    2    1    2    0    0 -0.12132779267E+01 -0.16310055845E+02 -0.33204982948E+02  0.99009022608E+02  0.91829873680E+02 0.  0.
        -13    1    3    3    0    0  0.32687394869E+02 -0.13015648804E+02 -0.40160946230E+02  0.53392644616E+02  0.00000000000E+00 0.  1.
         13    1    3    3    0    0 -0.32765835014E+02  0.18485713813E+02 -0.15483539880E+03  0.15934027200E+03  0.00000000000E+00 0. -1.
        -13    1    4    4    0    0  0.29937588415E+02  0.26036296694E+02 -0.21597273393E+02  0.45172891912E+02  0.00000000000E+00 0.  1.
         13    1    4    4    0    0 -0.31150866341E+02 -0.42346352539E+02 -0.11607709555E+02  0.53836130696E+02  0.00000000000E+00 0. -1.
         21    1    1    2  503  501 -0.19819733857E+02  0.15651594292E+02 -0.26670364066E+02  0.36730131683E+02  0.00000000000E+00 0. -1.
         -1    1    1    2    0  502  0.21111451929E+02 -0.48116034567E+01 -0.79721040530E+01  0.23073781082E+02  0.00000000000E+00 0.  1.
<scales pt_clust_5="13000.00000" pt_clust_6="13000.00000" pt_clust_7="13000.00000" pt_clust_8="13000.00000" pt_clust_9="23.17502" pt_clust_10="21.65283"></scales>
<clustering>
<clus scale="   21.653">  1 10  2 -1</clus>
<clus scale="   23.175">  1  9  2 -1</clus>
<clus scale="   84.863">  5  6 -1 -1</clus>
<clus scale="   85.219">  2  5  1 -1</clus>
<clus scale="   91.830">  7  8 -1 -1</clus>
<clus scale="   21.653">  1  5  2 -1</clus>
</clustering>
</event>
<event>
10    2  0.3544405E-006  0.1076193E+03  0.7546771E-02  0.1266884E+00
         -3   -1    0    0    0  501 -0.00000000000E+00  0.00000000000E+00  0.31288014135E+03  0.31288014135E+03  0.00000000000E+00 0.  1.
         21   -1    0    0  503  502  0.00000000000E+00 -0.00000000000E+00 -0.73373091918E+02  0.73373091918E+02  0.00000000000E+00 0.  1.
         23    2    1    2    0    0  0.62765457714E+02 -0.34747418355E+02  0.13540840678E+03  0.17869679417E+03  0.91925088286E+02 0.  0.
         23    2    1    2    0    0 -0.34500455496E+02  0.12775839652E+02  0.65354266085E+02  0.11521296845E+03  0.87460531071E+02 0.  0.
        -11    1    4    4    0    0 -0.19648408236E+02  0.44371459184E+02  0.96577097210E+01  0.49478861076E+02  0.00000000000E+00 0. -1.
         11    1    4    4    0    0 -0.14852047259E+02 -0.31595619532E+02  0.55696556364E+02  0.65734107374E+02  0.00000000000E+00 0.  1.
        -13    1    3    3    0    0  0.75457926011E+01 -0.56457260326E+02  0.72872993286E+02  0.92492347683E+02  0.00000000000E+00 0. -1.
         13    1    3    3    0    0  0.55219665113E+02  0.21709841971E+02  0.62535413496E+02  0.86204446491E+02  0.00000000000E+00 0.  1.
         21    1    1    2  503  501  0.51944277875E+01 -0.20410341559E+02  0.31456663847E+02  0.37856120020E+02  0.00000000000E+00 0. -1.
         -3    1    1    2    0  502 -0.33459430006E+02  0.42381920261E+02  0.72877127166E+01  0.54487350623E+02  0.00000000000E+00 0.  1.
<scales pt_clust_5="13000.00000" pt_clust_6="13000.00000" pt_clust_7="13000.00000" pt_clust_8="13000.00000" pt_clust_9="21.06096" pt_clust_10="51.87072"></scales>
<clustering>
<clus scale="   21.061">  1  9  2 -1</clus>
<clus scale="   51.871">  2 10  1 -1</clus>
<clus scale="   87.461">  5  6 -1 -1</clus>
<clus scale="   91.925">  7  8 -1 -1</clus>
<clus scale="  103.832">  2  5  1 -1</clus>
<clus scale="   51.871">  2  5  1 -1</clus>
</clustering>
</event>
<event>
10    2  0.3544405E-006  0.1610635E+03  0.7546771E-02  0.1187774E+00
         21   -1    0    0  501  502  0.00000000000E+00  0.00000000000E+00  0.24153864144E+03  0.24153864144E+03  0.00000000000E+00 0.  1.
          2   -1    0    0  503    0 -0.00000000000E+00 -0.00000000000E+00 -0.27350414590E+03  0.27350414590E+03  0.00000000000E+00 0. -1.
         23    2    1    2    0    0  0.91947890926E+01  0.11395340634E+03 -0.37878156629E+02  0.15165438746E+03  0.92164936517E+02 0.  0.
         23    2    1    2    0    0 -0.49349570804E+02 -0.13843953263E+03  0.90217936974E+02  0.19473856965E+03  0.90459659646E+02 0.  0.
        -11    1    3    3    0    0  0.40466958285E+02  0.99104050109E+02 -0.10582915704E+02  0.10756944532E+03  0.00000000000E+00 0.  1.
         11    1    3    3    0    0 -0.31272169192E+02  0.14849356228E+02 -0.27295240925E+02  0.44084942140E+02  0.00000000000E+00 0. -1.
        -13    1    4    4    0    0  0.98165631241E+01 -0.88744771973E+02  0.22695653141E+02  0.92125415253E+02  0.00000000000E+00 0.  1.
         13    1    4    4    0    0 -0.59166133928E+02 -0.49694760658E+02  0.67522283833E+02  0.10261315439E+03  0.00000000000E+00 0. -1.
         21    1    1    2  503  502  0.17000362076E+02  0.22797622743E+02 -0.12151129173E+03  0.12479478327E+03  0.00000000000E+00 0. -1.
          2    1    1    2  501    0  0.23154419636E+02  0.16885035511E+01  0.37206006926E+02  0.43855046964E+02  0.00000000000E+00 0. -1.
<scales pt_clust_5="13000.00000" pt_clust_6="13000.00000" pt_clust_7="13000.00000" pt_clust_8="13000.00000" pt_clust_9="28.56289" pt_clust_10="23.21590"></scales>
<clustering>
<clus scale="   23.216">  1 10  2 -1</clus>
<clus scale="   28.563">  2  9  1 -1</clus>
<clus scale="   90.460">  7  8 -1 -1</clus>
<clus scale="   92.165">  5  6 -1 -1</clus>
<clus scale="  160.094">  1  7  2 -1</clus>
<clus scale="   23.216">  1  5  2 -1</clus>
</clustering>
</event>
<event>
10    2  0.3544405E-006  0.9804272E+02  0.7546771E-02  0.1285450E+00
         -1   -1    0    0    0  501 -0.00000000000E+00  0.00000000000E+00  0.43663128949E+03  0.43663128949E+03  0.00000000000E+00 0.  1.
         21   -1    0    0  503  502  0.00000000000E+00 -0.00000000000E+00 -0.35157903314E+02  0.35157903314E+02  0.00000000000E+00 0.  1.
         23    2    1    2    0    0  0.17620702044E+02  0.24501780335E+02  0.15657108112E+03  0.18263120477E+03  0.89043961799E+02 0.  0.
         23    2    1    2    0    0 -0.20679549585E+02 -0.38387216528E+02  0.16494829521E+03  0.19336079623E+03  0.90990303114E+02 0.  0.
        -11    1    3    3    0    0  0.50170459110E+02  0.30312774453E+02  0.79556417381E+02  0.98818838330E+02  0.00000000000E+00 0.  1.
         11    1    3    3    0    0 -0.32549757066E+02 -0.58109941182E+01  0.77014663734E+02  0.83812366437E+02  0.00000000000E+00 0. -1.
        -13    1    4    4    0    0  0.32751795342E+02 -0.82351944778E+00  0.35119117321E+02  0.48028227989E+02  0.00000000000E+00 0. -1.
         13    1    4    4    0    0 -0.53431344927E+02 -0.37563697080E+02  0.12982917789E+03  0.14533256824E+03  0.00000000000E+00 0.  1.
         21    1    1    2  503  501  0.17295881254E+02 -0.12921443222E+02  0.41763351790E+02  0.47013708172E+02  0.00000000000E+00 0.  1.
         -1    1    1    2    0  502 -0.14237033712E+02  0.26806879415E+02  0.38190658057E+02  0.48783483637E+02  0.00000000000E+00 0.  1.
<scales pt_clust_5="13000.00000" pt_clust_6="13000.00000" pt_clust_7="13000.00000" pt_clust_8="13000.00000" pt_clust_9="21.58961" pt_clust_10="28.20683"></scales>
<clustering>
<clus scale="   21.590">  1  9  2 -1</clus>
<clus scale="   28.207">  2 10  1 -1</clus>
<clus scale="   89.044">  5  6 -1 -1</clus>
<clus scale="   90.990">  7  8 -1 -1</clus>
<clus scale="   96.239">  1  5  2 -1</clus>
<clus scale="   28.207">  2  5  1 -1</clus>
</clustering>
</event>
<event>
10    2  0.3544405E-006  0.9467307E+02  0.7546771E-02  0.1292530E+00
         21   -1    0    0  503  502  0.00000000000E+00  0.00000000000E+00  0.20654010611E+03  0.20654010611E+03  0.00000000000E+00 0.  1.
         -1   -1    0    0    0  501 -0.00000000000E+00 -0.00000000000E+00 -0.11134258219E+03  0.11134258219E+03  0.00000000000E+00 0.  1.
         23    2    1    2    0    0  0.16884138112E+02 -0.19937762255E+02  0.18534423395E+02  0.96523073112E+02  0.91052678757E+02 0.  0.
         23    2    1    2    0    0 -0.10700025729E+02  0.16801172615E+02  0.54818798552E+02  0.10907008299E+03  0.92165136450E+02 0.  0.
        -11    1    3    3    0    0  0.54323413008E+02 -0.60704103341E+01  0.81123911585E+01  0.55260238624E+02  0.00000000000E+00 0. -1.
         11    1    3    3    0    0 -0.37439274896E+02 -0.13867351921E+02  0.10422032237E+02  0.41262834488E+02  0.00000000000E+00 0.  1.
        -11    1    4    4    0    0  0.17459089728E+02  0.10700734469E+02 -0.20166136088E+02  0.28740190971E+02  0.00000000000E+00 0.  1.
         11    1    4    4    0    0 -0.28159115457E+02  0.61004381458E+01  0.74984934640E+02  0.80329892019E+02  0.00000000000E+00 0. -1.
         21    1    1    2  503  501  0.68766515267E+01  0.20459721962E+02 -0.40710977422E+02  0.46078978306E+02  0.00000000000E+00 0.  1.
         -1    1    1    2    0  502 -0.13060763910E+02 -0.17323132322E+02  0.62555279397E+02  0.66210553900E+02  0.00000000000E+00 0.  1.
<scales pt_clust_5="13000.00000" pt_clust_6="13000.00000" pt_clust_7="13000.00000" pt_clust_8="13000.00000" pt_clust_9="21.58445" pt_clust_10="21.14506"></scales>
<clustering>
<clus scale="   21.584">  2  9  1 -1</clus>
<clus scale="   21.145">  1 10  2 -1</clus>
<clus scale="   91.053">  5  6 -1 -1</clus>
<clus scale="   92.165">  7  8 -1 -1</clus>
<clus scale="   93.590">  2  5  1 -1</clus>
<clus scale="   21.145">  1  5  2 -1</clus>
</clustering>
</event>
<event>
10    2  0.3544405E-006  0.9513920E+02  0.7546771E-02  0.1293589E+00
         21   -1    0    0  501  502  0.00000000000E+00  0.00000000000E+00  0.21277613733E+03  0.21277613733E+03  0.00000000000E+00 0.  1.
          1   -1    0    0  503    0 -0.00000000000E+00 -0.00000000000E+00 -0.17772166759E+03  0.17772166759E+03  0.00000000000E+00 0. -1.
         23    2    1    2    0    0 -0.13018760148E+02 -0.15529429407E+02 -0.76870333091E+02  0.12104440734E+03  0.91280058855E+02 0.  0.
         23    2    1    2    0    0  0.30720964030E+02  0.22742704805E+02 -0.23975967787E+02  0.97428461380E+02  0.86350737129E+02 0.  0.
        -13    1    4    4    0    0  0.33595783172E+02  0.51986327473E+02 -0.27692996571E+02  0.67809711326E+02  0.00000000000E+00 0.  1.
         13    1    4    4    0    0 -0.28748191413E+01 -0.29243622667E+02  0.37170287835E+01  0.29618750055E+02  0.00000000000E+00 0. -1.
        -13    1    3    3    0    0 -0.41147961023E+02 -0.29955423421E+02 -0.17570124409E+02  0.53844139518E+02  0.00000000000E+00 0.  1.
         13    1    3    3    0    0  0.28129200876E+02  0.14425994015E+02 -0.59300208681E+02  0.67200267818E+02  0.00000000000E+00 0. -1.
         21    1    1    2  503  502  0.23905198178E+02 -0.23109196006E+02  0.48361760256E+01  0.33598839839E+02  0.00000000000E+00 0. -1.
          1    1    1    2  501    0 -0.41607402061E+02  0.15895920608E+02  0.13106459460E+03  0.13842609637E+03  0.00000000000E+00 0. -1.
<scales pt_clust_5="13000.00000" pt_clust_6="13000.00000" pt_clust_7="13000.00000" pt_clust_8="13000.00000" pt_clust_9="33.24896" pt_clust_10="24.96659"></scales>
<clustering>
<clus scale="   33.249">  1  9  2 -1</clus>
<clus scale="   24.967">  1 10  2 -1</clus>
<clus scale="   86.351">  5  6 -1 -1</clus>
<clus scale="   90.421">  1  5  2 -1</clus>
<clus scale="   91.280">  7  8 -1 -1</clus>
<clus scale="   33.249">  1  5  2 -1</clus>
</clustering>
</event>
<event>
10    2  0.3544405E-006  0.9997868E+02  0.7546771E-02  0.1282032E+00
         -3   -1    0    0    0  501 -0.00000000000E+00  0.00000000000E+00  0.36373650870E+03  0.36373650870E+03  0.00000000000E+00 0.  1.
         21   -1    0    0  503  502  0.00000000000E+00 -0.00000000000E+00 -0.17817372042E+03  0.17817372042E+03  0.00000000000E+00 0. -1.
         23    2    1    2    0    0  0.51200460292E+02 -0.18351285699E+01  0.24382616899E+03  0.26449579999E+03  0.88780474754E+02 0.  0.
         23    2    1    2    0    0  0.52062537616E+01  0.35894884962E+02  0.46780606113E+02  0.10958097807E+03  0.92217231589E+02 0.  0.
        -13    1    3    3    0    0  0.45814946336E+02  0.39698153087E+02  0.14382106716E+03  0.15607514864E+03  0.00000000000E+00 0. -1.
         13    1    3    3    0    0  0.53855139556E+01 -0.41533281657E+02  0.10000510184E+03  0.10842065135E+03  0.00000000000E+00 0.  1.
        -13    1    4    4    0    0  0.40697974043E+02  0.46692762765E+02  0.31033481826E+02  0.69279262266E+02  0.00000000000E+00 0. -1.
         13    1    4    4    0    0 -0.35491720281E+02 -0.10797877802E+02  0.15747124287E+02  0.40301715806E+02  0.00000000000E+00 0.  1.
         21    1    1    2  503  501 -0.37651873597E+02  0.11588688593E+02  0.11692771432E+02  0.41093578482E+02  0.00000000000E+00 0.  1.
         -3    1    1    2    0  502 -0.18754840457E+02 -0.45648444986E+02 -0.11673675826E+03  0.12673987257E+03  0.00000000000E+00 0.  1.
<scales pt_clust_5="13000.00000" pt_clust_6="13000.00000" pt_clust_7="13000.00000" pt_clust_8="13000.00000" pt_clust_9="39.39494" pt_clust_10="59.66616"></scales>
<clustering>
<clus scale="   39.395">  2  9  1 -1</clus>
<clus scale="   59.666">  2 10  1 -1</clus>
<clus scale="   88.780">  5  6 -1 -1</clus>
<clus scale="   92.217">  7  8 -1 -1</clus>
<clus scale="   96.818">  1  5  2 -1</clus>
<clus scale="   39.395">  2  5  1 -1</clus>
</clustering>
</event>
<event>
10    2  0.3544405E-006  0.1258728E+03  0.7546771E-02  0.1234712E+00
         -1   -1    0    0    0  501 -0.00000000000E+00  0.00000000000E+00  0.38975840865E+03  0.38975840865E+03  0.00000000000E+00 0.  1.
         21   -1    0    0  503  502  0.00000000000E+00 -0.00000000000E+00 -0.32382967028E+03  0.32382967028E+03  0.00000000000E+00 0.  1.
         23    2    1    2    0    0 -0.51542109396E+02  0.13177514789E+03  0.20078017780E+03  0.26082368123E+03  0.87721344337E+02 0.  0.
         23    2    1    2    0    0 -0.11429397210E+02 -0.15907916737E+02 -0.11805557928E+03  0.15050758684E+03  0.91278261170E+02 0.  0.
        -11    1    4    4    0    0  0.98832405439E+01 -0.41229008913E+02 -0.19733447597E+02  0.46764501212E+02  0.00000000000E+00 0. -1.
         11    1    4    4    0    0 -0.21312637754E+02  0.25321092176E+02 -0.98322131686E+02  0.10374308563E+03  0.00000000000E+00 0.  1.
        -13    1    3    3    0    0 -0.59258868220E+02  0.90111017658E+02  0.84335164150E+02  0.13690883419E+03  0.00000000000E+00 0.  1.
         13    1    3    3    0    0  0.77167588239E+01  0.41664130231E+02  0.11644501365E+03  0.12391484704E+03  0.00000000000E+00 0. -1.
         21    1    1    2  503  501  0.30536766733E+02 -0.39315607537E+02  0.12685970411E+03  0.13627764176E+03  0.00000000000E+00 0. -1.
         -1    1    1    2    0  502  0.32434739874E+02 -0.76551623616E+02 -0.14365556426E+03  0.16597916909E+03  0.00000000000E+00 0.  1.
<scales pt_clust_5="13000.00000" pt_clust_6="13000.00000" pt_clust_7="13000.00000" pt_clust_8="13000.00000" pt_clust_9="49.78163" pt_clust_10="85.22121"></scales>
<clustering>
<clus scale="   49.782">  1  9  2 -1</clus>
<clus scale="   85.221">  2 10  1 -1</clus>
<clus scale="   87.721">  7  8 -1 -1</clus>
<clus scale="   91.278">  5  6 -1 -1</clus>
<clus scale="  123.318">  1  7  2 -1</clus>
<clus scale="   85.221">  2  5  1 -1</clus>
</clustering>
</event>
<event>
10    2  0.3544405E-006  0.1013404E+03  0.7546771E-02  0.1277646E+00
         21   -1    0    0  501  502  0.00000000000E+00  0.00000000000E+00  0.39773787984E+03  0.39773787984E+03  0.00000000000E+00 0.  1.
          2   -1    0    0  503    0 -0.00000000000E+00 -0.00000000000E+00 -0.10398636599E+03  0.10398636599E+03  0.00000000000E+00 0. -1.
         23    2    1    2    0    0 -0.38827108071E+02 -0.50021279139E+02  0.16899131066E+02  0.11175189316E+03  0.90516475324E+02 0.  0.
         23    2    1    2    0    0 -0.35488983551E+02  0.50371163673E+02  0.19266947610E+03  0.22173808700E+03  0.90826924001E+02 0.  0.
        -11    1    3    3    0    0  0.20029935341E+02  0.95440354880E+01 -0.92306577377E+01  0.24031062512E+02  0.00000000000E+00 0.  1.
         11    1    3    3    0    0 -0.58857043412E+02 -0.59565314627E+02  0.26129788803E+02  0.87720830643E+02  0.00000000000E+00 0. -1.
        -13    1    4    4    0    0 -0.51305389091E+02  0.67703447122E+02  0.13530893990E+03  0.15976391620E+03  0.00000000000E+00 0.  1.
         13    1    4    4    0    0  0.15816405540E+02 -0.17332283449E+02  0.57360536197E+02  0.61974170802E+02  0.00000000000E+00 0. -1.
         21    1    1    2  503  502 -0.62613604756E+01  0.29108363227E+02 -0.18014330231E+02  0.34799677275E+02  0.00000000000E+00 0.  1.
          2    1    1    2  501    0  0.80577452098E+02 -0.29458247761E+02  0.10219723692E+03  0.13343458840E+03  0.00000000000E+00 0. -1.
<scales pt_clust_5="13000.00000" pt_clust_6="13000.00000" pt_clust_7="13000.00000" pt_clust_8="13000.00000" pt_clust_9="29.77417" pt_clust_10="82.75285"></scales>
<clustering>
<clus scale="   29.774">  2  9  1 -1</clus>
<clus scale="   82.753">  1 10  2 -1</clus>
<clus scale="   90.516">  5  6 -1 -1</clus>
<clus scale="   90.827">  7  8 -1 -1</clus>
<clus scale="  101.062">  2  5  1 -1</clus>
<clus scale="   82.753">  1  5  2 -1</clus>
</clustering>
</event>
<event>
10    2  0.3544405E-006  0.1008624E+03  0.7546771E-02  0.1278569E+00
          2   -1    0    0  503    0 -0.00000000000E+00  0.00000000000E+00  0.38238446211E+03  0.38238446211E+03  0.00000000000E+00 0. -1.
         21   -1    0    0  501  502  0.00000000000E+00 -0.00000000000E+00 -0.56312612157E+02  0.56312612157E+02  0.00000000000E+00 0.  1.
         23    2    1    2    0    0 -0.20113982630E+02 -0.32330512928E+02  0.14949141992E+03  0.17913039339E+03  0.91050419232E+02 0.  0.
         23    2    1    2    0    0  0.44502352624E+02  0.28949842496E+02  0.10395069642E+03  0.14813454601E+03  0.91211532514E+02 0.  0.
        -13    1    4    4    0    0 -0.27614282338E+02  0.67673699570E+01  0.17486042730E+02  0.33378250037E+02  0.00000000000E+00 0. -1.
         13    1    4    4    0    0  0.72116634961E+02  0.22182472539E+02  0.86464653694E+02  0.11475629597E+03  0.00000000000E+00 0.  1.
        -13    1    3    3    0    0  0.27230468831E+02  0.12701650783E+02  0.70370958718E+02  0.76517332652E+02  0.00000000000E+00 0.  1.
         13    1    3    3    0    0 -0.47344451461E+02 -0.45032163711E+02  0.79120461198E+02  0.10261306073E+03  0.00000000000E+00 0. -1.
         21    1    1    2  503  502  0.28200466280E+02 -0.84375610941E+01  0.17087989778E+02  0.34036129778E+02  0.00000000000E+00 0.  1.
          2    1    1    2  501    0 -0.52588836274E+02  0.11818231526E+02  0.55541743836E+02  0.77396005099E+02  0.00000000000E+00 0. -1.
<scales pt_clust_5="13000.00000" pt_clust_6="13000.00000" pt_clust_7="13000.00000" pt_clust_8="13000.00000" pt_clust_9="29.43567" pt_clust_10="47.19546"></scales>
<clustering>
<clus scale="   29.436">  2  9  1 -1</clus>
<clus scale="   47.195">  2 10  1 -1</clus>
<clus scale="   91.050">  7  8 -1 -1</clus>
<clus scale="   91.212">  5  6 -1 -1</clus>
<clus scale="  100.717">  1  7  2 -1</clus>
<clus scale="   29.436">  2  5  1 -1</clus>
</clustering>
</event>
<event>
10    2  0.3544405E-006  0.1399163E+03  0.7546771E-02  0.1213566E+00
          4   -1    0    0  503    0 -0.00000000000E+00  0.00000000000E+00  0.47966470393E+03  0.47966470393E+03  0.00000000000E+00 0. -1.
         21   -1    0    0  501  502  0.00000000000E+00 -0.00000000000E+00 -0.10778801562E+03  0.10778801562E+03  0.00000000000E+00 0.  1.
         23    2    1    2    0    0 -0.79649721252E+02  0.10431330211E+02  0.20868103409E+03  0.24130295778E+03  0.90699794368E+02 0.  0.
         23    2    1    2    0    0  0.12306398090E+03  0.41185500260E+02  0.92558052573E+02  0.18367821258E+03  0.91267211271E+02 0.  0.
        -11    1    4    4    0    0  0.58156011534E+02  0.24243426670E+02  0.97856951420E+02  0.11638663306E+03  0.00000000000E+00 0. -1.
         11    1    4    4    0    0  0.64907969368E+02  0.16942073590E+02 -0.52988988469E+01  0.67291579517E+02  0.00000000000E+00 0.  1.
        -13    1    3    3    0    0 -0.16866130143E+02  0.45799585390E+02  0.92572292913E+02  0.10465035969E+03  0.00000000000E+00 0.  1.
         13    1    3    3    0    0 -0.62783591109E+02 -0.35368255179E+02  0.11610874118E+03  0.13665259809E+03  0.00000000000E+00 0. -1.
         21    1    1    2  503  502 -0.41004450050E+02 -0.38906922891E+01  0.98773193295E+02  0.10701703661E+03  0.00000000000E+00 0.  1.
          4    1    1    2  501    0 -0.24098095989E+01 -0.47726138181E+02 -0.28135591646E+02  0.55454512578E+02  0.00000000000E+00 0. -1.
<scales pt_clust_5="13000.00000" pt_clust_6="13000.00000" pt_clust_7="13000.00000" pt_clust_8="13000.00000" pt_clust_9="41.18862" pt_clust_10="48.02551"></scales>
<clustering>
<clus scale="   41.189">  1  9  2 -1</clus>
<clus scale="   48.026">  2 10  1 -1</clus>
<clus scale="   90.700">  7  8 -1 -1</clus>
<clus scale="   91.267">  5  6 -1 -1</clus>
<clus scale="  139.547">  1  7  2 -1</clus>
<clus scale="   48.026">  2  5  1 -1</clus>
</clustering>
</event>
<event>
10    2  0.3544405E-006  0.1047151E+03  0.7546771E-02  0.1272447E+00
         21   -1    0    0  503  502  0.00000000000E+00  0.00000000000E+00  0.38848800019E+03  0.38848800019E+03  0.00000000000E+00 0. -1.
         -2   -1    0    0    0  501 -0.00000000000E+00 -0.00000000000E+00 -0.87014968388E+02  0.87014968388E+02  0.00000000000E+00 0.  1.
         23    2    1    2    0    0 -0.70054155600E+01 -0.70551391746E+01  0.79547406707E+02  0.11692731226E+03  0.85119654627E+02 0.  0.
         23    2    1    2    0    0  0.11334246775E+03  0.31809377070E+02  0.15989193700E+03  0.21769467371E+03  0.89259105860E+02 0.  0.
        -11    1    3    3    0    0 -0.12574731116E+02 -0.44241997704E+02  0.56381937608E+02  0.72762635411E+02  0.00000000000E+00 0.  1.
         11    1    3    3    0    0  0.55693155563E+01  0.37186858529E+02  0.23165469099E+02  0.44164676854E+02  0.00000000000E+00 0. -1.
        -11    1    4    4    0    0  0.66039801081E+02  0.21656590416E+02  0.24129744619E+02  0.73569747931E+02  0.00000000000E+00 0.  1.
         11    1    4    4    0    0  0.47302666666E+02  0.10152786654E+02  0.13576219238E+03  0.14412492577E+03  0.00000000000E+00 0. -1.
         21    1    1    2  503  501 -0.50515912221E+02 -0.19446328351E+02 -0.39695304110E+01  0.54274987292E+02  0.00000000000E+00 0.  1.
         -2    1    1    2    0  502 -0.55821139966E+02 -0.53079095450E+01  0.66003218506E+02  0.86605995312E+02  0.00000000000E+00 0.  1.
<scales pt_clust_5="13000.00000" pt_clust_6="13000.00000" pt_clust_7="13000.00000" pt_clust_8="13000.00000" pt_clust_9="54.12963" pt_clust_10="65.40034"></scales>
<clustering>
<clus scale="   54.130">  2  9  1 -1</clus>
<clus scale="   65.400">  1 10  2 -1</clus>
<clus scale="   85.120">  5  6 -1 -1</clus>
<clus scale="   89.259">  7  8 -1 -1</clus>
<clus scale="  101.210">  2  5  1 -1</clus>
<clus scale="   65.400">  1  5  2 -1</clus>
</clustering>
</event>
<event>
10    2  0.3544405E-006  0.1028639E+03  0.7546771E-02  0.1277267E+00
          4   -1    0    0  503    0 -0.00000000000E+00  0.00000000000E+00  0.22856148634E+03  0.22856148634E+03  0.00000000000E+00 0. -1.
         21   -1    0    0  501  502  0.00000000000E+00 -0.00000000000E+00 -0.13490238547E+03  0.13490238547E+03  0.00000000000E+00 0.  1.
         23    2    1    2    0    0  0.30648507541E+01  0.26606776263E+02  0.51954343108E+02  0.10771629091E+03  0.90477796755E+02 0.  0.
         23    2    1    2    0    0 -0.22748235210E+02 -0.30549399942E+02 -0.12885159767E+02  0.10444582520E+03  0.96395824686E+02 0.  0.
        -13    1    4    4    0    0 -0.25220607025E+02  0.26040139725E+02 -0.28016773025E+02  0.45816017574E+02  0.00000000000E+00 0.  1.
         13    1    4    4    0    0  0.24723718150E+01 -0.56589539667E+02  0.15131613258E+02  0.58629807623E+02  0.00000000000E+00 0. -1.
        -13    1    3    3    0    0 -0.22184750985E+02 -0.27091399612E+02  0.19787751555E+02  0.40220171815E+02  0.00000000000E+00 0. -1.
         13    1    3    3    0    0  0.25249601740E+02  0.53698175875E+02  0.32166591552E+02  0.67496119091E+02  0.00000000000E+00 0.  1.
         21    1    1    2  503  502  0.80391506351E+01  0.21136403863E+02  0.99386221336E+02  0.10192642691E+03  0.00000000000E+00 0.  1.
          4    1    1    2  501    0  0.11644233821E+02 -0.17193780184E+02 -0.44796303808E+02  0.49375328790E+02  0.00000000000E+00 0. -1.
<scales pt_clust_5="13000.00000" pt_clust_6="13000.00000" pt_clust_7="13000.00000" pt_clust_8="13000.00000" pt_clust_9="22.44240" pt_clust_10="20.76570"></scales>
<clustering>
<clus scale="   20.766">  2 10  1 -1</clus>
<clus scale="   22.442">  1  9  2 -1</clus>
<clus scale="   90.478">  7  8 -1 -1</clus>
<clus scale="   96.396">  5  6 -1 -1</clus>
<clus scale="   97.340">  1  7  2 -1</clus>
<clus scale="   20.766">  2  5  1 -1</clus>
</clustering>
</event>
<event>
10    2  0.3544405E-006  0.1087252E+03  0.7546771E-02  0.1263443E+00
         21   -1    0    0  501  502  0.00000000000E+00  0.00000000000E+00  0.12634067700E+03  0.12634067700E+03  0.00000000000E+00 0.  1.
          2   -1    0    0  503    0 -0.00000000000E+00 -0.00000000000E+00 -0.47291037848E+03  0.47291037848E+03  0.00000000000E+00 0. -1.
         23    2    1    2    0    0 -0.24979225775E+01 -0.10651304834E+03 -0.27844188414E+03  0.31156532912E+03  0.90508576282E+02 0.  0.
         23    2    1    2    0    0 -0.44057368656E+02  0.20047907376E+02  0.47034579670E+02  0.11390057717E+03  0.91750310473E+02 0.  0.
        -11    1    3    3    0    0  0.14839002142E+02 -0.51697929834E+02 -0.42019828695E+02  0.68253482968E+02  0.00000000000E+00 0.  1.
         11    1    3    3    0    0 -0.17336924720E+02 -0.54815118502E+02 -0.23642205545E+03  0.24331184615E+03  0.00000000000E+00 0. -1.
        -13    1    4    4    0    0 -0.14996466196E+02 -0.29393166628E+02 -0.84939374010E+01  0.34073438561E+02  0.00000000000E+00 0.  1.
         13    1    4    4    0    0 -0.29060902461E+02  0.49441074004E+02  0.55528517071E+02  0.79827138609E+02  0.00000000000E+00 0. -1.
         21    1    1    2  503  502  0.46469924376E+02  0.65485859009E+02 -0.12657916544E+03  0.14990042270E+03  0.00000000000E+00 0. -1.
          2    1    1    2  501    0  0.85366858328E-01  0.20979281950E+02  0.11416768424E+02  0.23884726498E+02  0.00000000000E+00 0. -1.
<scales pt_clust_5="13000.00000" pt_clust_6="13000.00000" pt_clust_7="13000.00000" pt_clust_8="13000.00000" pt_clust_9="82.14956" pt_clust_10="20.97946"></scales>
<clustering>
<clus scale="   20.979">  1 10  2 -1</clus>
<clus scale="   82.150">  2  9  1 -1</clus>
<clus scale="   90.509">  5  6 -1 -1</clus>
<clus scale="   91.750">  7  8 -1 -1</clus>
<clus scale="  107.679">  2  5  1 -1</clus>
<clus scale="   20.979">  1  5  2 -1</clus>
</clustering>
</event>
<event>
10    2  0.3544405E-006  0.1535584E+03  0.7546771E-02  0.1209611E+00
          1   -1    0    0  503    0 -0.00000000000E+00  0.00000000000E+00  0.30943611108E+03  0.30943611108E+03  0.00000000000E+00 0. -1.
         21   -1    0    0  501  502  0.00000000000E+00 -0.00000000000E+00 -0.65986161020E+03  0.65986161020E+03  0.00000000000E+00 0. -1.
         23    2    1    2    0    0  0.71120546671E+02  0.86726359591E+01 -0.13428111504E+03  0.17744952757E+03  0.91233602399E+02 0.  0.
         23    2    1    2    0    0  0.26568641205E+02 -0.86318057037E+02  0.24799479490E+03  0.27941416881E+03  0.91728729236E+02 0.  0.
        -11    1    3    3    0    0  0.65726722491E+02 -0.28740914970E+02 -0.57752763887E+02  0.92094646855E+02  0.00000000000E+00 0. -1.
         11    1    3    3    0    0  0.53938241792E+01  0.37413550929E+02 -0.76528351153E+02  0.85354880719E+02  0.00000000000E+00 0.  1.
        -13    1    4    4    0    0  0.19971072950E+02 -0.64895427004E+02  0.24786657744E+03  0.25699824982E+03  0.00000000000E+00 0. -1.
         13    1    4    4    0    0  0.65975682550E+01 -0.21422630033E+02  0.12821746515E+00  0.22415918989E+02  0.00000000000E+00 0.  1.
         21    1    1    2  503  502 -0.23551749389E+02 -0.22159159667E+02 -0.42298059823E+00  0.32340256168E+02  0.00000000000E+00 0.  1.
          1    1    1    2  501    0 -0.74137438486E+02  0.99804580745E+02 -0.46371619838E+03  0.48009376872E+03  0.00000000000E+00 0. -1.
<scales pt_clust_5="13000.00000" pt_clust_6="13000.00000" pt_clust_7="13000.00000" pt_clust_8="13000.00000" pt_clust_9="32.33749" pt_clust_10="123.15042"></scales>
<clustering>
<clus scale="   32.337">  1  9  2 -1</clus>
<clus scale="   91.234">  5  6 -1 -1</clus>
<clus scale="   91.729">  7  8 -1 -1</clus>
<clus scale="  114.839">  1  5  2 -1</clus>
<clus scale="  123.150">  2 10  1 -1</clus>
<clus scale="  123.150">  2  5  1 -1</clus>
</clustering>
</event>
<event>
10    2  0.3544405E-006  0.9387066E+02  0.7546771E-02  0.1294628E+00
         -1   -1    0    0    0  501 -0.00000000000E+00  0.00000000000E+00  0.32308109409E+03  0.32308109409E+03  0.00000000000E+00 0.  1.
         21   -1    0    0  503  502  0.00000000000E+00 -0.00000000000E+00 -0.70081813218E+02  0.70081813218E+02  0.00000000000E+00 0. -1.
         23    2    1    2    0    0 -0.26281606565E+02  0.40719690493E+02  0.77051727286E+02  0.12873554444E+03  0.91033266919E+02 0.  0.
         23    2    1    2    0    0  0.17049314937E+02  0.10083401927E+02  0.49481010178E+02  0.10412272533E+03  0.89447288540E+02 0.  0.
        -11    1    4    4    0    0 -0.21016973122E+02  0.13802509986E+01  0.60076992961E+02  0.63662102819E+02  0.00000000000E+00 0.  1.
         11    1    4    4    0    0  0.38066288059E+02  0.87031509279E+01 -0.10595982783E+02  0.40460622509E+02  0.00000000000E+00 0. -1.
        -13    1    3    3    0    0 -0.34147070657E+02  0.11055802100E+02 -0.93126144543E+01  0.37080695550E+02  0.00000000000E+00 0. -1.
         13    1    3    3    0    0  0.78654640925E+01  0.29663888393E+02  0.86364341740E+02  0.91654848885E+02  0.00000000000E+00 0.  1.
         21    1    1    2  503  501  0.14500678938E+02 -0.72074653501E+02  0.11224951577E+03  0.13418263359E+03  0.00000000000E+00 0. -1.
         -1    1    1    2    0  502 -0.52683873111E+01  0.21271561081E+02  0.14217027639E+02  0.26122003954E+02  0.00000000000E+00 0.  1.
<scales pt_clust_5="13000.00000" pt_clust_6="13000.00000" pt_clust_7="13000.00000" pt_clust_8="13000.00000" pt_clust_9="69.77525" pt_clust_10="21.91427"></scales>
<clustering>
<clus scale="   21.914">  2 10  1 -1</clus>
<clus scale="   69.775">  1  9  2 -1</clus>
<clus scale="   89.447">  5  6 -1 -1</clus>
<clus scale="   91.033">  7  8 -1 -1</clus>
<clus scale="   92.333">  2  5  1 -1</clus>
<clus scale="   21.914">  2  5  1 -1</clus>
</clustering>
</event>
<event>
10    2  0.3544405E-006  0.1141709E+03  0.7546771E-02  0.1255478E+00
         21   -1    0    0  503  502  0.00000000000E+00  0.00000000000E+00  0.52674191576E+03  0.52674191576E+03  0.00000000000E+00 0. -1.
         -1   -1    0    0    0  501 -0.00000000000E+00 -0.00000000000E+00 -0.50119390696E+02  0.50119390696E+02  0.00000000000E+00 0.  1.
         23    2    1    2    0    0 -0.11564158418E+02  0.14336844927E+02  0.51307698011E+02  0.11328065784E+03  0.99301322671E+02 0.  0.
         23    2    1    2    0    0  0.38716677180E+02 -0.50245835460E+02  0.32452250060E+03  0.34699199730E+03  0.10519015031E+03 0.  0.
        -13    1    4    4    0    0  0.65243896563E+02 -0.75508137211E+00  0.20051127978E+03  0.21086040289E+03  0.00000000000E+00 0.  1.
         13    1    4    4    0    0 -0.26527219383E+02 -0.49490754088E+02  0.12401122082E+03  0.13613159441E+03  0.00000000000E+00 0. -1.
        -13    1    3    3    0    0 -0.16184510041E+02 -0.37724809809E+02  0.44550720494E+02  0.60579421728E+02  0.00000000000E+00 0. -1.
         13    1    3    3    0    0  0.46203516231E+01  0.52061654737E+02  0.67569775172E+01  0.52701236117E+02  0.00000000000E+00 0.  1.
         21    1    1    2  503  501 -0.29979857660E+02  0.14051036649E+02  0.40004800968E+02  0.51928870551E+02  0.00000000000E+00 0.  1.
         -1    1    1    2    0  502  0.28273388984E+01  0.21857953884E+02  0.60787525490E+02  0.64659780764E+02  0.00000000000E+00 0.  1.
<scales pt_clust_5="13000.00000" pt_clust_6="13000.00000" pt_clust_7="13000.00000" pt_clust_8="13000.00000" pt_clust_9="33.83853" pt_clust_10="22.04005"></scales>
<clustering>
<clus scale="   22.040">  1 10  2 -1</clus>
<clus scale="   33.839">  2  9  1 -1</clus>
<clus scale="   99.301">  7  8 -1 -1</clus>
<clus scale="  105.190">  5  6 -1 -1</clus>
<clus scale="  108.769">  2  7  1 -1</clus>
<clus scale="   22.040">  1  5  2 -1</clus>
</clustering>
</event>
<event>
10    2  0.3544405E-006  0.9513287E+02  0.7546771E-02  0.1302331E+00
         21   -1    0    0  503  502  0.00000000000E+00  0.00000000000E+00  0.78232834489E+02  0.78232834489E+02  0.00000000000E+00 0.  1.
         -2   -1    0    0    0  501 -0.00000000000E+00 -0.00000000000E+00 -0.18105638658E+03  0.18105638658E+03  0.00000000000E+00 0.  1.
         23    2    1    2    0    0  0.10406435865E+02 -0.14077462916E+02 -0.73975741588E+02  0.10673814294E+03  0.74927644734E+02 0.  0.
         23    2    1    2    0    0 -0.29557739829E+02 -0.11682498840E+02 -0.31689606673E+02  0.10372846959E+03  0.93515899553E+02 0.  0.
        -11    1    3    3    0    0 -0.26917196592E+02  0.89299246111E+01 -0.48068572495E+02  0.55810990743E+02  0.00000000000E+00 0.  1.
         11    1    3    3    0    0  0.37323632457E+02 -0.23007387528E+02 -0.25907169093E+02  0.50927152198E+02  0.00000000000E+00 0. -1.
        -13    1    4    4    0    0 -0.51384186397E+02  0.20801612224E+02 -0.33103939993E+02  0.64567116444E+02  0.00000000000E+00 0.  1.
         13    1    4    4    0    0  0.21826446568E+02 -0.32484111064E+02  0.14143333195E+01  0.39161353145E+02  0.00000000000E+00 0. -1.
         21    1    1    2  503  501 -0.48580765044E+01  0.19809212403E+02 -0.78767426202E+01  0.21864328886E+02  0.00000000000E+00 0.  1.
         -2    1    1    2    0  502  0.24009380468E+02  0.59507493538E+01  0.10718538787E+02  0.26958279657E+02  0.00000000000E+00 0.  1.
<scales pt_clust_5="13000.00000" pt_clust_6="13000.00000" pt_clust_7="13000.00000" pt_clust_8="13000.00000" pt_clust_9="20.39622" pt_clust_10="25.32999"></scales>
<clustering>
<clus scale="   20.396">  1  9  2 -1</clus>
<clus scale="   25.330">  1 10  2 -1</clus>
<clus scale="   74.928">  5  6 -1 -1</clus>
<clus scale="   76.936">  2  5  1 -1</clus>
<clus scale="   93.516">  7  8 -1 -1</clus>
<clus scale="   20.396">  1  5  2 -1</clus>
</clustering>
</event>
<event>
10    2  0.3544405E-006  0.9342535E+02  0.7546771E-02  0.1294915E+00
         21   -1    0    0  503  502  0.00000000000E+00  0.00000000000E+00  0.46489092602E+03  0.46489092602E+03  0.00000000000E+00 0. -1.
         -4   -1    0    0    0  501 -0.00000000000E+00 -0.00000000000E+00 -0.41406569475E+02  0.41406569475E+02  0.00000000000E+00 0.  1.
         23    2    1    2    0    0  0.64477426282E+01  0.38081250649E+02  0.10893413098E+03  0.14789264850E+03  0.92270447883E+02 0.  0.
         23    2    1    2    0    0 -0.14602921933E+02  0.16415326083E+02  0.17653167187E+03  0.20027622883E+03  0.92002328242E+02 0.  0.
        -11    1    4    4    0    0  0.27977702501E+02  0.35908389073E+02  0.65421639154E+02  0.79700408485E+02  0.00000000000E+00 0.  1.
         11    1    4    4    0    0 -0.42580624433E+02 -0.19493062990E+02  0.11111003272E+03  0.12057582035E+03  0.00000000000E+00 0. -1.
        -11    1    3    3    0    0  0.45063308009E+02  0.16678580915E+01  0.36062384991E+02  0.57740619070E+02  0.00000000000E+00 0.  1.
         11    1    3    3    0    0 -0.38615565381E+02  0.36413392558E+02  0.72871745988E+02  0.90152029432E+02  0.00000000000E+00 0. -1.
         21    1    1    2  503  501 -0.94772193193E+01 -0.19157293857E+02  0.89828946421E+01  0.23184304823E+02  0.00000000000E+00 0. -1.
         -4    1    1    2    0  502  0.17632398624E+02 -0.35339282874E+02  0.12903565905E+03  0.13494431334E+03  0.00000000000E+00 0.  1.
<scales pt_clust_5="13000.00000" pt_clust_6="13000.00000" pt_clust_7="13000.00000" pt_clust_8="13000.00000" pt_clust_9="21.37334" pt_clust_10="40.63221"></scales>
<clustering>
<clus scale="   21.373">  2  9  1 -1</clus>
<clus scale="   40.632">  1 10  2 -1</clus>
<clus scale="   92.002">  5  6 -1 -1</clus>
<clus scale="   92.270">  7  8 -1 -1</clus>
<clus scale="   93.161">  1  5  2 -1</clus>
<clus scale="   40.632">  1  5  2 -1</clus>
</clustering>
</event>
<event>
10    2  0.3544405E-006  0.1261658E+03  0.7546771E-02  0.1233761E+00
         21   -1    0    0  503  502  0.00000000000E+00  0.00000000000E+00  0.18019016694E+03  0.18019016694E+03  0.00000000000E+00 0. -1.
         -2   -1    0    0    0  501 -0.00000000000E+00 -0.00000000000E+00 -0.12105192707E+04  0.12105192707E+04  0.00000000000E+00 0.  1.
         23    2    1    2    0    0 -0.11037997960E+03 -0.69612867089E+02 -0.62918232734E+03  0.64923240501E+03  0.92750328938E+02 0.  0.
         23    2    1    2    0    0  0.12913205982E+03  0.29113778008E+02  0.65510693345E+02  0.17347069295E+03  0.90982028039E+02 0.  0.
        -11    1    3    3    0    0 -0.72199423177E+01  0.21160277084E+02 -0.74457665932E+02  0.77742066537E+02  0.00000000000E+00 0. -1.
         11    1    3    3    0    0 -0.10316003728E+03 -0.90773144173E+02 -0.55472466141E+03  0.57149033848E+03  0.00000000000E+00 0.  1.
        -11    1    4    4    0    0  0.11559523718E+03  0.55254145415E+02  0.65801797448E+02  0.14403178813E+03  0.00000000000E+00 0. -1.
         11    1    4    4    0    0  0.13536822642E+02 -0.26140367407E+02 -0.29110410295E+00  0.29438904820E+02  0.00000000000E+00 0.  1.
         21    1    1    2  503  501  0.65941747495E+02  0.58189868267E+01 -0.47172481721E+03  0.47634701410E+03  0.00000000000E+00 0. -1.
         -2    1    1    2    0  502 -0.84693827716E+02  0.34680102254E+02  0.50673474914E+01  0.91659325528E+02  0.00000000000E+00 0.  1.
<scales pt_clust_5="13000.00000" pt_clust_6="13000.00000" pt_clust_7="13000.00000" pt_clust_8="13000.00000" pt_clust_9="66.19800" pt_clust_10="88.07943"></scales>
<clustering>
<clus scale="   66.198">  2  9  1 -1</clus>
<clus scale="   88.079">  1 10  2 -1</clus>
<clus scale="   90.982">  7  8 -1 -1</clus>
<clus scale="   92.750">  5  6 -1 -1</clus>
<clus scale="  124.872">  1  7  2 -1</clus>
<clus scale="   88.079">  1  5  2 -1</clus>
</clustering>
</event>
<event>
10    2  0.3544405E-006  0.1651024E+03  0.7546771E-02  0.1183477E+00
         21   -1    0    0  503  502  0.00000000000E+00  0.00000000000E+00  0.15421018110E+04  0.15421018110E+04  0.00000000000E+00 0.  1.
         -1   -1    0    0    0  501 -0.00000000000E+00 -0.00000000000E+00 -0.12485000009E+03  0.12485000009E+03  0.00000000000E+00 0.  1.
         23    2    1    2    0    0  0.10795603610E+03  0.44695566658E+02  0.20339683888E+03  0.25280804325E+03  0.94283791076E+02 0.  0.
         23    2    1    2    0    0 -0.38856080146E+02 -0.17660674119E+03  0.14790770508E+03  0.25090715713E+03  0.91531285803E+02 0.  0.
        -11    1    4    4    0    0 -0.86941452264E+01 -0.56271958121E+02 -0.11842873944E+01  0.56951944380E+02  0.00000000000E+00 0.  1.
         11    1    4    4    0    0 -0.30161934920E+02 -0.12033478307E+03  0.14909199247E+03  0.19395521275E+03  0.00000000000E+00 0. -1.
        -13    1    3    3    0    0 -0.14002475252E+02  0.15768579071E+02  0.12733498282E+02  0.24634515981E+02  0.00000000000E+00 0. -1.
         13    1    3    3    0    0  0.12195851135E+03  0.28926987587E+02  0.19066334059E+03  0.22817352727E+03  0.00000000000E+00 0.  1.
         21    1    1    2  503  501 -0.42075902994E+02 -0.48451790056E+01 -0.34110285965E+02  0.54381697114E+02  0.00000000000E+00 0.  1.
         -1    1    1    2    0  502 -0.27024052957E+02  0.13675635354E+03  0.11000575529E+04  0.11088549136E+04  0.00000000000E+00 0.  1.
<scales pt_clust_5="13000.00000" pt_clust_6="13000.00000" pt_clust_7="13000.00000" pt_clust_8="13000.00000" pt_clust_9="42.35395" pt_clust_10="139.60561"></scales>
<clustering>
<clus scale="   42.354">  2  9  1 -1</clus>
<clus scale="   91.531">  5  6 -1 -1</clus>
<clus scale="   94.284">  7  8 -1 -1</clus>
<clus scale="  139.606">  1 10  2 -1</clus>
<clus scale="  163.546">  1  5  2 -1</clus>
<clus scale="  139.606">  1  5  2 -1</clus>
</clustering>
</event>
<event>
10    2  0.3544405E-006  0.1312187E+03  0.7546771E-02  0.1225849E+00
          1   -1    0    0  503    0 -0.00000000000E+00  0.00000000000E+00  0.30314972642E+03  0.30314972642E+03  0.00000000000E+00 0. -1.
         21   -1    0    0  501  502  0.00000000000E+00 -0.00000000000E+00 -0.12495915423E+03  0.12495915423E+03  0.00000000000E+00 0. -1.
         23    2    1    2    0    0 -0.96026918026E+02 -0.28865215264E+02  0.73433380611E+02  0.15307104729E+03  0.89352753131E+02 0.  0.
         23    2    1    2    0    0  0.79532337215E+02  0.66289013749E+02  0.70497665100E+01  0.13743818888E+03  0.90110657236E+02 0.  0.
        -11    1    4    4    0    0  0.58444235189E+02  0.54975140709E+02  0.45431892228E+02  0.92206570017E+02  0.00000000000E+00 0. -1.
         11    1    4    4    0    0  0.21088102025E+02  0.11313873039E+02 -0.38382125718E+02  0.45231618861E+02  0.00000000000E+00 0.  1.
        -13    1    3    3    0    0 -0.23813278043E+02 -0.45669272885E+02  0.42777251386E+01  0.51682237077E+02  0.00000000000E+00 0.  1.
         13    1    3    3    0    0 -0.72213639982E+02  0.16804057621E+02  0.69155655472E+02  0.10138881021E+03  0.00000000000E+00 0. -1.
         21    1    1    2  503  502  0.24276636617E+02 -0.11621823826E+02  0.10603082759E+03  0.10939359339E+03  0.00000000000E+00 0.  1.
          1    1    1    2  501    0 -0.77820558065E+01 -0.25801974659E+02 -0.83234025307E+01  0.28206051098E+02  0.00000000000E+00 0. -1.
<scales pt_clust_5="13000.00000" pt_clust_6="13000.00000" pt_clust_7="13000.00000" pt_clust_8="13000.00000" pt_clust_9="26.91509" pt_clust_10="27.19308"></scales>
<clustering>
<clus scale="   26.915">  1  9  2 -1</clus>
<clus scale="   27.193">  2 10  1 -1</clus>
<clus scale="   89.353">  7  8 -1 -1</clus>
<clus scale="   90.111">  5  6 -1 -1</clus>
<clus scale="  130.699">  1  7  2 -1</clus>
<clus scale="   27.193">  2  5  1 -1</clus>
</clustering>
</event>
<event>
10    2  0.3544405E-006  0.1397037E+03  0.7546771E-02  0.1213890E+00
         21   -1    0    0  503  502  0.00000000000E+00  0.00000000000E+00  0.25607638409E+03  0.25607638409E+03  0.00000000000E+00 0.  1.
         -3   -1    0    0    0  501 -0.00000000000E+00 -0.00000000000E+00 -0.12793957752E+03  0.12793957752E+03  0.00000000000E+00 0.  1.
         23    2    1    2    0    0  0.17937515170E+02  0.12531951899E+03  0.51683969002E+02  0.16422618620E+03  0.90952027421E+02 0.  0.
         23    2    1    2    0    0 -0.23277100994E+02 -0.82098298329E+02  0.68060003059E+02  0.14254768627E+03  0.91682740059E+02 0.  0.
        -11    1    4    4    0    0 -0.54467157502E+02 -0.73025225491E+02  0.39502912547E+02  0.99296701375E+02  0.00000000000E+00 0.  1.
         11    1    4    4    0    0  0.31190056508E+02 -0.90730728379E+01  0.28557090512E+02  0.43250984893E+02  0.00000000000E+00 0. -1.
        -13    1    3    3    0    0  0.41010245644E+02  0.41865005109E+02 -0.78791807909E+01  0.59132058907E+02  0.00000000000E+00 0. -1.
         13    1    3    3    0    0 -0.23072730474E+02  0.83454513878E+02  0.59563149793E+02  0.10509412729E+03  0.00000000000E+00 0.  1.
         21    1    1    2  503  501 -0.24362671512E+02 -0.40455512220E+01 -0.70991653299E+01  0.25696388778E+02  0.00000000000E+00 0.  1.
         -3    1    1    2    0  502  0.29702257335E+02 -0.39175669437E+02  0.15491999843E+02  0.51545700362E+02  0.00000000000E+00 0.  1.
<scales pt_clust_5="13000.00000" pt_clust_6="13000.00000" pt_clust_7="13000.00000" pt_clust_8="13000.00000" pt_clust_9="24.69628" pt_clust_10="47.43648"></scales>
<clustering>
<clus scale="   24.696">  2  9  1 -1</clus>
<clus scale="   47.436">  1 10  2 -1</clus>
<clus scale="   90.952">  7  8 -1 -1</clus>
<clus scale="   91.683">  5  6 -1 -1</clus>
<clus scale="  139.225">  2  7  1 -1</clus>
<clus scale="   47.436">  1  5  2 -1</clus>
</clustering>
</event>
<event>
10    2  0.3544405E-006  0.1543635E+03  0.7546771E-02  0.1196705E+00
          1   -1    0    0  503    0 -0.00000000000E+00  0.00000000000E+00  0.44363847100E+03  0.44363847100E+03  0.00000000000E+00 0. -1.
         21   -1    0    0  501  502  0.00000000000E+00 -0.00000000000E+00 -0.24704107299E+03  0.24704107299E+03  0.00000000000E+00 0. -1.
         23    2    1    2    0    0  0.83177930118E+01 -0.88116029438E+02  0.28167420046E+03  0.31096795332E+03  0.97606825918E+02 0.  0.
         23    2    1    2    0    0 -0.30946790809E+02  0.10085041371E+03 -0.64170068243E+02  0.15253391764E+03  0.89556063818E+02 0.  0.
        -13    1    4    4    0    0 -0.50141010808E+02  0.18021815370E+02 -0.27161370930E+02  0.59805073906E+02  0.00000000000E+00 0. -1.
         13    1    4    4    0    0  0.19194219999E+02  0.82828598335E+02 -0.37008697313E+02  0.92728843735E+02  0.00000000000E+00 0.  1.
        -13    1    3    3    0    0  0.32342544998E+02 -0.57353214026E+02  0.71496668410E+02  0.97196733328E+02  0.00000000000E+00 0.  1.
         13    1    3    3    0    0 -0.24024751986E+02 -0.30762815413E+02  0.21017753205E+03  0.21377122000E+03  0.00000000000E+00 0. -1.
         21    1    1    2  503  502  0.16233442486E+02 -0.39900956883E+02  0.96935314146E+02  0.10607575663E+03  0.00000000000E+00 0.  1.
          1    1    1    2  501    0  0.63955553112E+01  0.27166572616E+02 -0.11784204835E+03  0.12110191640E+03  0.00000000000E+00 0. -1.
<scales pt_clust_5="13000.00000" pt_clust_6="13000.00000" pt_clust_7="13000.00000" pt_clust_8="13000.00000" pt_clust_9="42.26561" pt_clust_10="27.90924"></scales>
<clustering>
<clus scale="   27.909">  2 10  1 -1</clus>
<clus scale="   42.266">  1  9  2 -1</clus>
<clus scale="   89.556">  5  6 -1 -1</clus>
<clus scale="   97.607">  7  8 -1 -1</clus>
<clus scale="  149.403">  2  5  1 -1</clus>
<clus scale="   27.909">  2  5  1 -1</clus>
</clustering>
</event>
<event>
10    2  0.3544405E-006  0.1930218E+03  0.7546771E-02  0.1156962E+00
         21   -1    0    0  501  502  0.00000000000E+00  0.00000000000E+00  0.24657456298E+03  0.24657456298E+03  0.00000000000E+00 0.  1.
          1   -1    0    0  503    0 -0.00000000000E+00 -0.00000000000E+00 -0.41800810609E+03  0.41800810609E+03  0.00000000000E+00 0. -1.
         23    2    1    2    0    0 -0.72060560039E+01  0.14339406139E+03 -0.20910507946E+03  0.27400666397E+03  0.10363847529E+03 0.  0.
         23    2    1    2    0    0  0.71981262944E+02 -0.18710861063E+03  0.12430615708E+03  0.25367188927E+03  0.93308479437E+02 0.  0.
        -11    1    4    4    0    0  0.33736940632E+01 -0.46775255182E+02  0.77533550070E+02  0.90613231349E+02  0.00000000000E+00 0. -1.
         11    1    4    4    0    0  0.68607568881E+02 -0.14033335544E+03  0.46772607006E+02  0.16305865793E+03  0.00000000000E+00 0.  1.
        -13    1    3    3    0    0  0.37809839316E+02  0.68140941895E+02 -0.50759117269E+02  0.93001397287E+02  0.00000000000E+00 0.  1.
         13    1    3    3    0    0 -0.45015895320E+02  0.75253119494E+02 -0.15834596219E+03  0.18100526668E+03  0.00000000000E+00 0. -1.
         21    1    1    2  503  502  0.90891022047E+01  0.22236520942E+02 -0.40839351007E+02  0.47380663072E+02  0.00000000000E+00 0. -1.
          1    1    1    2  501    0 -0.73864309145E+02  0.21478028295E+02 -0.45795269713E+02  0.89523452754E+02  0.00000000000E+00 0. -1.
<scales pt_clust_5="13000.00000" pt_clust_6="13000.00000" pt_clust_7="13000.00000" pt_clust_8="13000.00000" pt_clust_9="24.02238" pt_clust_10="76.58994"></scales>
<clustering>
<clus scale="   24.022">  2  9  1 -1</clus>
<clus scale="   76.590">  1 10  2 -1</clus>
<clus scale="   93.308">  5  6 -1 -1</clus>
<clus scale="  103.638">  7  8 -1 -1</clus>
<clus scale="  187.678">  1  5  2 -1</clus>
<clus scale="   76.590">  1  5  2 -1</clus>
</clustering>
</event>
<event>
10    2  0.3544405E-006  0.9603663E+02  0.7546771E-02  0.1292576E+00
          1   -1    0    0  503    0 -0.00000000000E+00  0.00000000000E+00  0.59718076114E+03  0.59718076114E+03  0.00000000000E+00 0. -1.
         21   -1    0    0  501  502  0.00000000000E+00 -0.00000000000E+00 -0.67684647579E+02  0.67684647579E+02  0.00000000000E+00 0.  1.
         23    2    1    2    0    0  0.21558351901E+02 -0.31972513391E+02  0.23870055642E+03  0.25755815805E+03  0.88720037175E+02 0.  0.
         23    2    1    2    0    0  0.12741411547E+02 -0.13985336117E+02  0.19977816269E+03  0.22212227303E+03  0.95231595049E+02 0.  0.
        -11    1    3    3    0    0  0.32426378115E+02  0.23427610547E+02  0.89498132067E+02  0.98031824307E+02  0.00000000000E+00 0.  1.
         11    1    3    3    0    0 -0.10868026215E+02 -0.55400123938E+02  0.14920242435E+03  0.15952633375E+03  0.00000000000E+00 0. -1.
        -13    1    4    4    0    0 -0.28771863939E+02  0.13275223032E+02  0.24815405043E+02  0.40247435055E+02  0.00000000000E+00 0.  1.
         13    1    4    4    0    0  0.41513275486E+02 -0.27260559148E+02  0.17496275765E+03  0.18187483798E+03  0.00000000000E+00 0. -1.
         21    1    1    2  503  502  0.82913683275E+01  0.71458887263E+02  0.11050278516E+03  0.13185592473E+03  0.00000000000E+00 0.  1.
          1    1    1    2  501    0 -0.42591131776E+02 -0.25501037756E+02 -0.19485390707E+02  0.53329052903E+02  0.00000000000E+00 0. -1.
<scales pt_clust_5="13000.00000" pt_clust_6="13000.00000" pt_clust_7="13000.00000" pt_clust_8="13000.00000" pt_clust_9="63.06427" pt_clust_10="49.64179"></scales>
<clustering>
<clus scale="   49.642">  2 10  1 -1</clus>
<clus scale="   63.064">  2  9  1 -1</clus>
<clus scale="   88.720">  5  6 -1 -1</clus>
<clus scale="   89.584">  1  5  2 -1</clus>
<clus scale="   95.232">  7  8 -1 -1</clus>
<clus scale="   49.642">  2  5  1 -1</clus>
</clustering>
</event>
<event>
10    2  0.3544405E-006  0.1465259E+03  0.7546771E-02  0.1207012E+00
         21   -1    0    0  501  502  0.00000000000E+00  0.00000000000E+00  0.49348549421E+03  0.49348549421E+03  0.00000000000E+00 0. -1.
          1   -1    0    0  503    0 -0.00000000000E+00 -0.00000000000E+00 -0.30138854067E+03  0.30138854067E+03  0.00000000000E+00 0. -1.
         23    2    1    2    0    0 -0.16282596689E+03 -0.84196291747E+02 -0.10107613742E+03  0.22421402874E+03  0.80338248001E+02 0.  0.
         23    2    1    2    0    0  0.15332517331E+03  0.68711558700E+02  0.27812884857E+03  0.33761130097E+03  0.91628854990E+02 0.  0.
        -11    1    4    4    0    0  0.30390471883E+02 -0.22866788917E+02  0.52237556684E+02  0.64616044021E+02  0.00000000000E+00 0.  1.
         11    1    4    4    0    0  0.12293470143E+03  0.91578347617E+02  0.22589129188E+03  0.27299525695E+03  0.00000000000E+00 0. -1.
        -13    1    3    3    0    0 -0.53151805745E+02 -0.63112676446E+02 -0.16561830213E+02  0.84158294910E+02  0.00000000000E+00 0.  1.
         13    1    3    3    0    0 -0.10967416114E+03 -0.21083615301E+02 -0.84514307204E+02  0.14005573383E+03  0.00000000000E+00 0. -1.
         21    1    1    2  503  502  0.11003709747E+03  0.55191881138E+02 -0.45812227072E+01  0.12318804392E+03  0.00000000000E+00 0. -1.
          1    1    1    2  501    0 -0.10053630389E+03 -0.39707148091E+02  0.19625465098E+02  0.10986066125E+03  0.00000000000E+00 0. -1.
<scales pt_clust_5="13000.00000" pt_clust_6="13000.00000" pt_clust_7="13000.00000" pt_clust_8="13000.00000" pt_clust_9="108.21837" pt_clust_10="108.09356"></scales>
<clustering>
<clus scale="   80.338">  7  8 -1 -1</clus>
<clus scale="   91.629">  5  6 -1 -1</clus>
<clus scale="  108.094">  1 10  2 -1</clus>
<clus scale="  108.218">  2  9  1 -1</clus>
<clus scale="  139.743">  2  7  1 -1</clus>
<clus scale="  108.094">  1  5  2 -1</clus>
</clustering>
</event>
<event>
10    2  0.3544405E-006  0.9921604E+02  0.7546771E-02  0.1282416E+00
          2   -1    0    0  503    0 -0.00000000000E+00  0.00000000000E+00  0.58599236147E+03  0.58599236147E+03  0.00000000000E+00 0. -1.
         21   -1    0    0  501  502  0.00000000000E+00 -0.00000000000E+00 -0.49348424174E+02  0.49348424174E+02  0.00000000000E+00 0.  1.
         23    2    1    2    0    0  0.16165760099E+02  0.37140888866E+02  0.16452703626E+03  0.19226329115E+03  0.90858406538E+02 0.  0.
         23    2    1    2    0    0 -0.42242624871E+02  0.39964023857E+00  0.75058976635E+02  0.12450894905E+03  0.89911230393E+02 0.  0.
        -11    1    4    4    0    0  0.34681978870E+01  0.32893345557E+02  0.30202545596E+01  0.33213288246E+02  0.00000000000E+00 0.  1.
         11    1    4    4    0    0 -0.45710822758E+02 -0.32493705319E+02  0.72038722076E+02  0.91295660800E+02  0.00000000000E+00 0. -1.
        -13    1    3    3    0    0  0.50593956967E+02  0.28272300652E+01  0.90028523862E+02  0.10330961630E+03  0.00000000000E+00 0. -1.
         13    1    3    3    0    0 -0.34428196868E+02  0.34313658801E+02  0.74498512399E+02  0.88953674851E+02  0.00000000000E+00 0.  1.
         21    1    1    2  503  502  0.30278422830E+02  0.30663594111E+02  0.78158577460E+02  0.89251342418E+02  0.00000000000E+00 0.  1.
          2    1    1    2  501    0 -0.42015580581E+01 -0.68204123215E+02  0.21889934693E+03  0.22931720302E+03  0.00000000000E+00 0. -1.
<scales pt_clust_5="13000.00000" pt_clust_6="13000.00000" pt_clust_7="13000.00000" pt_clust_8="13000.00000" pt_clust_9="43.09337" pt_clust_10="55.31161"></scales>
<clustering>
<clus scale="   43.093">  1  9  2 -1</clus>
<clus scale="   55.312">  2 10  1 -1</clus>
<clus scale="   89.911">  5  6 -1 -1</clus>
<clus scale="   90.858">  7  8 -1 -1</clus>
<clus scale="   98.349">  2  5  1 -1</clus>
<clus scale="   55.312">  2  5  1 -1</clus>
</clustering>
</event>
<event>
10    2  0.3544405E-006  0.1546522E+03  0.7546771E-02  0.1195760E+00
          2   -1    0    0  503    0 -0.00000000000E+00  0.00000000000E+00  0.60290369496E+03  0.60290369496E+03  0.00000000000E+00 0. -1.
         21   -1    0    0  501  502  0.00000000000E+00 -0.00000000000E+00 -0.15914964753E+03  0.15914964753E+03  0.00000000000E+00 0. -1.
         23    2    1    2    0    0  0.13408928049E+03  0.48487232349E+01  0.22390098249E+03  0.27638247258E+03  0.90841487926E+02 0.  0.
         23    2    1    2    0    0 -0.94268400981E+02 -0.38699004308E+02 -0.28417626169E+02  0.14267921436E+03  0.95737413669E+02 0.  0.
        -13    1    3    3    0    0  0.55886015237E+02 -0.42839761841E+02  0.95027242261E+02  0.11827370234E+03  0.00000000000E+00 0.  1.
         13    1    3    3    0    0  0.78203265249E+02  0.47688485076E+02  0.12887374023E+03  0.15810877024E+03  0.00000000000E+00 0. -1.
        -13    1    4    4    0    0 -0.30774689637E+02 -0.61553661691E+02 -0.30248776548E+02  0.75172623158E+02  0.00000000000E+00 0.  1.
         13    1    4    4    0    0 -0.63493711343E+02  0.22854657383E+02  0.18311503792E+01  0.67506591204E+02  0.00000000000E+00 0. -1.
         21    1    1    2  503  502 -0.20174615191E+02  0.56729873107E+02  0.28737196810E+03  0.29361188949E+03  0.00000000000E+00 0. -1.
          2    1    1    2  501    0 -0.19646264315E+02 -0.22879592034E+02 -0.39101276993E+02  0.49379766055E+02  0.00000000000E+00 0. -1.
<scales pt_clust_5="13000.00000" pt_clust_6="13000.00000" pt_clust_7="13000.00000" pt_clust_8="13000.00000" pt_clust_9="59.80806" pt_clust_10="30.15711"></scales>
<clustering>
<clus scale="   30.157">  2 10  1 -1</clus>
<clus scale="   59.808">  1  9  2 -1</clus>
<clus scale="   90.841">  5  6 -1 -1</clus>
<clus scale="   95.737">  7  8 -1 -1</clus>
<clus scale="  151.670">  1  5  2 -1</clus>
<clus scale="   30.157">  2  5  1 -1</clus>
</clustering>
</event>
<event>
10    2  0.3544405E-006  0.1061573E+03  0.7546771E-02  0.1269779E+00
         21   -1    0    0  503  502  0.00000000000E+00  0.00000000000E+00  0.57055466470E+03  0.57055466470E+03  0.00000000000E+00 0.  1.
         -1   -1    0    0    0  501 -0.00000000000E+00 -0.00000000000E+00 -0.30639658304E+03  0.30639658304E+03  0.00000000000E+00 0.  1.
         23    2    1    2    0    0 -0.40159996139E+02  0.82512670243E+01  0.94731984149E+02  0.14227573662E+03  0.97914900367E+02 0.  0.
         23    2    1    2    0    0  0.79322685671E+02  0.15449138423E+02  0.34416890044E+03  0.36573338516E+03  0.93690515243E+02 0.  0.
        -13    1    3    3    0    0 -0.53801502026E+02 -0.99719863355E+01  0.11402898459E+02  0.55893364767E+02  0.00000000000E+00 0.  1.
         13    1    3    3    0    0  0.13641505886E+02  0.18223253360E+02  0.83329085690E+02  0.86382371858E+02  0.00000000000E+00 0. -1.
        -13    1    4    4    0    0  0.23381347507E+02  0.25263935723E+02  0.27632432969E+02  0.44141875937E+02  0.00000000000E+00 0. -1.
         13    1    4    4    0    0  0.55941338164E+02 -0.98147973007E+01  0.31653646747E+03  0.32159150922E+03  0.00000000000E+00 0.  1.
         21    1    1    2  503  501  0.29762548994E+02 -0.39642679256E+02 -0.25625817038E+03  0.26100881447E+03  0.00000000000E+00 0.  1.
         -1    1    1    2    0  502 -0.68925238525E+02  0.15942273809E+02  0.81515367447E+02  0.10793331149E+03  0.00000000000E+00 0.  1.
<scales pt_clust_5="13000.00000" pt_clust_6="13000.00000" pt_clust_7="13000.00000" pt_clust_8="13000.00000" pt_clust_9="49.57168" pt_clust_10="60.89826"></scales>
<clustering>
<clus scale="   49.572">  2  9  1 -1</clus>
<clus scale="   60.898">  1 10  2 -1</clus>
<clus scale="   93.691">  7  8 -1 -1</clus>
<clus scale="   97.915">  5  6 -1 -1</clus>
<clus scale="  102.274">  1  7  2 -1</clus>
<clus scale="   60.898">  1  5  2 -1</clus>
</clustering>
</event>
<event>
10    2  0.3544405E-006  0.1003489E+03  0.7546771E-02  0.1280160E+00
         -1   -1    0    0    0  501 -0.00000000000E+00  0.00000000000E+00  0.44814042127E+03  0.44814042127E+03  0.00000000000E+00 0.  1.
         21   -1    0    0  503  502  0.00000000000E+00 -0.00000000000E+00 -0.58200961064E+02  0.58200961064E+02  0.00000000000E+00 0. -1.
         23    2    1    2    0    0  0.16744315802E+02  0.27541350035E+02  0.80020695593E+02  0.12617918052E+03  0.92081354252E+02 0.  0.
         23    2    1    2    0    0 -0.46280544500E+01 -0.48909769772E+02  0.10224267104E+03  0.14532748329E+03  0.90845633639E+02 0.  0.
        -11    1    3    3    0    0  0.34870759882E+02  0.54448189019E+01 -0.57621698568E+01  0.35760572549E+02  0.00000000000E+00 0. -1.
         11    1    3    3    0    0 -0.18126444079E+02  0.22096531133E+02  0.85782865450E+02  0.90418607973E+02  0.00000000000E+00 0.  1.
        -11    1    4    4    0    0 -0.27778701000E+02 -0.66028262920E+01 -0.38277840138E+01  0.28808080025E+02  0.00000000000E+00 0.  1.
         11    1    4    4    0    0  0.23150646550E+02 -0.42306943480E+02  0.10607045505E+03  0.11651940326E+03  0.00000000000E+00 0. -1.
         21    1    1    2  503  501  0.17900002726E+01 -0.23523665350E+02  0.17732945454E+03  0.17889187343E+03  0.00000000000E+00 0. -1.
         -1    1    1    2    0  502 -0.13906261625E+02  0.44892085087E+02  0.30346639035E+02  0.55942845088E+02  0.00000000000E+00 0.  1.
<scales pt_clust_5="13000.00000" pt_clust_6="13000.00000" pt_clust_7="13000.00000" pt_clust_8="13000.00000" pt_clust_9="23.59167" pt_clust_10="43.32988"></scales>
<clustering>
<clus scale="   23.592">  1  9  2 -1</clus>
<clus scale="   43.330">  2 10  1 -1</clus>
<clus scale="   90.846">  7  8 -1 -1</clus>
<clus scale="   92.081">  5  6 -1 -1</clus>
<clus scale="   99.216">  2  7  1 -1</clus>
<clus scale="   43.330">  2  5  1 -1</clus>
</clustering>
</event>
<event>
10    2  0.3544405E-006  0.1980948E+03  0.7546771E-02  0.1151494E+00
          3   -1    0    0  503    0 -0.00000000000E+00  0.00000000000E+00  0.38390907947E+03  0.38390907947E+03  0.00000000000E+00 0. -1.
         21   -1    0    0  501  502  0.00000000000E+00 -0.00000000000E+00 -0.21022422734E+03  0.21022422734E+03  0.00000000000E+00 0. -1.
         23    2    1    2    0    0  0.15938914020E+03 -0.11204666371E+03  0.15809149292E+03  0.26676940883E+03  0.90629159176E+02 0.  0.
         23    2    1    2    0    0 -0.10224032292E+03  0.86873573697E+02 -0.10183771998E+02  0.16300593936E+03  0.92016985480E+02 0.  0.
        -11    1    4    4    0    0 -0.67731810407E+02  0.31907292400E+02  0.36269484643E+02  0.83193443044E+02  0.00000000000E+00 0. -1.
         11    1    4    4    0    0 -0.34508512510E+02  0.54966281297E+02 -0.46453256641E+02  0.79812496314E+02  0.00000000000E+00 0.  1.
        -11    1    3    3    0    0  0.43898009066E+02  0.81706157464E+01  0.15087175216E+02  0.47131910821E+02  0.00000000000E+00 0.  1.
         11    1    3    3    0    0  0.11549113113E+03 -0.12021727946E+03  0.14300431770E+03  0.21963749801E+03  0.00000000000E+00 0. -1.
         21    1    1    2  503  502  0.23157791119E+02 -0.18055490502E+02  0.60116612569E+02  0.66905090490E+02  0.00000000000E+00 0.  1.
          3    1    1    2  501    0 -0.80306608397E+02  0.43228580518E+02 -0.34339481357E+02  0.97452868125E+02  0.00000000000E+00 0. -1.
<scales pt_clust_5="13000.00000" pt_clust_6="13000.00000" pt_clust_7="13000.00000" pt_clust_8="13000.00000" pt_clust_9="29.36467" pt_clust_10="88.35237"></scales>
<clustering>
<clus scale="   29.365">  1  9  2 -1</clus>
<clus scale="   88.352">  2 10  1 -1</clus>
<clus scale="   90.629">  7  8 -1 -1</clus>
<clus scale="   92.017">  5  6 -1 -1</clus>
<clus scale="  197.454">  1  7  2 -1</clus>
<clus scale="   88.352">  2  5  1 -1</clus>
</clustering>
</event>
<event>
10    2  0.3544405E-006  0.2919967E+03  0.7546771E-02  0.1115000E+00
         21   -1    0    0  501  502  0.00000000000E+00  0.00000000000E+00  0.21964267333E+03  0.21964267333E+03  0.00000000000E+00 0. -1.
          2   -1    0    0  503    0 -0.00000000000E+00 -0.00000000000E+00 -0.20170602129E+04  0.20170602129E+04  0.00000000000E+00 0. -1.
         23    2    1    2    0    0 -0.12320850754E+03  0.29253283020E+03 -0.15856240932E+04  0.16197754024E+04  0.93342360139E+02 0.  0.
         23    2    1    2    0    0  0.10632459043E+03 -0.97334630736E+02  0.63133126446E+02  0.18147033424E+03  0.90370026478E+02 0.  0.
        -11    1    4    4    0    0  0.42790790028E+02 -0.49277285728E+02  0.76649165622E+02  0.10066974317E+03  0.00000000000E+00 0.  1.
         11    1    4    4    0    0  0.63533800399E+02 -0.48057345009E+02 -0.13516039176E+02  0.80800591071E+02  0.00000000000E+00 0. -1.
        -11    1    3    3    0    0 -0.64266670488E+02  0.76262947156E+02 -0.34770124737E+03  0.36172143904E+03  0.00000000000E+00 0.  1.
         11    1    3    3    0    0 -0.58941837048E+02  0.21626988305E+03 -0.12379228458E+04  0.12580539634E+04  0.00000000000E+00 0. -1.
         21    1    1    2  503  502  0.78659171033E+02 -0.18741008688E+03 -0.30483685825E+03  0.36638138054E+03  0.00000000000E+00 0. -1.
          2    1    1    2  501    0 -0.61775253924E+02 -0.77881125857E+01  0.29910285441E+02  0.69075769053E+02  0.00000000000E+00 0. -1.
<scales pt_clust_5="13000.00000" pt_clust_6="13000.00000" pt_clust_7="13000.00000" pt_clust_8="13000.00000" pt_clust_9="276.67538" pt_clust_10="62.26425"></scales>
<clustering>
<clus scale="   62.264">  1 10  2 -1</clus>
<clus scale="   90.370">  5  6 -1 -1</clus>
<clus scale="   93.342">  7  8 -1 -1</clus>
<clus scale="  150.320">  1  5  2 -1</clus>
<clus scale="  276.675">  1  9  2 -1</clus>
<clus scale="   62.264">  1  5  2 -1</clus>
</clustering>
</event>
<event>
10    2  0.3544405E-006  0.1027473E+03  0.7546771E-02  0.1274699E+00
          2   -1    0    0  503    0 -0.00000000000E+00  0.00000000000E+00  0.57461451962E+03  0.57461451962E+03  0.00000000000E+00 0. -1.
         21   -1    0    0  501  502  0.00000000000E+00 -0.00000000000E+00 -0.11746124985E+03  0.11746124985E+03  0.00000000000E+00 0.  1.
         23    2    1    2    0    0  0.21234622273E+02 -0.80770603120E+02  0.44195203964E+03  0.45899003122E+03  0.91517451388E+02 0.  0.
         23    2    1    2    0    0 -0.54902405882E+02 -0.36669054951E+01 -0.33324686502E+02  0.11200243430E+03  0.91685823278E+02 0.  0.
        -13    1    3    3    0    0 -0.34490144826E+02 -0.44934713384E+02  0.23295685843E+03  0.23974485698E+03  0.00000000000E+00 0.  1.
         13    1    3    3    0    0  0.55724767099E+02 -0.35835889737E+02  0.20899518121E+03  0.21924517425E+03  0.00000000000E+00 0. -1.
        -13    1    4    4    0    0 -0.38864529047E+02  0.28989651015E+02  0.15689617779E+02  0.50960922186E+02  0.00000000000E+00 0.  1.
         13    1    4    4    0    0 -0.16037876835E+02 -0.32656556510E+02 -0.49014304281E+02  0.61041512109E+02  0.00000000000E+00 0. -1.
         21    1    1    2  503  502  0.14068940296E+02  0.52983033527E+02  0.60968511464E+02  0.81989611006E+02  0.00000000000E+00 0. -1.
          2    1    1    2  501    0  0.19598843313E+02  0.31454475088E+02 -0.12442594831E+02  0.39093692949E+02  0.00000000000E+00 0. -1.
<scales pt_clust_5="13000.00000" pt_clust_6="13000.00000" pt_clust_7="13000.00000" pt_clust_8="13000.00000" pt_clust_9="58.89366" pt_clust_10="37.06074"></scales>
<clustering>
<clus scale="   37.061">  2 10  1 -1</clus>
<clus scale="   58.894">  1  9  2 -1</clus>
<clus scale="   91.517">  5  6 -1 -1</clus>
<clus scale="   91.686">  7  8 -1 -1</clus>
<clus scale="  102.597">  1  5  2 -1</clus>
<clus scale="   37.061">  2  5  1 -1</clus>
</clustering>
</event>
<event>
10    2  0.3544405E-006  0.1005410E+03  0.7546771E-02  0.1280860E+00
          1   -1    0    0  503    0 -0.00000000000E+00  0.00000000000E+00  0.16474199557E+03  0.16474199557E+03  0.00000000000E+00 0. -1.
         21   -1    0    0  501  502  0.00000000000E+00 -0.00000000000E+00 -0.19526402052E+03  0.19526402052E+03  0.00000000000E+00 0.  1.
         23    2    1    2    0    0  0.43048940567E+02  0.36466813909E+02 -0.33952702262E+02  0.11362326275E+03  0.92598164380E+02 0.  0.
         23    2    1    2    0    0  0.34542077299E+02 -0.44347831503E+02 -0.68377471860E+02  0.12560784256E+03  0.89117709753E+02 0.  0.
        -11    1    4    4    0    0  0.18860251892E+02 -0.29429413796E+02 -0.89057928608E+02  0.95671908864E+02  0.00000000000E+00 0.  1.
         11    1    4    4    0    0  0.15681825406E+02 -0.14918417707E+02  0.20680456748E+02  0.29935933696E+02  0.00000000000E+00 0. -1.
        -13    1    3    3    0    0 -0.15290647973E+02  0.14999150768E+02  0.21479568232E+02  0.30333979143E+02  0.00000000000E+00 0. -1.
         13    1    3    3    0    0  0.58339588540E+02  0.21467663141E+02 -0.55432270494E+02  0.83289283608E+02  0.00000000000E+00 0.  1.
         21    1    1    2  503  502 -0.26222229635E+02 -0.12835545240E+02  0.56034118657E+02  0.63183692534E+02  0.00000000000E+00 0. -1.
          1    1    1    2  501    0 -0.51368788231E+02  0.20716562834E+02  0.15774030514E+02  0.57591218243E+02  0.00000000000E+00 0. -1.
<scales pt_clust_5="13000.00000" pt_clust_6="13000.00000" pt_clust_7="13000.00000" pt_clust_8="13000.00000" pt_clust_9="29.19515" pt_clust_10="62.65879"></scales>
<clustering>
<clus scale="   29.195">  1  9  2 -1</clus>
<clus scale="   62.659">  2 10  1 -1</clus>
<clus scale="   89.118">  5  6 -1 -1</clus>
<clus scale="   92.598">  7  8 -1 -1</clus>
<clus scale="   97.345">  2  5  1 -1</clus>
<clus scale="   62.659">  2  5  1 -1</clus>
</clustering>
</event>
<event>
10    2  0.3544405E-006  0.9745934E+02  0.7546771E-02  0.1290885E+00
         21   -1    0    0  503  502  0.00000000000E+00  0.00000000000E+00  0.41870811506E+03  0.41870811506E+03  0.00000000000E+00 0. -1.
         -1   -1    0    0    0  501 -0.00000000000E+00 -0.00000000000E+00 -0.16363012079E+03  0.16363012079E+03  0.00000000000E+00 0.  1.
         23    2    1    2    0    0 -0.21345942969E+02  0.25196423919E+02 -0.91901415791E+02  0.12897146975E+03  0.84245241560E+02 0.  0.
         23    2    1    2    0    0  0.10882538950E+01 -0.14337929661E+02  0.32554905190E+03  0.33905424686E+03  0.93642066371E+02 0.  0.
        -11    1    4    4    0    0 -0.38213015825E+01  0.35990932719E+02  0.20746319287E+03  0.21059659536E+03  0.00000000000E+00 0. -1.
         11    1    4    4    0    0  0.49095554776E+01 -0.50328862380E+02  0.11808585903E+03  0.12845765149E+03  0.00000000000E+00 0.  1.
        -11    1    3    3    0    0 -0.37983184023E+02 -0.18515751299E+02 -0.55214427675E+02  0.69528327595E+02  0.00000000000E+00 0.  1.
         11    1    3    3    0    0  0.16637241054E+02  0.43712175218E+02 -0.36686988116E+02  0.59443142155E+02  0.00000000000E+00 0. -1.
         21    1    1    2  503  501 -0.65455082667E+01 -0.19210955839E+02 -0.41061872579E+02  0.45803732189E+02  0.00000000000E+00 0.  1.
         -1    1    1    2    0  502  0.26803197341E+02  0.83524615818E+01  0.62492230737E+02  0.68508787062E+02  0.00000000000E+00 0.  1.
<scales pt_clust_5="13000.00000" pt_clust_6="13000.00000" pt_clust_7="13000.00000" pt_clust_8="13000.00000" pt_clust_9="20.29543" pt_clust_10="27.77804"></scales>
<clustering>
<clus scale="   20.295">  2  9  1 -1</clus>
<clus scale="   27.778">  1 10  2 -1</clus>
<clus scale="   84.245">  7  8 -1 -1</clus>
<clus scale="   88.469">  2  7  1 -1</clus>
<clus scale="   93.642">  5  6 -1 -1</clus>
<clus scale="   27.778">  1  5  2 -1</clus>
</clustering>
</event>
<event>
10    2  0.3544405E-006  0.1311082E+03  0.7546771E-02  0.1225928E+00
          2   -1    0    0  503    0 -0.00000000000E+00  0.00000000000E+00  0.26921990485E+03  0.26921990485E+03  0.00000000000E+00 0. -1.
         21   -1    0    0  501  502  0.00000000000E+00 -0.00000000000E+00 -0.55202978594E+03  0.55202978594E+03  0.00000000000E+00 0. -1.
         23    2    1    2    0    0  0.70243933265E+02 -0.67585829751E+02  0.22090211912E+03  0.25878763698E+03  0.93119494622E+02 0.  0.
         23    2    1    2    0    0  0.95339917669E+01  0.70886304980E+02 -0.15689846119E+03  0.19577401575E+03  0.92706919299E+02 0.  0.
        -11    1    4    4    0    0  0.27245647905E+02 -0.97338522470E+01 -0.17625594593E+02  0.33878234814E+02  0.00000000000E+00 0. -1.
         11    1    4    4    0    0 -0.17711656138E+02  0.80620157227E+02 -0.13927286659E+03  0.16189578093E+03  0.00000000000E+00 0.  1.
        -13    1    3    3    0    0  0.22914643622E+02  0.14267276532E+02  0.10897868393E+03  0.11227194495E+03  0.00000000000E+00 0.  1.
         13    1    3    3    0    0  0.47329289643E+02 -0.81853106283E+02  0.11192343519E+03  0.14651569203E+03  0.00000000000E+00 0. -1.
         21    1    1    2  503  502 -0.44702886448E+02 -0.18158877275E+02 -0.58327765937E+02  0.75698224284E+02  0.00000000000E+00 0.  1.
          2    1    1    2  501    0 -0.35075038585E+02  0.14858402046E+02 -0.28848577309E+03  0.29098981377E+03  0.00000000000E+00 0. -1.
<scales pt_clust_5="13000.00000" pt_clust_6="13000.00000" pt_clust_7="13000.00000" pt_clust_8="13000.00000" pt_clust_9="55.55299" pt_clust_10="38.09239"></scales>
<clustering>
<clus scale="   38.092">  2 10  1 -1</clus>
<clus scale="   55.553">  2  9  1 -1</clus>
<clus scale="   92.707">  5  6 -1 -1</clus>
<clus scale="   93.119">  7  8 -1 -1</clus>
<clus scale="  130.815">  2  5  1 -1</clus>
<clus scale="   38.092">  2  5  1 -1</clus>
</clustering>
</event>
<event>
10    2  0.3544405E-006  0.1353985E+03  0.7546771E-02  0.1235768E+00
         21   -1    0    0  501  502  0.00000000000E+00  0.00000000000E+00  0.19979109033E+03  0.19979109033E+03  0.00000000000E+00 0. -1.
          2   -1    0    0  503    0 -0.00000000000E+00 -0.00000000000E+00 -0.39437007279E+03  0.39437007279E+03  0.00000000000E+00 0. -1.
         23    2    1    2    0    0  0.51000918127E+02 -0.28179328781E+01  0.19864067378E+02  0.10637807190E+03  0.91173892163E+02 0.  0.
         23    2    1    2    0    0 -0.41950520990E+02 -0.89285495541E+01 -0.24900003209E+02  0.10414206423E+03  0.91575073977E+02 0.  0.
        -13    1    3    3    0    0  0.73295765484E+02 -0.14870002899E+02  0.27849524373E+02  0.79805903490E+02  0.00000000000E+00 0.  1.
         13    1    3    3    0    0 -0.22294847356E+02  0.12052070021E+02 -0.79854569948E+01  0.26572168407E+02  0.00000000000E+00 0. -1.
        -13    1    4    4    0    0  0.27135826936E+02  0.10456945593E+02 -0.36630552645E+01  0.29310728215E+02  0.00000000000E+00 0.  1.
         13    1    4    4    0    0 -0.69086347926E+02 -0.19385495147E+02 -0.21236947945E+02  0.74831336015E+02  0.00000000000E+00 0. -1.
         21    1    1    2  503  502 -0.10079409462E+03  0.43117717281E+02 -0.24749110216E+03  0.27068511725E+03  0.00000000000E+00 0. -1.
          2    1    1    2  501    0  0.91743697485E+02 -0.31371234849E+02  0.57948055534E+02  0.11295590974E+03  0.00000000000E+00 0. -1.
<scales pt_clust_5="13000.00000" pt_clust_6="13000.00000" pt_clust_7="13000.00000" pt_clust_8="13000.00000" pt_clust_9="100.10038" pt_clust_10="96.95907"></scales>
<clustering>
<clus scale="   91.174">  5  6 -1 -1</clus>
<clus scale="   91.575">  7  8 -1 -1</clus>
<clus scale="   96.959">  1 10  2 -1</clus>
<clus scale="   96.959">  1  7  2 -1</clus>
<clus scale="  100.100">  2  9  1 -1</clus>
<clus scale="   96.959">  1  5  2 -1</clus>
</clustering>
</event>
<event>
10    2  0.3544405E-006  0.1482398E+03  0.7546771E-02  0.1203616E+00
         21   -1    0    0  501  502  0.00000000000E+00  0.00000000000E+00  0.49043075157E+03  0.49043075157E+03  0.00000000000E+00 0.  1.
          2   -1    0    0  503    0 -0.00000000000E+00 -0.00000000000E+00 -0.16654775228E+03  0.16654775228E+03  0.00000000000E+00 0. -1.
         23    2    1    2    0    0  0.81845073484E+02 -0.15098999968E+03  0.12873587993E+02  0.19297100080E+03  0.87037243882E+02 0.  0.
         23    2    1    2    0    0 -0.62603090296E+02  0.50241007587E+02  0.38511894977E+02  0.12805498310E+03  0.92041332477E+02 0.  0.
        -11    1    4    4    0    0 -0.77684288340E+02  0.11256928594E+02  0.14418757747E+02  0.79808944807E+02  0.00000000000E+00 0. -1.
         11    1    4    4    0    0  0.15081198044E+02  0.38984078993E+02  0.24093137230E+02  0.48246038293E+02  0.00000000000E+00 0.  1.
        -13    1    3    3    0    0  0.18566946656E+02  0.83386893703E+01 -0.38796091881E+01  0.20719956950E+02  0.00000000000E+00 0. -1.
         13    1    3    3    0    0  0.63278126828E+02 -0.15932868905E+03  0.16753197181E+02  0.17225104385E+03  0.00000000000E+00 0.  1.
         21    1    1    2  503  502 -0.78190723024E+01  0.65409608469E+02  0.51923927235E+01  0.66079616478E+02  0.00000000000E+00 0. -1.
          2    1    1    2  501    0 -0.11422910886E+02  0.35339383628E+02  0.26730512360E+03  0.26987290347E+03  0.00000000000E+00 0. -1.
<scales pt_clust_5="13000.00000" pt_clust_6="13000.00000" pt_clust_7="13000.00000" pt_clust_8="13000.00000" pt_clust_9="71.73897" pt_clust_10="37.13967"></scales>
<clustering>
<clus scale="   37.140">  1 10  2 -1</clus>
<clus scale="   71.739">  2  9  1 -1</clus>
<clus scale="   87.037">  7  8 -1 -1</clus>
<clus scale="   92.041">  5  6 -1 -1</clus>
<clus scale="  145.186">  2  7  1 -1</clus>
<clus scale="   37.140">  1  5  2 -1</clus>
</clustering>
</event>
<event>
10    2  0.3544405E-006  0.1137652E+03  0.7546771E-02  0.1254832E+00
          1   -1    0    0  503    0 -0.00000000000E+00  0.00000000000E+00  0.40006933880E+03  0.40006933880E+03  0.00000000000E+00 0. -1.
         21   -1    0    0  501  502  0.00000000000E+00 -0.00000000000E+00 -0.20337001880E+03  0.20337001880E+03  0.00000000000E+00 0. -1.
         23    2    1    2    0    0 -0.57321833918E+02  0.37195068264E+02  0.13658382551E+03  0.17747308751E+03  0.90400717096E+02 0.  0.
         23    2    1    2    0    0  0.30479549582E+02 -0.64551725626E+02  0.10356162511E+03  0.15664040827E+03  0.93355659089E+02 0.  0.
        -11    1    4    4    0    0  0.12978252352E+02 -0.17320304116E+02  0.10404114091E+03  0.10626846650E+03  0.00000000000E+00 0. -1.
         11    1    4    4    0    0  0.17501297230E+02 -0.47231421510E+02 -0.47951580715E+00  0.50371941773E+02  0.00000000000E+00 0.  1.
        -11    1    3    3    0    0 -0.77191436619E+02  0.12657386081E+02  0.75517807761E+02  0.10872748778E+03  0.00000000000E+00 0. -1.
         11    1    3    3    0    0  0.19869602700E+02  0.24537682182E+02  0.61066017747E+02  0.68745599727E+02  0.00000000000E+00 0.  1.
         21    1    1    2  503  502  0.45984857610E+02  0.18457473800E+02  0.10673094923E+03  0.11767234591E+03  0.00000000000E+00 0. -1.
          1    1    1    2  501    0 -0.19142573274E+02  0.88991835629E+01 -0.15017707984E+03  0.15165351592E+03  0.00000000000E+00 0. -1.
<scales pt_clust_5="13000.00000" pt_clust_6="13000.00000" pt_clust_7="13000.00000" pt_clust_8="13000.00000" pt_clust_9="48.07059" pt_clust_10="21.11004"></scales>
<clustering>
<clus scale="   21.110">  2 10  1 -1</clus>
<clus scale="   48.071">  1  9  2 -1</clus>
<clus scale="   90.401">  7  8 -1 -1</clus>
<clus scale="   93.356">  5  6 -1 -1</clus>
<clus scale="  111.353">  1  7  2 -1</clus>
<clus scale="   21.110">  2  5  1 -1</clus>
</clustering>
</event>
<event>
10    2  0.3544405E-006  0.1176000E+03  0.7546771E-02  0.1270880E+00
          2   -1    0    0  503    0 -0.00000000000E+00  0.00000000000E+00  0.49534551738E+03  0.49534551738E+03  0.00000000000E+00 0. -1.
         21   -1    0    0  501  502  0.00000000000E+00 -0.00000000000E+00 -0.21587873557E+03  0.21587873557E+03  0.00000000000E+00 0. -1.
         23    2    1    2    0    0  0.15258580808E+02  0.69075107172E+01  0.75114586821E+02  0.10481701908E+03  0.71160862431E+02 0.  0.
         23    2    1    2    0    0 -0.35133123440E+02  0.66053938534E+00 -0.30269826979E+02  0.10211583722E+03  0.90975871040E+02 0.  0.
        -11    1    3    3    0    0  0.33093550568E+02  0.29277119608E+02  0.50243818412E+02  0.66908699810E+02  0.00000000000E+00 0. -1.
         11    1    3    3    0    0 -0.17834969760E+02 -0.22369608890E+02  0.24870768409E+02  0.37908319265E+02  0.00000000000E+00 0.  1.
        -11    1    4    4    0    0 -0.62785613153E+02  0.41862101461E+01 -0.37585576458E+02  0.73295519181E+02  0.00000000000E+00 0.  1.
         11    1    4    4    0    0  0.27652489712E+02 -0.35256707608E+01  0.73157494791E+01  0.28820318042E+02  0.00000000000E+00 0. -1.
         21    1    1    2  503  502  0.52704410947E+02 -0.62212720857E+02  0.35706032509E+03  0.36625162569E+03  0.00000000000E+00 0. -1.
          2    1    1    2  501    0 -0.32829868315E+02  0.54644670755E+02 -0.12243830312E+03  0.13803977096E+03  0.00000000000E+00 0. -1.
<scales pt_clust_5="13000.00000" pt_clust_6="13000.00000" pt_clust_7="13000.00000" pt_clust_8="13000.00000" pt_clust_9="74.51953" pt_clust_10="63.74826"></scales>
<clustering>
<clus scale="   63.748">  2 10  1 -1</clus>
<clus scale="   71.161">  5  6 -1 -1</clus>
<clus scale="   73.646">  1  5  2 -1</clus>
<clus scale="   74.520">  1  9  2 -1</clus>
<clus scale="   90.976">  7  8 -1 -1</clus>
<clus scale="   63.748">  2  5  1 -1</clus>
</clustering>
</event>
<event>
10    2  0.3544405E-006  0.1632284E+03  0.7546771E-02  0.1195173E+00
         21   -1    0    0  501  502  0.00000000000E+00  0.00000000000E+00  0.21080602361E+03  0.21080602361E+03  0.00000000000E+00 0.  1.
          1   -1    0    0  503    0 -0.00000000000E+00 -0.00000000000E+00 -0.28523834982E+03  0.28523834982E+03  0.00000000000E+00 0. -1.
         23    2    1    2    0    0  0.84222938805E+02  0.20166242747E+01 -0.50092221370E+02  0.13377669035E+03  0.91046153376E+02 0.  0.
         23    2    1    2    0    0 -0.33147897915E+02 -0.14253110418E+03 -0.12757273051E+02  0.17345011874E+03  0.92240429755E+02 0.  0.
        -11    1    3    3    0    0 -0.63826657144E+01  0.28740978467E+02 -0.92412995193E+01  0.30857476917E+02  0.00000000000E+00 0. -1.
         11    1    3    3    0    0  0.90605604520E+02 -0.26724354193E+02 -0.40850921851E+02  0.10291921343E+03  0.00000000000E+00 0.  1.
        -13    1    4    4    0    0  0.23902244247E+02 -0.52830854583E+02  0.21373365744E+02  0.61799977664E+02  0.00000000000E+00 0.  1.
         13    1    4    4    0    0 -0.57050142163E+02 -0.89700249598E+02 -0.34130638795E+02  0.11165014108E+03  0.00000000000E+00 0. -1.
         21    1    1    2  503  502  0.24607504751E+02  0.17528075486E+02 -0.30791847648E+02  0.43138157145E+02  0.00000000000E+00 0. -1.
          1    1    1    2  501    0 -0.75682545641E+02  0.12298640442E+03  0.19209015860E+02  0.14567940718E+03  0.00000000000E+00 0. -1.
<scales pt_clust_5="13000.00000" pt_clust_6="13000.00000" pt_clust_7="13000.00000" pt_clust_8="13000.00000" pt_clust_9="30.21196" pt_clust_10="134.66706"></scales>
<clustering>
<clus scale="   30.212">  2  9  1 -1</clus>
<clus scale="   91.046">  5  6 -1 -1</clus>
<clus scale="   92.240">  7  8 -1 -1</clus>
<clus scale="  130.664">  2  5  1 -1</clus>
<clus scale="  134.667">  1 10  2 -1</clus>
<clus scale="  134.667">  1  5  2 -1</clus>
</clustering>
</event>
<event>
10    2  0.3544405E-006  0.1440352E+03  0.7546771E-02  0.1223048E+00
         21   -1    0    0  501  502  0.00000000000E+00  0.00000000000E+00  0.36884061986E+03  0.36884061986E+03  0.00000000000E+00 0.  1.
          1   -1    0    0  503    0 -0.00000000000E+00 -0.00000000000E+00 -0.40880456960E+03  0.40880456960E+03  0.00000000000E+00 0. -1.
         23    2    1    2    0    0 -0.49329165624E+01  0.51341211007E+02  0.13070514482E+02  0.10673516659E+03  0.92527313939E+02 0.  0.
         23    2    1    2    0    0 -0.30388141053E+02  0.76979402186E+02 -0.31584740989E+03  0.33900937535E+03  0.91205826352E+02 0.  0.
        -13    1    4    4    0    0  0.24423852703E+02  0.60959195871E+02 -0.18218573132E+03  0.19365998254E+03  0.00000000000E+00 0.  1.
         13    1    4    4    0    0 -0.54811993756E+02  0.16020206316E+02 -0.13366167857E+03  0.14534939280E+03  0.00000000000E+00 0. -1.
        -13    1    3    3    0    0 -0.42621369294E+02  0.44949209636E+02  0.24838666953E+02  0.66738084655E+02  0.00000000000E+00 0.  1.
         13    1    3    3    0    0  0.37688452731E+02  0.63920013713E+01 -0.11768152472E+02  0.39997081936E+02  0.00000000000E+00 0. -1.
         21    1    1    2  503  502  0.67810012295E+01 -0.19557776787E+02 -0.19239462346E+02  0.28260317088E+02  0.00000000000E+00 0.  1.
          1    1    1    2  501    0  0.28540056386E+02 -0.10876283641E+03  0.28205240801E+03  0.30364033044E+03  0.00000000000E+00 0. -1.
<scales pt_clust_5="13000.00000" pt_clust_6="13000.00000" pt_clust_7="13000.00000" pt_clust_8="13000.00000" pt_clust_9="20.69997" pt_clust_10="111.47935"></scales>
<clustering>
<clus scale="   20.700">  2  9  1 -1</clus>
<clus scale="   91.206">  5  6 -1 -1</clus>
<clus scale="   92.527">  7  8 -1 -1</clus>
<clus scale="  104.764">  2  7  1 -1</clus>
<clus scale="  111.479">  1 10  2 -1</clus>
<clus scale="  111.479">  1  5  2 -1</clus>
</clustering>
</event>
<event>
10    2  0.3544405E-006  0.1215343E+03  0.7546771E-02  0.1241099E+00
          1   -1    0    0  503    0 -0.00000000000E+00  0.00000000000E+00  0.44199601301E+03  0.44199601301E+03  0.00000000000E+00 0. -1.
         21   -1    0    0  501  502  0.00000000000E+00 -0.00000000000E+00 -0.20016246434E+03  0.20016246434E+03  0.00000000000E+00 0. -1.
         23    2    1    2    0    0 -0.63875417781E+02  0.18222195079E+02  0.35447027724E+03  0.37255526212E+03  0.93467258928E+02 0.  0.
         23    2    1    2    0    0  0.40240033305E+02  0.41101638710E+02 -0.32820032219E+02  0.11321784068E+03  0.91828753390E+02 0.  0.
        -11    1    3    3    0    0 -0.16852829028E+02  0.49600577132E+02  0.22935676329E+03  0.23526317172E+03  0.00000000000E+00 0. -1.
         11    1    3    3    0    0 -0.47022588753E+02 -0.31378382053E+02  0.12511351395E+03  0.13729209040E+03  0.00000000000E+00 0.  1.
        -11    1    4    4    0    0  0.56070788252E+02 -0.61992460113E+01 -0.28357685805E+02  0.63138912649E+02  0.00000000000E+00 0.  1.
         11    1    4    4    0    0 -0.15830754947E+02  0.47300884721E+02 -0.44623464143E+01  0.50078928035E+02  0.00000000000E+00 0. -1.
         21    1    1    2  503  502 -0.26918359150E+02 -0.58732847525E+01  0.18796013937E+02  0.33352416300E+02  0.00000000000E+00 0. -1.
          1    1    1    2  501    0  0.50553743626E+02 -0.53450549036E+02 -0.98612710285E+02  0.12303295825E+03  0.00000000000E+00 0. -1.
<scales pt_clust_5="13000.00000" pt_clust_6="13000.00000" pt_clust_7="13000.00000" pt_clust_8="13000.00000" pt_clust_9="27.55165" pt_clust_10="73.15620"></scales>
<clustering>
<clus scale="   27.552">  1  9  2 -1</clus>
<clus scale="   73.156">  2 10  1 -1</clus>
<clus scale="   91.829">  7  8 -1 -1</clus>
<clus scale="   93.467">  5  6 -1 -1</clus>
<clus scale="  120.279">  2  7  1 -1</clus>
<clus scale="   73.156">  2  5  1 -1</clus>
</clustering>
</event>
<event>
10    2  0.3544405E-006  0.1077534E+03  0.7546771E-02  0.1264793E+00
         21   -1    0    0  501  502  0.00000000000E+00  0.00000000000E+00  0.49913877506E+02  0.49913877506E+02  0.00000000000E+00 0. -1.
          1   -1    0    0  503    0 -0.00000000000E+00 -0.00000000000E+00 -0.94570804233E+03  0.94570804233E+03  0.00000000000E+00 0. -1.
         23    2    1    2    0    0  0.93962281462E+00  0.31862635015E+02 -0.34076009593E+03  0.35416275175E+03  0.91091719428E+02 0.  0.
         23    2    1    2    0    0  0.35883790971E+02 -0.77410337851E+02 -0.31739825735E+03  0.34105266925E+03  0.91078332073E+02 0.  0.
        -13    1    4    4    0    0  0.56352390527E+02 -0.22274685520E+02 -0.11128360388E+03  0.12671145973E+03  0.00000000000E+00 0.  1.
         13    1    4    4    0    0 -0.20468599556E+02 -0.55135652331E+02 -0.20611465347E+03  0.21434120953E+03  0.00000000000E+00 0. -1.
        -13    1    3    3    0    0  0.18587105319E+02 -0.27193706059E+02 -0.87066413838E+02  0.93088874480E+02  0.00000000000E+00 0.  1.
         13    1    3    3    0    0 -0.17647482504E+02  0.59056341074E+02 -0.25369368209E+03  0.26107387727E+03  0.00000000000E+00 0. -1.
         21    1    1    2  503  502 -0.16276190819E+02  0.40016927026E+02 -0.26344107886E+03  0.26695968023E+03  0.00000000000E+00 0.  1.
          1    1    1    2  501    0 -0.20547222966E+02  0.55307758093E+01  0.25805267325E+02  0.33446818599E+02  0.00000000000E+00 0. -1.
<scales pt_clust_5="13000.00000" pt_clust_6="13000.00000" pt_clust_7="13000.00000" pt_clust_8="13000.00000" pt_clust_9="44.34028" pt_clust_10="21.27858"></scales>
<clustering>
<clus scale="   21.279">  1 10  2 -1</clus>
<clus scale="   44.340">  2  9  1 -1</clus>
<clus scale="   91.078">  5  6 -1 -1</clus>
<clus scale="   91.092">  7  8 -1 -1</clus>
<clus scale="  107.742">  1  5  2 -1</clus>
<clus scale="   21.279">  1  5  2 -1</clus>
</clustering>
</event>
<event>
10    2  0.3614757E-006  0.1034947E+03  0.7546771E-02  0.1273568E+00
         21   -1    0    0  501  502  0.00000000000E+00  0.00000000000E+00  0.13023242636E+03  0.13023242636E+03  0.00000000000E+00 0.  1.
          1   -1    0    0  503    0 -0.00000000000E+00 -0.00000000000E+00 -0.42926728258E+03  0.42926728258E+03  0.00000000000E+00 0. -1.
         23    2    1    2    0    0  0.55092247330E+02  0.46919149865E+01 -0.25401003232E+03  0.27581275818E+03  0.92165130467E+02 0.  0.
         23    2    1    2    0    0 -0.17205875085E+02 -0.10944626007E+02  0.92249877437E+02  0.13128223095E+03  0.91154579154E+02 0.  0.
        -13    1    4    4    0    0 -0.32578132635E+02 -0.24953371901E+02  0.10077115249E+03  0.10880639076E+03  0.00000000000E+00 0.  1.
         13    1    4    4    0    0  0.15372257550E+02  0.14008745894E+02 -0.85212750574E+01  0.22475840192E+02  0.00000000000E+00 0. -1.
        -13    1    3    3    0    0 -0.24170230248E+02  0.42241309883E+01 -0.95331187390E+02  0.98438196865E+02  0.00000000000E+00 0.  1.
         13    1    3    3    0    0  0.79262477578E+02  0.46778399822E+00 -0.15867884493E+03  0.17737456132E+03  0.00000000000E+00 0. -1.
         21    1    1    2  503  502 -0.80430202630E+01 -0.22627798539E+02 -0.61000424112E+02  0.65557296951E+02  0.00000000000E+00 0. -1.
          1    1    1    2  501    0 -0.29843351982E+02  0.28880509560E+02 -0.76274277229E+02  0.86847422856E+02  0.00000000000E+00 0. -1.
<scales pt_clust_5="13000.00000" pt_clust_6="13000.00000" pt_clust_7="13000.00000" pt_clust_8="13000.00000" pt_clust_9="24.01473" pt_clust_10="39.61145"></scales>
<clustering>
<clus scale="   24.015">  2  9  1 -1</clus>
<clus scale="   39.611">  1 10  2 -1</clus>
<clus scale="   91.155">  5  6 -1 -1</clus>
<clus scale="   92.165">  7  8 -1 -1</clus>
<clus scale="  102.596">  1  5  2 -1</clus>
<clus scale="   39.611">  1  5  2 -1</clus>
</clustering>
</event>
<event>
10    2  0.3544405E-006  0.2135284E+03  0.7546771E-02  0.1157610E+00
         21   -1    0    0  501  502  0.00000000000E+00  0.00000000000E+00  0.30304056651E+03  0.30304056651E+03  0.00000000000E+00 0. -1.
          2   -1    0    0  503    0 -0.00000000000E+00 -0.00000000000E+00 -0.98281955480E+03  0.98281955480E+03  0.00000000000E+00 0. -1.
         23    2    1    2    0    0 -0.22762814107E+01 -0.11018321251E+03 -0.34350427928E+02  0.14755418324E+03  0.91906274635E+02 0.  0.
         23    2    1    2    0    0 -0.25735134079E+02  0.18552826651E+03 -0.23042225239E+03  0.31055213254E+03  0.90913023438E+02 0.  0.
        -11    1    3    3    0    0 -0.37606372503E+02 -0.12508777077E+02 -0.95967045535E+01  0.40777512125E+02  0.00000000000E+00 0. -1.
         11    1    3    3    0    0  0.35330091093E+02 -0.97674435435E+02 -0.24753723374E+02  0.10677667112E+03  0.00000000000E+00 0.  1.
        -13    1    4    4    0    0 -0.47622256112E+02  0.15976857160E+03 -0.15387259717E+03  0.22687144357E+03  0.00000000000E+00 0. -1.
         13    1    4    4    0    0  0.21887122034E+02  0.25759694912E+02 -0.76549655217E+02  0.83680688971E+02  0.00000000000E+00 0.  1.
         21    1    1    2  503  502 -0.12034956818E+03  0.60738517736E+02 -0.56234490099E+03  0.57827759231E+03  0.00000000000E+00 0. -1.
          2    1    1    2  501    0  0.14836098367E+03 -0.13608357173E+03  0.14733859302E+03  0.24947621322E+03  0.00000000000E+00 0. -1.
<scales pt_clust_5="13000.00000" pt_clust_6="13000.00000" pt_clust_7="13000.00000" pt_clust_8="13000.00000" pt_clust_9="134.80796" pt_clust_10="193.20767"></scales>
<clustering>
<clus scale="   90.913">  7  8 -1 -1</clus>
<clus scale="   91.906">  5  6 -1 -1</clus>
<clus scale="  134.808">  2  9  1 -1</clus>
<clus scale="  136.548">  2  5  1 -1</clus>
<clus scale="  193.208">  1 10  2 -1</clus>
<clus scale="  193.208">  1  5  2 -1</clus>
</clustering>
</event>
<event>
10    2  0.3544405E-006  0.4390256E+03  0.7546771E-02  0.1031085E+00
          1   -1    0    0  503    0 -0.00000000000E+00  0.00000000000E+00  0.57166986606E+03  0.57166986606E+03  0.00000000000E+00 0. -1.
         21   -1    0    0  501  502  0.00000000000E+00 -0.00000000000E+00 -0.89971777477E+03  0.89971777477E+03  0.00000000000E+00 0.  1.
         23    2    1    2    0    0 -0.12905172924E+03 -0.38242703471E+03  0.72348274043E+02  0.42038125253E+03  0.92635517080E+02 0.  0.
         23    2    1    2    0    0  0.10160377273E+03  0.41078263306E+03 -0.42950371310E+03  0.60965533288E+03  0.90224647851E+02 0.  0.
        -11    1    3    3    0    0 -0.14123773762E+03 -0.31443794136E+03  0.66535965799E+02  0.35106459838E+03  0.00000000000E+00 0. -1.
         11    1    3    3    0    0  0.12186008378E+02 -0.67989093350E+02  0.58123082437E+01  0.69316654145E+02  0.00000000000E+00 0.  1.
        -11    1    4    4    0    0  0.84361733251E+02  0.17650306586E+03 -0.16524804591E+03  0.25608036038E+03  0.00000000000E+00 0. -1.
         11    1    4    4    0    0  0.17242039476E+02  0.23427956720E+03 -0.26425566720E+03  0.35357497250E+03  0.00000000000E+00 0.  1.
         21    1    1    2  503  502 -0.72472963627E+01 -0.45978423746E+02  0.23105077959E+03  0.23569259959E+03  0.00000000000E+00 0. -1.
          1    1    1    2  501    0  0.34695252875E+02  0.17622825394E+02 -0.20194324924E+03  0.20565845584E+03  0.00000000000E+00 0. -1.
<scales pt_clust_5="13000.00000" pt_clust_6="13000.00000" pt_clust_7="13000.00000" pt_clust_8="13000.00000" pt_clust_9="46.47014" pt_clust_10="38.91432"></scales>
<clustering>
<clus scale="   38.914">  2 10  1 -1</clus>
<clus scale="   46.470">  1  9  2 -1</clus>
<clus scale="   90.225">  7  8 -1 -1</clus>
<clus scale="   92.636">  5  6 -1 -1</clus>
<clus scale="  438.523">  2  7  1 -1</clus>
<clus scale="   38.914">  2  5  1 -1</clus>
</clustering>
</event>
<event>
10    2  0.3544405E-006  0.1589189E+03  0.7546771E-02  0.1190323E+00
         21   -1    0    0  501  502  0.00000000000E+00  0.00000000000E+00  0.11325489800E+03  0.11325489800E+03  0.00000000000E+00 0. -1.
          2   -1    0    0  503    0 -0.00000000000E+00 -0.00000000000E+00 -0.61685349336E+03  0.61685349336E+03  0.00000000000E+00 0. -1.
         23    2    1    2    0    0 -0.47803196135E+02 -0.14118548518E+03 -0.35790566339E+03  0.39756133816E+03  0.87977650137E+02 0.  0.
         23    2    1    2    0    0  0.40549016627E+02  0.12025118788E+03 -0.99355093343E+02  0.18482014888E+03  0.90457072255E+02 0.  0.
        -13    1    3    3    0    0 -0.25678115094E+02 -0.11844585762E+03 -0.34038476666E+03  0.36131783261E+03  0.00000000000E+00 0.  1.
         13    1    3    3    0    0 -0.22125081041E+02 -0.22739627556E+02 -0.17520896729E+02  0.36243505551E+02  0.00000000000E+00 0. -1.
        -13    1    4    4    0    0  0.47215420440E+02  0.10060317931E+03 -0.11416902284E+03  0.15932627338E+03  0.00000000000E+00 0. -1.
         13    1    4    4    0    0 -0.66664038130E+01  0.19648008572E+02  0.14813929493E+02  0.25493875493E+02  0.00000000000E+00 0.  1.
         21    1    1    2  503  502  0.30293974127E+02  0.19714418695E+02 -0.90748040417E+02  0.97681062711E+02  0.00000000000E+00 0. -1.
          2    1    1    2  501    0 -0.23039794619E+02  0.12198786002E+01  0.44410201794E+02  0.50045841618E+02  0.00000000000E+00 0. -1.
<scales pt_clust_5="13000.00000" pt_clust_6="13000.00000" pt_clust_7="13000.00000" pt_clust_8="13000.00000" pt_clust_9="35.17225" pt_clust_10="23.07207"></scales>
<clustering>
<clus scale="   23.072">  1 10  2 -1</clus>
<clus scale="   35.172">  2  9  1 -1</clus>
<clus scale="   87.978">  5  6 -1 -1</clus>
<clus scale="   90.457">  7  8 -1 -1</clus>
<clus scale="  157.521">  2  5  1 -1</clus>
<clus scale="   23.072">  1  5  2 -1</clus>
</clustering>
</event>
<event>
10    2  0.3544405E-006  0.3210403E+03  0.7546771E-02  0.1075240E+00
          2   -1    0    0  503    0 -0.00000000000E+00  0.00000000000E+00  0.55008211063E+03  0.55008211063E+03  0.00000000000E+00 0. -1.
         21   -1    0    0  501  502  0.00000000000E+00 -0.00000000000E+00 -0.48333272693E+03  0.48333272693E+03  0.00000000000E+00 0. -1.
         23    2    1    2    0    0  0.21702493922E+03  0.34036582270E+03  0.86392125029E+02  0.42256560157E+03  0.90273865895E+02 0.  0.
         23    2    1    2    0    0 -0.13903121439E+03 -0.18917048527E+03 -0.67193228695E+02  0.25960450912E+03  0.88115946924E+02 0.  0.
        -13    1    4    4    0    0 -0.69250789107E+02 -0.15826110982E+03 -0.60313614300E+02  0.18297536103E+03  0.00000000000E+00 0. -1.
         13    1    4    4    0    0 -0.69780425281E+02 -0.30909375446E+02 -0.68796143954E+01  0.76629148090E+02  0.00000000000E+00 0.  1.
        -13    1    3    3    0    0  0.22281801519E+03  0.30751681150E+03  0.73489677341E+02  0.38680122793E+03  0.00000000000E+00 0. -1.
         13    1    3    3    0    0 -0.57930759788E+01  0.32849011195E+02  0.12902447689E+02  0.35764373644E+02  0.00000000000E+00 0.  1.
         21    1    1    2  503  502  0.36785691854E+02 -0.13487011793E+03  0.14380770421E+03  0.20055869871E+03  0.00000000000E+00 0. -1.
          2    1    1    2  501    0 -0.11477941668E+03 -0.16325219494E+02 -0.96257216847E+02  0.15068602815E+03  0.00000000000E+00 0. -1.
<scales pt_clust_5="13000.00000" pt_clust_6="13000.00000" pt_clust_7="13000.00000" pt_clust_8="13000.00000" pt_clust_9="138.95349" pt_clust_10="115.93458"></scales>
<clustering>
<clus scale="   88.116">  5  6 -1 -1</clus>
<clus scale="   90.274">  7  8 -1 -1</clus>
<clus scale="  115.935">  2 10  1 -1</clus>
<clus scale="  138.953">  1  9  2 -1</clus>
<clus scale="  320.440">  2  5  1 -1</clus>
<clus scale="  115.935">  2  5  1 -1</clus>
</clustering>
</event>
<event>
10    2  0.3544405E-006  0.1103309E+03  0.7546771E-02  0.1260536E+00
          2   -1    0    0  503    0 -0.00000000000E+00  0.00000000000E+00  0.25220565585E+03  0.25220565585E+03  0.00000000000E+00 0. -1.
         21   -1    0    0  501  502  0.00000000000E+00 -0.00000000000E+00 -0.45207297618E+03  0.45207297618E+03  0.00000000000E+00 0.  1.
         23    2    1    2    0    0 -0.10176145072E+02 -0.36659595670E+02  0.60904984360E+02  0.11584724173E+03  0.90904820626E+02 0.  0.
         23    2    1    2    0    0  0.18816288248E+02  0.68033616285E+02 -0.23785631259E+03  0.26475484699E+03  0.92395226727E+02 0.  0.
        -11    1    3    3    0    0 -0.39330077235E+02 -0.13116492726E+02 -0.32108424236E+01  0.41583733187E+02  0.00000000000E+00 0.  1.
         11    1    3    3    0    0  0.29153932163E+02 -0.23543102945E+02  0.64115826783E+02  0.74263508542E+02  0.00000000000E+00 0. -1.
        -13    1    4    4    0    0  0.47352973518E+02  0.30996520618E+02 -0.18830791460E+03  0.19662898844E+03  0.00000000000E+00 0.  1.
         13    1    4    4    0    0 -0.28536685270E+02  0.37037095666E+02 -0.49548397982E+02  0.68125858558E+02  0.00000000000E+00 0. -1.
         21    1    1    2  503  502  0.11863271971E+02 -0.26601123777E+02  0.14831925777E+03  0.15115210628E+03  0.00000000000E+00 0. -1.
          2    1    1    2  501    0 -0.20503415148E+02 -0.47728968374E+01 -0.17123524987E+03  0.17252443703E+03  0.00000000000E+00 0. -1.
<scales pt_clust_5="13000.00000" pt_clust_6="13000.00000" pt_clust_7="13000.00000" pt_clust_8="13000.00000" pt_clust_9="29.10658" pt_clust_10="21.05162"></scales>
<clustering>
<clus scale="   21.052">  2 10  1 -1</clus>
<clus scale="   29.107">  1  9  2 -1</clus>
<clus scale="   90.905">  5  6 -1 -1</clus>
<clus scale="   92.395">  7  8 -1 -1</clus>
<clus scale="  109.086">  1  5  2 -1</clus>
<clus scale="   21.052">  2  5  1 -1</clus>
</clustering>
</event>
<event>
10    2  0.3544405E-006  0.1385348E+03  0.7546771E-02  0.1216105E+00
         -2   -1    0    0    0  501 -0.00000000000E+00  0.00000000000E+00  0.60921638877E+03  0.60921638877E+03  0.00000000000E+00 0.  1.
         21   -1    0    0  503  502  0.00000000000E+00 -0.00000000000E+00 -0.15929459629E+03  0.15929459629E+03  0.00000000000E+00 0.  1.
         23    2    1    2    0    0 -0.12274058758E+03  0.32604663611E+02  0.31858997285E+03  0.35388839775E+03  0.87230220326E+02 0.  0.
         23    2    1    2    0    0  0.68946480548E+02 -0.53653340290E+02  0.18353974220E+03  0.22262014977E+03  0.90777728597E+02 0.  0.
        -13    1    4    4    0    0  0.79034205076E+02 -0.18930017557E+02  0.84743112462E+02  0.11741442095E+03  0.00000000000E+00 0.  1.
         13    1    4    4    0    0 -0.10087724528E+02 -0.34723322733E+02  0.98796629742E+02  0.10520572882E+03  0.00000000000E+00 0. -1.
        -13    1    3    3    0    0 -0.10853531820E+03 -0.77268084528E+01  0.19779873587E+03  0.22575198510E+03  0.00000000000E+00 0. -1.
         13    1    3    3    0    0 -0.14205269378E+02  0.40331472064E+02  0.12079123698E+03  0.12813641266E+03  0.00000000000E+00 0.  1.
         21    1    1    2  503  501  0.20141089076E+02  0.56736253841E+01  0.65424133017E+02  0.68688941433E+02  0.00000000000E+00 0. -1.
         -2    1    1    2    0  502  0.33653017951E+02  0.15375051295E+02 -0.11763205559E+03  0.12331349611E+03  0.00000000000E+00 0.  1.
<scales pt_clust_5="13000.00000" pt_clust_6="13000.00000" pt_clust_7="13000.00000" pt_clust_8="13000.00000" pt_clust_9="20.92495" pt_clust_10="37.10724"></scales>
<clustering>
<clus scale="   20.925">  1  9  2 -1</clus>
<clus scale="   37.107">  2 10  1 -1</clus>
<clus scale="   87.230">  7  8 -1 -1</clus>
<clus scale="   90.778">  5  6 -1 -1</clus>
<clus scale="  136.237">  1  7  2 -1</clus>
<clus scale="   37.107">  2  5  1 -1</clus>
</clustering>
</event>
<event>
10    2  0.3544405E-006  0.1117061E+03  0.7546771E-02  0.1257461E+00
         21   -1    0    0  501  502  0.00000000000E+00  0.00000000000E+00  0.45630289849E+03  0.45630289849E+03  0.00000000000E+00 0. -1.
          1   -1    0    0  503    0 -0.00000000000E+00 -0.00000000000E+00 -0.13356269744E+03  0.13356269744E+03  0.00000000000E+00 0. -1.
         23    2    1    2    0    0 -0.37400406830E+02  0.60457615765E+02  0.40413782192E+02  0.12336465391E+03  0.92366932981E+02 0.  0.
         23    2    1    2    0    0  0.50136495757E+02 -0.13813443008E+01  0.15743382177E+03  0.18931860615E+03  0.92415096585E+02 0.  0.
        -11    1    3    3    0    0  0.25276233523E+02  0.37117807191E+02  0.33703581690E+02  0.56147582411E+02  0.00000000000E+00 0.  1.
         11    1    3    3    0    0 -0.62676640353E+02  0.23339808575E+02  0.67102005020E+01  0.67217071500E+02  0.00000000000E+00 0. -1.
        -13    1    4    4    0    0  0.56460234689E+02 -0.30348940777E+02  0.61213203602E+02  0.88633360551E+02  0.00000000000E+00 0.  1.
         13    1    4    4    0    0 -0.63237389313E+01  0.28967596476E+02  0.96220618170E+02  0.10068524560E+03  0.00000000000E+00 0. -1.
         21    1    1    2  503  502 -0.20539678958E+02 -0.11568190075E+01 -0.70393879430E+02  0.73338359016E+02  0.00000000000E+00 0. -1.
          1    1    1    2  501    0  0.78035900303E+01 -0.57919452457E+02  0.19528647651E+03  0.20384397685E+03  0.00000000000E+00 0. -1.
<scales pt_clust_5="13000.00000" pt_clust_6="13000.00000" pt_clust_7="13000.00000" pt_clust_8="13000.00000" pt_clust_9="20.57223" pt_clust_10="58.34943"></scales>
<clustering>
<clus scale="   20.572">  2  9  1 -1</clus>
<clus scale="   58.349">  1 10  2 -1</clus>
<clus scale="   92.367">  5  6 -1 -1</clus>
<clus scale="   92.415">  7  8 -1 -1</clus>
<clus scale="  111.666">  2  5  1 -1</clus>
<clus scale="   58.349">  1  5  2 -1</clus>
</clustering>
</event>
<event>
10    2  0.3544405E-006  0.1041802E+03  0.7546771E-02  0.1274026E+00
         21   -1    0    0  501  502  0.00000000000E+00  0.00000000000E+00  0.53149517096E+02  0.53149517096E+02  0.00000000000E+00 0. -1.
          1   -1    0    0  503    0 -0.00000000000E+00 -0.00000000000E+00 -0.72211123109E+03  0.72211123109E+03  0.00000000000E+00 0. -1.
         23    2    1    2    0    0 -0.74211541762E+01 -0.17589296176E+02 -0.26598914167E+03  0.28124137630E+03  0.89342215037E+02 0.  0.
         23    2    1    2    0    0  0.26439840718E+02  0.13331054186E+02 -0.72543038385E+02  0.12261442970E+03  0.94313433669E+02 0.  0.
        -11    1    4    4    0    0  0.54209822976E+02  0.11693346840E+02 -0.76531261115E+02  0.94511762206E+02  0.00000000000E+00 0.  1.
         11    1    4    4    0    0 -0.27769982258E+02  0.16377073457E+01  0.39882227295E+01  0.28102667498E+02  0.00000000000E+00 0. -1.
        -11    1    3    3    0    0 -0.42709562052E+02  0.12313873956E+02 -0.14719622074E+03  0.15376106654E+03  0.00000000000E+00 0.  1.
         11    1    3    3    0    0  0.35288407876E+02 -0.29903170132E+02 -0.11879292093E+03  0.12748030977E+03  0.00000000000E+00 0. -1.
         21    1    1    2  503  502 -0.55938482766E+02 -0.50103844914E+02 -0.27613054117E+03  0.28616006866E+03  0.00000000000E+00 0. -1.
          1    1    1    2  501    0  0.36919796224E+02  0.54362086904E+02 -0.54298992766E+02  0.85244873518E+02  0.00000000000E+00 0. -1.
<scales pt_clust_5="13000.00000" pt_clust_6="13000.00000" pt_clust_7="13000.00000" pt_clust_8="13000.00000" pt_clust_9="66.64218" pt_clust_10="65.71383"></scales>
<clustering>
<clus scale="   65.714">  1 10  2 -1</clus>
<clus scale="   66.642">  2  9  1 -1</clus>
<clus scale="   89.342">  7  8 -1 -1</clus>
<clus scale="   94.313">  5  6 -1 -1</clus>
<clus scale="   99.702">  2  7  1 -1</clus>
<clus scale="   65.714">  1  5  2 -1</clus>
</clustering>
</event>
<event>
10    2  0.3544405E-006  0.9295250E+02  0.7546771E-02  0.1297679E+00
         21   -1    0    0  501  502  0.00000000000E+00  0.00000000000E+00  0.85076746683E+02  0.85076746683E+02  0.00000000000E+00 0. -1.
          2   -1    0    0  503    0 -0.00000000000E+00 -0.00000000000E+00 -0.59407531192E+03  0.59407531192E+03  0.00000000000E+00 0. -1.
         23    2    1    2    0    0  0.13701323888E+02  0.17580053053E+02 -0.32333769253E+03  0.33551840782E+03  0.86767240583E+02 0.  0.
         23    2    1    2    0    0  0.68281412589E+00 -0.12769257949E+02 -0.10131350853E+03  0.13609261072E+03  0.89962500515E+02 0.  0.
        -11    1    4    4    0    0  0.37671499861E+02 -0.16876011212E+02 -0.18368754401E+02  0.45181332367E+02  0.00000000000E+00 0.  1.
         11    1    4    4    0    0 -0.36988685735E+02  0.41067532625E+01 -0.82944754126E+02  0.90911278353E+02  0.00000000000E+00 0. -1.
        -13    1    3    3    0    0  0.19979650510E+02 -0.31643165084E+02 -0.17956758323E+03  0.18342571597E+03  0.00000000000E+00 0.  1.
         13    1    3    3    0    0 -0.62783266220E+01  0.49223218137E+02 -0.14377010930E+03  0.15209269186E+03  0.00000000000E+00 0. -1.
         21    1    1    2  503  502  0.22021455493E+02 -0.63560964086E+01 -0.13953729014E+03  0.14140721270E+03  0.00000000000E+00 0. -1.
          2    1    1    2  501    0 -0.36405593508E+02  0.15453013044E+01  0.55189925954E+02  0.66133827363E+02  0.00000000000E+00 0. -1.
<scales pt_clust_5="13000.00000" pt_clust_6="13000.00000" pt_clust_7="13000.00000" pt_clust_8="13000.00000" pt_clust_9="22.92039" pt_clust_10="36.16977"></scales>
<clustering>
<clus scale="   22.920">  2  9  1 -1</clus>
<clus scale="   36.170">  1 10  2 -1</clus>
<clus scale="   86.767">  7  8 -1 -1</clus>
<clus scale="   89.864">  2  7  1 -1</clus>
<clus scale="   89.963">  5  6 -1 -1</clus>
<clus scale="   36.170">  1  5  2 -1</clus>
</clustering>
</event>
<event>
10    2  0.3544405E-006  0.9609818E+02  0.7546771E-02  0.1298495E+00
         21   -1    0    0  501  502  0.00000000000E+00  0.00000000000E+00  0.22366466706E+03  0.22366466706E+03  0.00000000000E+00 0. -1.
          1   -1    0    0  503    0 -0.00000000000E+00 -0.00000000000E+00 -0.96774957621E+02  0.96774957621E+02  0.00000000000E+00 0. -1.
         23    2    1    2    0    0  0.31353860085E+02 -0.19569750963E+02 -0.19639835727E+02  0.10052219834E+03  0.91394472021E+02 0.  0.
         23    2    1    2    0    0 -0.28568693563E+02  0.30732659092E+02  0.10145539425E+03  0.13262342631E+03  0.74398317161E+02 0.  0.
        -11    1    4    4    0    0  0.22815819693E+02  0.21925303513E+02  0.26243268592E+02  0.41109484414E+02  0.00000000000E+00 0.  1.
         11    1    4    4    0    0 -0.51384513256E+02  0.88073555786E+01  0.75212125660E+02  0.91513941895E+02  0.00000000000E+00 0. -1.
        -11    1    3    3    0    0  0.62668276716E+02 -0.19155997389E+02 -0.21977712555E+02  0.69117906448E+02  0.00000000000E+00 0. -1.
         11    1    3    3    0    0 -0.31314416631E+02 -0.41375357479E+00  0.23378768277E+01  0.31404291889E+02  0.00000000000E+00 0.  1.
         21    1    1    2  503  502 -0.20938724362E+02  0.49384104914E+00 -0.13469453838E+02  0.24901812054E+02  0.00000000000E+00 0. -1.
          1    1    1    2  501    0  0.18153557840E+02 -0.11656749177E+02  0.58543604747E+02  0.62392187976E+02  0.00000000000E+00 0. -1.
<scales pt_clust_5="13000.00000" pt_clust_6="13000.00000" pt_clust_7="13000.00000" pt_clust_8="13000.00000" pt_clust_9="20.94455" pt_clust_10="21.13200"></scales>
<clustering>
<clus scale="   20.945">  2  9  1 -1</clus>
<clus scale="   21.132">  1 10  2 -1</clus>
<clus scale="   74.398">  5  6 -1 -1</clus>
<clus scale="   80.106">  1  5  2 -1</clus>
<clus scale="   91.394">  7  8 -1 -1</clus>
<clus scale="   21.132">  1  5  2 -1</clus>
</clustering>
</event>
<event>
10    2  0.3544405E-006  0.1018157E+03  0.7546771E-02  0.1277195E+00
         21   -1    0    0  501  502  0.00000000000E+00  0.00000000000E+00  0.85544389374E+02  0.85544389374E+02  0.00000000000E+00 0.  1.
          1   -1    0    0  503    0 -0.00000000000E+00 -0.00000000000E+00 -0.41924093210E+03  0.41924093210E+03  0.00000000000E+00 0. -1.
         23    2    1    2    0    0 -0.19038948727E+02 -0.25996518933E+02 -0.23952362621E+03  0.25850879380E+03  0.91743819377E+02 0.  0.
         23    2    1    2    0    0  0.14174313788E+02  0.32169947974E+02 -0.40416562552E+02  0.10499188957E+03  0.90299399905E+02 0.  0.
        -11    1    4    4    0    0  0.14630873775E+02 -0.27471846945E+02 -0.32201829781E+02  0.44785295391E+02  0.00000000000E+00 0. -1.
         11    1    4    4    0    0 -0.45655998724E+00  0.59641794920E+02 -0.82147327707E+01  0.60206594180E+02  0.00000000000E+00 0.  1.
        -13    1    3    3    0    0  0.21994443515E+02  0.13342725132E+02 -0.22540407553E+02  0.34203126057E+02  0.00000000000E+00 0.  1.
         13    1    3    3    0    0 -0.41033392242E+02 -0.39339244065E+02 -0.21698321866E+03  0.22430566774E+03  0.00000000000E+00 0. -1.
         21    1    1    2  503  502  0.26478948676E+01 -0.27484121945E+02 -0.92760720449E+02  0.96782950795E+02  0.00000000000E+00 0. -1.
          1    1    1    2  501    0  0.22167400721E+01  0.21310692904E+02  0.39004366483E+02  0.44501687309E+02  0.00000000000E+00 0. -1.
<scales pt_clust_5="13000.00000" pt_clust_6="13000.00000" pt_clust_7="13000.00000" pt_clust_8="13000.00000" pt_clust_9="26.64768" pt_clust_10="21.42568"></scales>
<clustering>
<clus scale="   21.426">  1 10  2 -1</clus>
<clus scale="   26.648">  2  9  1 -1</clus>
<clus scale="   90.299">  5  6 -1 -1</clus>
<clus scale="   91.744">  7  8 -1 -1</clus>
<clus scale="  100.516">  1  5  2 -1</clus>
<clus scale="   21.426">  1  5  2 -1</clus>
</clustering>
</event>
<event>
10    2  0.3544405E-006  0.1238670E+03  0.7546771E-02  0.1252518E+00
          1   -1    0    0  503    0 -0.00000000000E+00  0.00000000000E+00  0.52274702093E+03  0.52274702093E+03  0.00000000000E+00 0. -1.
         21   -1    0    0  501  502  0.00000000000E+00 -0.00000000000E+00 -0.70347929399E+02  0.70347929399E+02  0.00000000000E+00 0. -1.
         23    2    1    2    0    0  0.11149945208E+02  0.13151722365E+02  0.26725052530E+03  0.29424369808E+03  0.12189840650E+03 0.  0.
         23    2    1    2    0    0 -0.12132667261E+02 -0.14200439526E+02  0.12538217005E+03  0.15409425410E+03  0.87609910857E+02 0.  0.
        -13    1    4    4    0    0 -0.37464172601E+01 -0.48474444681E+02  0.44745550114E+02  0.66075499880E+02  0.00000000000E+00 0.  1.
         13    1    4    4    0    0 -0.83862500013E+01  0.34274005155E+02  0.80636619939E+02  0.88018754215E+02  0.00000000000E+00 0. -1.
        -13    1    3    3    0    0  0.43373698869E+02 -0.35799318848E+02  0.18422346072E+03  0.19261659447E+03  0.00000000000E+00 0.  1.
         13    1    3    3    0    0 -0.32223753661E+02  0.48951041214E+02  0.83027064575E+02  0.10162710361E+03  0.00000000000E+00 0. -1.
         21    1    1    2  503  502  0.70871928103E+01  0.29385709997E+02  0.94674252031E+02  0.99382907240E+02  0.00000000000E+00 0. -1.
          1    1    1    2  501    0 -0.61044707569E+01 -0.28336992837E+02 -0.34907855853E+02  0.45374090916E+02  0.00000000000E+00 0. -1.
<scales pt_clust_5="13000.00000" pt_clust_6="13000.00000" pt_clust_7="13000.00000" pt_clust_8="13000.00000" pt_clust_9="27.96975" pt_clust_10="28.98706"></scales>
<clustering>
<clus scale="   28.987">  2 10  1 -1</clus>
<clus scale="   27.970">  1  9  2 -1</clus>
<clus scale="   87.610">  5  6 -1 -1</clus>
<clus scale="   90.329">  2  5  1 -1</clus>
<clus scale="  121.898">  7  8 -1 -1</clus>
<clus scale="   28.987">  2  5  1 -1</clus>
</clustering>
</event>
<event>
10    2  0.3544405E-006  0.1012521E+03  0.7546771E-02  0.1278515E+00
          2   -1    0    0  503    0 -0.00000000000E+00  0.00000000000E+00  0.14547838034E+03  0.14547838034E+03  0.00000000000E+00 0. -1.
         21   -1    0    0  501  502  0.00000000000E+00 -0.00000000000E+00 -0.34378512694E+03  0.34378512694E+03  0.00000000000E+00 0. -1.
         23    2    1    2    0    0 -0.20661856258E+02  0.67791816107E+02 -0.50332877635E+02  0.12650124051E+03  0.91904965286E+02 0.  0.
         23    2    1    2    0    0  0.33312874017E+02 -0.58834577307E+01 -0.10302353865E+03  0.14101327147E+03  0.90147271534E+02 0.  0.
        -11    1    3    3    0    0  0.16781983595E+02  0.20921565265E+02 -0.60014066660E+02  0.65734580424E+02  0.00000000000E+00 0.  1.
         11    1    3    3    0    0 -0.37443839852E+02  0.46870250842E+02  0.96811890253E+01  0.60766660085E+02  0.00000000000E+00 0. -1.
        -13    1    4    4    0    0  0.32942483180E+02 -0.38271541022E+02 -0.95088982303E+02  0.10766537329E+03  0.00000000000E+00 0.  1.
         13    1    4    4    0    0  0.37039083655E+00  0.32388083291E+02 -0.79345563453E+01  0.33347898180E+02  0.00000000000E+00 0. -1.
         21    1    1    2  503  502 -0.33505867015E+02 -0.68444909836E+02  0.70760482788E+02  0.10399228207E+03  0.00000000000E+00 0.  1.
          2    1    1    2  501    0  0.20854849256E+02  0.65365514592E+01 -0.11571081310E+03  0.11775671323E+03  0.00000000000E+00 0. -1.
<scales pt_clust_5="13000.00000" pt_clust_6="13000.00000" pt_clust_7="13000.00000" pt_clust_8="13000.00000" pt_clust_9="75.11427" pt_clust_10="21.85523"></scales>
<clustering>
<clus scale="   21.855">  2 10  1 -1</clus>
<clus scale="   75.114">  1  9  2 -1</clus>
<clus scale="   90.147">  7  8 -1 -1</clus>
<clus scale="   91.905">  5  6 -1 -1</clus>
<clus scale="   99.659">  2  7  1 -1</clus>
<clus scale="   21.855">  2  5  1 -1</clus>
</clustering>
</event>
<event>
10    2  0.3544405E-006  0.1132333E+03  0.7546771E-02  0.1257525E+00
         21   -1    0    0  503  502  0.00000000000E+00  0.00000000000E+00  0.14267360940E+03  0.14267360940E+03  0.00000000000E+00 0. -1.
         -3   -1    0    0    0  501 -0.00000000000E+00 -0.00000000000E+00 -0.25296364146E+03  0.25296364146E+03  0.00000000000E+00 0.  1.
         23    2    1    2    0    0  0.42219018050E+02  0.34620186285E+02 -0.10695680224E+03  0.15065029844E+03  0.90965664357E+02 0.  0.
         23    2    1    2    0    0 -0.54353094032E+02 -0.45603961645E+02 -0.58901643773E+02  0.13466718038E+03  0.98142068882E+02 0.  0.
        -11    1    4    4    0    0 -0.14073538610E+02 -0.63035368174E+02 -0.44654049462E+01  0.64741501150E+02  0.00000000000E+00 0. -1.
         11    1    4    4    0    0 -0.40279555422E+02  0.17431406529E+02 -0.54436238826E+02  0.69925679232E+02  0.00000000000E+00 0.  1.
        -11    1    3    3    0    0 -0.14377698007E+02  0.36935609593E+02 -0.76929334148E+02  0.86539470234E+02  0.00000000000E+00 0.  1.
         11    1    3    3    0    0  0.56596716057E+02 -0.23154233086E+01 -0.30027468092E+02  0.64110828208E+02  0.00000000000E+00 0. -1.
         21    1    1    2  503  501 -0.22310372666E+02 -0.23853717936E+01 -0.17490588812E+02  0.28449313245E+02  0.00000000000E+00 0.  1.
         -3    1    1    2    0  502  0.34444448648E+02  0.13369147154E+02  0.73059002766E+02  0.81870458796E+02  0.00000000000E+00 0.  1.
<scales pt_clust_5="13000.00000" pt_clust_6="13000.00000" pt_clust_7="13000.00000" pt_clust_8="13000.00000" pt_clust_9="22.43753" pt_clust_10="36.53321"></scales>
<clustering>
<clus scale="   22.438">  2  9  1 -1</clus>
<clus scale="   36.533">  1 10  2 -1</clus>
<clus scale="   90.966">  7  8 -1 -1</clus>
<clus scale="   98.142">  5  6 -1 -1</clus>
<clus scale="  107.073">  2  7  1 -1</clus>
<clus scale="   36.533">  1  5  2 -1</clus>
</clustering>
</event>
<event>
10    2  0.3544405E-006  0.1328844E+03  0.7546771E-02  0.1246680E+00
          2   -1    0    0  503    0 -0.00000000000E+00  0.00000000000E+00  0.46246480567E+03  0.46246480567E+03  0.00000000000E+00 0. -1.
         21   -1    0    0  501  502  0.00000000000E+00 -0.00000000000E+00 -0.14026823245E+03  0.14026823245E+03  0.00000000000E+00 0.  1.
         23    2    1    2    0    0  0.18661222994E+02 -0.99943198608E+01  0.14572727845E+03  0.16755896347E+03  0.79946475115E+02 0.  0.
         23    2    1    2    0    0 -0.52729044286E+02  0.75151123833E+02  0.22161981757E+03  0.25722932959E+03  0.92863022449E+02 0.  0.
        -11    1    3    3    0    0 -0.20913624544E+02 -0.26994319279E+02  0.35702340585E+02  0.49403745689E+02  0.00000000000E+00 0. -1.
         11    1    3    3    0    0  0.39574847538E+02  0.16999999418E+02  0.11002493786E+03  0.11815521778E+03  0.00000000000E+00 0.  1.
        -11    1    4    4    0    0 -0.77444049786E+02  0.70574888507E+02  0.18834977229E+03  0.21553197549E+03  0.00000000000E+00 0.  1.
         11    1    4    4    0    0  0.24715005500E+02  0.45762353256E+01  0.33270045278E+02  0.41697354106E+02  0.00000000000E+00 0. -1.
         21    1    1    2  503  502  0.13544795529E+01  0.24665109608E+02  0.41909786133E+02  0.48648046421E+02  0.00000000000E+00 0.  1.
          2    1    1    2  501    0  0.32713341739E+02 -0.89821913579E+02 -0.87060308936E+02  0.12929669864E+03  0.00000000000E+00 0. -1.
<scales pt_clust_5="13000.00000" pt_clust_6="13000.00000" pt_clust_7="13000.00000" pt_clust_8="13000.00000" pt_clust_9="24.70227" pt_clust_10="95.05109"></scales>
<clustering>
<clus scale="   24.702">  1  9  2 -1</clus>
<clus scale="   79.946">  5  6 -1 -1</clus>
<clus scale="   82.216">  1  5  2 -1</clus>
<clus scale="   92.863">  7  8 -1 -1</clus>
<clus scale="   95.051">  2 10  1 -1</clus>
<clus scale="   95.051">  2  5  1 -1</clus>
</clustering>
</event>
<event>
10    2  0.3544405E-006  0.9803557E+02  0.7546771E-02  0.1284608E+00
         21   -1    0    0  501  502  0.00000000000E+00  0.00000000000E+00  0.32921073120E+03  0.32921073120E+03  0.00000000000E+00 0.  1.
          1   -1    0    0  503    0 -0.00000000000E+00 -0.00000000000E+00 -0.72666426393E+02  0.72666426393E+02  0.00000000000E+00 0. -1.
         23    2    1    2    0    0 -0.37300674925E+02  0.30847633614E+01  0.62405926735E+02  0.11727790619E+03  0.91971470983E+02 0.  0.
         23    2    1    2    0    0  0.12148975786E+02 -0.34516561266E+02  0.99599145554E+02  0.14058301237E+03  0.92220404238E+02 0.  0.
        -13    1    4    4    0    0 -0.73481575424E+01  0.24552106540E+02  0.31582685060E+01  0.25822006405E+02  0.00000000000E+00 0. -1.
         13    1    4    4    0    0  0.19497133328E+02 -0.59068667807E+02  0.96440877048E+02  0.11476100597E+03  0.00000000000E+00 0.  1.
        -13    1    3    3    0    0 -0.66070851900E+01 -0.43158286929E+02  0.24485128797E+02  0.50058094626E+02  0.00000000000E+00 0.  1.
         13    1    3    3    0    0 -0.30693589735E+02  0.46243050291E+02  0.37920797938E+02  0.67219811568E+02  0.00000000000E+00 0. -1.
         21    1    1    2  503  502 -0.15248601451E+02  0.14361129321E+02 -0.15171392050E+02  0.25863739449E+02  0.00000000000E+00 0. -1.
          1    1    1    2  501    0  0.40400300590E+02  0.17070668584E+02  0.10971062457E+03  0.11815249958E+03  0.00000000000E+00 0. -1.
<scales pt_clust_5="13000.00000" pt_clust_6="13000.00000" pt_clust_7="13000.00000" pt_clust_8="13000.00000" pt_clust_9="20.94664" pt_clust_10="43.20215"></scales>
<clustering>
<clus scale="   20.947">  2  9  1 -1</clus>
<clus scale="   43.202">  1 10  2 -1</clus>
<clus scale="   91.971">  7  8 -1 -1</clus>
<clus scale="   92.220">  5  6 -1 -1</clus>
<clus scale="   97.801">  2  7  1 -1</clus>
<clus scale="   43.202">  1  5  2 -1</clus>
</clustering>
</event>
<event>
10    2  0.3544405E-006  0.1290700E+03  0.7546771E-02  0.1233530E+00
         21   -1    0    0  503  502  0.00000000000E+00  0.00000000000E+00  0.11998180489E+04  0.11998180489E+04  0.00000000000E+00 0. -1.
         -3   -1    0    0    0  501 -0.00000000000E+00 -0.00000000000E+00 -0.48438209273E+02  0.48438209273E+02  0.00000000000E+00 0.  1.
         23    2    1    2    0    0 -0.57370781418E+01  0.28317262317E+02  0.51353548291E+02  0.11265238286E+03  0.96013494007E+02 0.  0.
         23    2    1    2    0    0  0.60876235659E+01 -0.10597572057E+03  0.74277180525E+03  0.75836887386E+03  0.11020654090E+03 0.  0.
        -11    1    3    3    0    0 -0.31414963312E+02  0.16117813314E+02  0.70175633632E+02  0.78557643687E+02  0.00000000000E+00 0. -1.
         11    1    3    3    0    0  0.25677885170E+02  0.12199449003E+02 -0.18822085341E+02  0.34094739175E+02  0.00000000000E+00 0.  1.
        -13    1    4    4    0    0  0.53116288707E+02 -0.83707795666E+02  0.42852295273E+03  0.43984117156E+03  0.00000000000E+00 0.  1.
         13    1    4    4    0    0 -0.47028665141E+02 -0.22267924900E+02  0.31424885252E+03  0.31852770230E+03  0.00000000000E+00 0. -1.
         21    1    1    2  503  501 -0.28974225268E+02  0.35238398329E+02  0.58786256983E+02  0.74411520994E+02  0.00000000000E+00 0.  1.
         -3    1    1    2    0  502  0.28623679844E+02  0.42420059919E+02  0.29846822911E+03  0.30282348046E+03  0.00000000000E+00 0.  1.
<scales pt_clust_5="13000.00000" pt_clust_6="13000.00000" pt_clust_7="13000.00000" pt_clust_8="13000.00000" pt_clust_9="45.62072" pt_clust_10="51.92396"></scales>
<clustering>
<clus scale="   45.621">  2  9  1 -1</clus>
<clus scale="   51.924">  1 10  2 -1</clus>
<clus scale="   96.013">  5  6 -1 -1</clus>
<clus scale="  110.207">  7  8 -1 -1</clus>
<clus scale="  117.184">  2  5  1 -1</clus>
<clus scale="   51.924">  1  5  2 -1</clus>
</clustering>
</event>
<event>
10    2  0.3544405E-006  0.1507050E+03  0.7546771E-02  0.1199999E+00
         21   -1    0    0  503  502  0.00000000000E+00  0.00000000000E+00  0.64201054056E+03  0.64201054056E+03  0.00000000000E+00 0.  1.
         -2   -1    0    0    0  501 -0.00000000000E+00 -0.00000000000E+00 -0.27576447784E+03  0.27576447784E+03  0.00000000000E+00 0. -1.
         23    2    1    2    0    0 -0.44854790778E+02 -0.12248764396E+03 -0.12836977052E+03  0.20377731633E+03  0.89617082562E+02 0.  0.
         23    2    1    2    0    0  0.84953463154E+02  0.11596974281E+03  0.37529385661E+03  0.41221882894E+03  0.91721382339E+02 0.  0.
        -13    1    4    4    0    0  0.88856719551E+02  0.70656916079E+02  0.32574896918E+03  0.34496421165E+03  0.00000000000E+00 0.  1.
         13    1    4    4    0    0 -0.39032563965E+01  0.45312826729E+02  0.49544887432E+02  0.67254617293E+02  0.00000000000E+00 0. -1.
        -13    1    3    3    0    0  0.84812409655E+01 -0.97857386095E+02 -0.67502800293E+02  0.11918316789E+03  0.00000000000E+00 0.  1.
         13    1    3    3    0    0 -0.53336031743E+02 -0.24630257870E+02 -0.60866970227E+02  0.84594148435E+02  0.00000000000E+00 0. -1.
         21    1    1    2  503  501 -0.23939778838E+02  0.28887367926E+02 -0.86410538590E+02  0.94203897031E+02  0.00000000000E+00 0. -1.
         -2    1    1    2    0  502 -0.16158893538E+02 -0.22369466769E+02  0.20573251522E+03  0.20757497610E+03  0.00000000000E+00 0. -1.
<scales pt_clust_5="13000.00000" pt_clust_6="13000.00000" pt_clust_7="13000.00000" pt_clust_8="13000.00000" pt_clust_9="37.45679" pt_clust_10="27.59534"></scales>
<clustering>
<clus scale="   27.595">  1 10  2 -1</clus>
<clus scale="   37.457">  2  9  1 -1</clus>
<clus scale="   89.617">  7  8 -1 -1</clus>
<clus scale="   91.721">  5  6 -1 -1</clus>
<clus scale="  149.434">  2  7  1 -1</clus>
<clus scale="   27.595">  1  5  2 -1</clus>
</clustering>
</event>
<event>
10    2  0.3544405E-006  0.1274284E+03  0.7546771E-02  0.1237775E+00
         -2   -1    0    0    0  501 -0.00000000000E+00  0.00000000000E+00  0.17996254466E+03  0.17996254466E+03  0.00000000000E+00 0.  1.
         21   -1    0    0  503  502  0.00000000000E+00 -0.00000000000E+00 -0.31025122058E+03  0.31025122058E+03  0.00000000000E+00 0.  1.
         23    2    1    2    0    0 -0.35716966923E+02  0.61498676210E+02  0.37157318880E+02  0.12244236733E+03  0.92486096630E+02 0.  0.
         23    2    1    2    0    0  0.87067495291E+01  0.53168177360E+02 -0.49905817886E+02  0.11753432506E+03  0.91766357326E+02 0.  0.
        -11    1    4    4    0    0 -0.24618818283E+02 -0.16099137766E+02 -0.16443141555E+02  0.33699337600E+02  0.00000000000E+00 0.  1.
         11    1    4    4    0    0  0.33325567812E+02  0.69267315127E+02 -0.33462676331E+02  0.83834987458E+02  0.00000000000E+00 0. -1.
        -13    1    3    3    0    0  0.72509923961E+01  0.71650332363E+02  0.28500467793E+02  0.77450782326E+02  0.00000000000E+00 0.  1.
         13    1    3    3    0    0 -0.42967959320E+02 -0.10151656152E+02  0.86568510864E+01  0.44991585007E+02  0.00000000000E+00 0. -1.
         21    1    1    2  503  501 -0.17505926811E+02 -0.12294957522E+03  0.93437430482E-01  0.12418963020E+03  0.00000000000E+00 0.  1.
         -2    1    1    2    0  502  0.44516144205E+02  0.82827216454E+01 -0.11763361435E+03  0.12604744265E+03  0.00000000000E+00 0.  1.
<scales pt_clust_5="13000.00000" pt_clust_6="13000.00000" pt_clust_7="13000.00000" pt_clust_8="13000.00000" pt_clust_9="87.66019" pt_clust_10="45.28013"></scales>
<clustering>
<clus scale="   45.280">  2 10  1 -1</clus>
<clus scale="   91.766">  5  6 -1 -1</clus>
<clus scale="   92.486">  7  8 -1 -1</clus>
<clus scale="  111.644">  2  5  1 -1</clus>
<clus scale="   87.660">  2  9  1 -1</clus>
<clus scale="   45.280">  2  5  1 -1</clus>
</clustering>
</event>
<event>
10    2  0.3544405E-006  0.1088621E+03  0.7546771E-02  0.1263054E+00
         -4   -1    0    0    0  501 -0.00000000000E+00  0.00000000000E+00  0.18142129159E+03  0.18142129159E+03  0.00000000000E+00 0.  1.
         21   -1    0    0  503  502  0.00000000000E+00 -0.00000000000E+00 -0.29819817797E+03  0.29819817797E+03  0.00000000000E+00 0. -1.
         23    2    1    2    0    0  0.50596613337E+02 -0.18112765543E+02  0.69095177899E+02  0.12573566149E+03  0.90261970982E+02 0.  0.
         23    2    1    2    0    0 -0.10603971215E+03 -0.29167436994E+02 -0.71995159502E+02  0.15997708805E+03  0.91182266787E+02 0.  0.
        -11    1    3    3    0    0  0.51436524502E+02 -0.48687185734E+02  0.62473877976E+02  0.94441217362E+02  0.00000000000E+00 0.  1.
         11    1    3    3    0    0 -0.83991116556E+00  0.30574420191E+02  0.66212999233E+01  0.31294444131E+02  0.00000000000E+00 0. -1.
        -11    1    4    4    0    0  0.20429939675E+00 -0.26893519559E+02  0.67317279977E+01  0.27723984099E+02  0.00000000000E+00 0.  1.
         11    1    4    4    0    0 -0.10624401154E+03 -0.22739174356E+01 -0.78726887500E+02  0.13225310395E+03  0.00000000000E+00 0. -1.
         21    1    1    2  503  501 -0.11033279171E+02 -0.18511294808E+02  0.20792143901E+02  0.29945192147E+02  0.00000000000E+00 0. -1.
         -4    1    1    2    0  502  0.66476377981E+02  0.65791497345E+02 -0.13466904868E+03  0.16396152788E+03  0.00000000000E+00 0.  1.
<scales pt_clust_5="13000.00000" pt_clust_6="13000.00000" pt_clust_7="13000.00000" pt_clust_8="13000.00000" pt_clust_9="21.54997" pt_clust_10="91.57203"></scales>
<clustering>
<clus scale="   21.550">  1  9  2 -1</clus>
<clus scale="   90.262">  5  6 -1 -1</clus>
<clus scale="   91.182">  7  8 -1 -1</clus>
<clus scale="   91.572">  2 10  1 -1</clus>
<clus scale="  108.092">  1  5  2 -1</clus>
<clus scale="   91.572">  2  5  1 -1</clus>
</clustering>
</event>
<event>
10    2  0.3544405E-006  0.1391480E+03  0.7546771E-02  0.1214809E+00
         -3   -1    0    0    0  501 -0.00000000000E+00  0.00000000000E+00  0.38651918488E+03  0.38651918488E+03  0.00000000000E+00 0.  1.
         21   -1    0    0  503  502  0.00000000000E+00 -0.00000000000E+00 -0.30729094141E+03  0.30729094141E+03  0.00000000000E+00 0.  1.
         23    2    1    2    0    0 -0.93730067631E+02  0.36251957471E+02  0.28596558338E+03  0.31626476591E+03  0.90263820433E+02 0.  0.
         23    2    1    2    0    0  0.77385341471E+02 -0.26781271288E+02 -0.32965025704E+02  0.12518624945E+03  0.88764725901E+02 0.  0.
        -11    1    4    4    0    0  0.39579277118E+02 -0.16001844962E+02  0.29136940973E+02  0.51686937892E+02  0.00000000000E+00 0.  1.
         11    1    4    4    0    0  0.37806064353E+02 -0.10779426326E+02 -0.62101966677E+02  0.73499311554E+02  0.00000000000E+00 0. -1.
        -13    1    3    3    0    0  0.23290694173E+01  0.34196976576E+02  0.11671282014E+03  0.12164185199E+03  0.00000000000E+00 0. -1.
         13    1    3    3    0    0 -0.96059137049E+02  0.20549808950E+01  0.16925276324E+03  0.19462291392E+03  0.00000000000E+00 0.  1.
         21    1    1    2  503  501 -0.17713431734E+02 -0.98339381614E+01  0.35208147324E+02  0.40621246184E+02  0.00000000000E+00 0. -1.
         -3    1    1    2    0  502  0.34058157894E+02  0.36325197802E+00 -0.20898046152E+03  0.21173786475E+03  0.00000000000E+00 0.  1.
<scales pt_clust_5="13000.00000" pt_clust_6="13000.00000" pt_clust_7="13000.00000" pt_clust_8="13000.00000" pt_clust_9="20.26011" pt_clust_10="33.98965"></scales>
<clustering>
<clus scale="   20.260">  1  9  2 -1</clus>
<clus scale="   33.990">  2 10  1 -1</clus>
<clus scale="   88.765">  5  6 -1 -1</clus>
<clus scale="   90.264">  7  8 -1 -1</clus>
<clus scale="  138.180">  2  5  1 -1</clus>
<clus scale="   33.990">  2  5  1 -1</clus>
</clustering>
</event>
<event>
10    2  0.3544405E-006  0.1231865E+03  0.7546771E-02  0.1248633E+00
          1   -1    0    0  503    0 -0.00000000000E+00  0.00000000000E+00  0.85053284058E+02  0.85053284058E+02  0.00000000000E+00 0. -1.
         21   -1    0    0  501  502  0.00000000000E+00 -0.00000000000E+00 -0.22213473692E+03  0.22213473692E+03  0.00000000000E+00 0.  1.
         23    2    1    2    0    0  0.46950372437E+01  0.39397295135E+02 -0.53519490387E+02  0.13311068221E+03  0.11523856832E+03 0.  0.
         23    2    1    2    0    0  0.28457368515E+01 -0.43841903835E+02 -0.71690380892E+02  0.12256839400E+03  0.89181218568E+02 0.  0.
        -11    1    3    3    0    0 -0.20147506021E+02 -0.25687773847E+02 -0.54395465725E+02  0.63440132531E+02  0.00000000000E+00 0.  1.
         11    1    3    3    0    0  0.24842543264E+02  0.65085068982E+02  0.87597533886E+00  0.69670549682E+02  0.00000000000E+00 0. -1.
        -11    1    4    4    0    0  0.22103683180E+02 -0.56455747346E+02 -0.77910948620E+02  0.98721528216E+02  0.00000000000E+00 0.  1.
         11    1    4    4    0    0 -0.19257946328E+02  0.12613843511E+02  0.62205677274E+01  0.23846865785E+02  0.00000000000E+00 0. -1.
         21    1    1    2  503  502  0.35589125869E+01  0.25383509020E+02 -0.16056645083E+01  0.25682027713E+02  0.00000000000E+00 0. -1.
          1    1    1    2  501    0 -0.11099686682E+02 -0.20938900319E+02 -0.10265917077E+02  0.25826917053E+02  0.00000000000E+00 0. -1.
<scales pt_clust_5="13000.00000" pt_clust_6="13000.00000" pt_clust_7="13000.00000" pt_clust_8="13000.00000" pt_clust_9="24.14854" pt_clust_10="23.69897"></scales>
<clustering>
<clus scale="   23.699">  2 10  1 -1</clus>
<clus scale="   24.149">  1  9  2 -1</clus>
<clus scale="   89.181">  7  8 -1 -1</clus>
<clus scale="   99.238">  2  7  1 -1</clus>
<clus scale="  115.239">  5  6 -1 -1</clus>
<clus scale="   23.699">  2  5  1 -1</clus>
</clustering>
</event>
<event>
10    2  0.3544405E-006  0.1472757E+03  0.7546771E-02  0.1205506E+00
         -3   -1    0    0    0  501 -0.00000000000E+00  0.00000000000E+00  0.64629472964E+03  0.64629472964E+03  0.00000000000E+00 0.  1.
         21   -1    0    0  503  502  0.00000000000E+00 -0.00000000000E+00 -0.21012842939E+03  0.21012842939E+03  0.00000000000E+00 0. -1.
         23    2    1    2    0    0 -0.16844548188E+03 -0.10055961304E+03  0.20468736228E+03  0.29723505563E+03  0.89250467110E+02 0.  0.
         23    2    1    2    0    0  0.58947040898E+02  0.10788873504E+03 -0.10597415351E+03  0.18118193345E+03  0.80508626972E+02 0.  0.
        -11    1    3    3    0    0 -0.15405506506E+03 -0.11696478391E+03  0.17915889708E+03  0.26365059103E+03  0.00000000000E+00 0.  1.
         11    1    3    3    0    0 -0.14390416817E+02  0.16405170868E+02  0.25528465199E+02  0.33584464605E+02  0.00000000000E+00 0. -1.
        -13    1    4    4    0    0  0.56866744017E+02  0.68476942553E+02 -0.27199676637E+02  0.93073845122E+02  0.00000000000E+00 0.  1.
         13    1    4    4    0    0  0.20802968807E+01  0.39411792489E+02 -0.78774476872E+02  0.88108088328E+02  0.00000000000E+00 0. -1.
         21    1    1    2  503  501  0.12353701441E+03  0.99287230647E+01  0.33300386872E+03  0.35531894131E+03  0.00000000000E+00 0.  1.
         -3    1    1    2    0  502 -0.14038573430E+02 -0.17257845065E+02  0.44492227607E+01  0.22687228642E+02  0.00000000000E+00 0.  1.
<scales pt_clust_5="13000.00000" pt_clust_6="13000.00000" pt_clust_7="13000.00000" pt_clust_8="13000.00000" pt_clust_9="123.08511" pt_clust_10="22.24668"></scales>
<clustering>
<clus scale="   22.247">  2 10  1 -1</clus>
<clus scale="   80.509">  7  8 -1 -1</clus>
<clus scale="   89.250">  5  6 -1 -1</clus>
<clus scale="  123.085">  1  9  2 -1</clus>
<clus scale="  142.148">  2  7  1 -1</clus>
<clus scale="   22.247">  2  5  1 -1</clus>
</clustering>
</event>
<event>
10    2  0.3544405E-006  0.1286025E+03  0.7546771E-02  0.1229796E+00
         21   -1    0    0  501  502  0.00000000000E+00  0.00000000000E+00  0.63216294741E+03  0.63216294741E+03  0.00000000000E+00 0. -1.
          2   -1    0    0  503    0 -0.00000000000E+00 -0.00000000000E+00 -0.17976515627E+03  0.17976515627E+03  0.00000000000E+00 0. -1.
         23    2    1    2    0    0 -0.53659112301E+02 -0.22878656430E+02 -0.45787364535E+02  0.11777496001E+03  0.91497132199E+02 0.  0.
         23    2    1    2    0    0  0.88651520989E+01  0.84846294538E+02  0.12615840777E+03  0.17718326700E+03  0.90556510717E+02 0.  0.
        -11    1    4    4    0    0 -0.31670304167E+02  0.73187433295E+02  0.64947688416E+02  0.10284751231E+03  0.00000000000E+00 0.  1.
         11    1    4    4    0    0  0.40535456266E+02  0.11658861243E+02  0.61210719357E+02  0.74335754684E+02  0.00000000000E+00 0. -1.
        -11    1    3    3    0    0 -0.16305327756E+01 -0.43173777698E+02 -0.44341234091E+02  0.61909439980E+02  0.00000000000E+00 0. -1.
         11    1    3    3    0    0 -0.52028579525E+02  0.20295121268E+02 -0.14461304436E+01  0.55865520028E+02  0.00000000000E+00 0.  1.
         21    1    1    2  503  502 -0.46226110807E+02 -0.80404403202E+02 -0.35265663025E+02  0.99223930396E+02  0.00000000000E+00 0. -1.
          2    1    1    2  501    0  0.91020071008E+02  0.18436765094E+02  0.40729241093E+03  0.41774594628E+03  0.00000000000E+00 0. -1.
<scales pt_clust_5="13000.00000" pt_clust_6="13000.00000" pt_clust_7="13000.00000" pt_clust_8="13000.00000" pt_clust_9="92.74547" pt_clust_10="90.08061"></scales>
<clustering>
<clus scale="   90.557">  5  6 -1 -1</clus>
<clus scale="   91.497">  7  8 -1 -1</clus>
<clus scale="   92.745">  2  9  1 -1</clus>
<clus scale="   90.081">  1 10  2 -1</clus>
<clus scale="  127.935">  1  5  2 -1</clus>
<clus scale="   90.081">  1  5  2 -1</clus>
</clustering>
</event>
<event>
10    2  0.3544405E-006  0.1185134E+03  0.7546771E-02  0.1245791E+00
          1   -1    0    0  503    0 -0.00000000000E+00  0.00000000000E+00  0.18784094582E+03  0.18784094582E+03  0.00000000000E+00 0. -1.
         21   -1    0    0  501  502  0.00000000000E+00 -0.00000000000E+00 -0.22185519934E+03  0.22185519934E+03  0.00000000000E+00 0.  1.
         23    2    1    2    0    0  0.75106263717E+02  0.72085307973E+02  0.28162681268E+02  0.14114033811E+03  0.91050623016E+02 0.  0.
         23    2    1    2    0    0 -0.25418467403E+02 -0.42260799080E+02 -0.19298728193E+02  0.10591983776E+03  0.91730570137E+02 0.  0.
        -13    1    3    3    0    0  0.19932543228E+02  0.79792969050E+02  0.21684011225E+02  0.85055396843E+02  0.00000000000E+00 0.  1.
         13    1    3    3    0    0  0.55173720489E+02 -0.77076610766E+01  0.64786700433E+01  0.56084941271E+02  0.00000000000E+00 0. -1.
        -13    1    4    4    0    0 -0.50367684052E+02  0.27192483527E+01 -0.20555115583E+02  0.54468437512E+02  0.00000000000E+00 0. -1.
         13    1    4    4    0    0  0.24949216649E+02 -0.44980047433E+02  0.12563873899E+01  0.51451400250E+02  0.00000000000E+00 0.  1.
         21    1    1    2  503  502 -0.24342611265E+02 -0.91881976778E+01  0.54244193025E+02  0.60161600516E+02  0.00000000000E+00 0. -1.
          1    1    1    2  501    0 -0.25345185048E+02 -0.20636311215E+02 -0.97122399620E+02  0.10247436876E+03  0.00000000000E+00 0. -1.
<scales pt_clust_5="13000.00000" pt_clust_6="13000.00000" pt_clust_7="13000.00000" pt_clust_8="13000.00000" pt_clust_9="26.01895" pt_clust_10="33.18981"></scales>
<clustering>
<clus scale="   26.019">  1  9  2 -1</clus>
<clus scale="   33.190">  2 10  1 -1</clus>
<clus scale="   91.051">  5  6 -1 -1</clus>
<clus scale="   91.731">  7  8 -1 -1</clus>
<clus scale="  117.988">  1  5  2 -1</clus>
<clus scale="   33.190">  2  5  1 -1</clus>
</clustering>
</event>
<event>
10    2  0.3544405E-006  0.1017939E+03  0.7546771E-02  0.1277162E+00
         -3   -1    0    0    0  501 -0.00000000000E+00  0.00000000000E+00  0.50183410970E+03  0.50183410970E+03  0.00000000000E+00 0.  1.
         21   -1    0    0  503  502  0.00000000000E+00 -0.00000000000E+00 -0.40008907440E+03  0.40008907440E+03  0.00000000000E+00 0.  1.
         23    2    1    2    0    0 -0.53021982141E+01 -0.11869845829E+02  0.21525186904E+03  0.23420716022E+03  0.91381728072E+02 0.  0.
         23    2    1    2    0    0 -0.42215063287E+01 -0.96491751777E+01 -0.93150807871E+02  0.13180097138E+03  0.92647155129E+02 0.  0.
        -11    1    4    4    0    0 -0.10691731736E+02  0.37577044441E+02 -0.18494874192E+02  0.43225082623E+02  0.00000000000E+00 0.  1.
         11    1    4    4    0    0  0.64702254077E+01 -0.47226219618E+02 -0.74655933679E+02  0.88575888761E+02  0.00000000000E+00 0. -1.
        -13    1    3    3    0    0 -0.31914837589E+02  0.21600660012E+02  0.47897302834E+02  0.61475987101E+02  0.00000000000E+00 0.  1.
         13    1    3    3    0    0  0.26612639375E+02 -0.33470505840E+02  0.16735456621E+03  0.17273117312E+03  0.00000000000E+00 0. -1.
         21    1    1    2  503  501 -0.48511077558E+02  0.13088298188E+02  0.25218207444E+03  0.25713892522E+03  0.00000000000E+00 0.  1.
         -3    1    1    2    0  502  0.58034782101E+02  0.84307228186E+01 -0.27253810031E+03  0.27877612728E+03  0.00000000000E+00 0.  1.
<scales pt_clust_5="13000.00000" pt_clust_6="13000.00000" pt_clust_7="13000.00000" pt_clust_8="13000.00000" pt_clust_9="50.24568" pt_clust_10="58.06245"></scales>
<clustering>
<clus scale="   50.246">  1  9  2 -1</clus>
<clus scale="   58.062">  2 10  1 -1</clus>
<clus scale="   91.382">  7  8 -1 -1</clus>
<clus scale="   92.647">  5  6 -1 -1</clus>
<clus scale="  100.644">  1  7  2 -1</clus>
<clus scale="   58.062">  2  5  1 -1</clus>
</clustering>
</event>
<event>
10    2  0.3544405E-006  0.1915176E+03  0.7546771E-02  0.1157225E+00
         21   -1    0    0  503  502  0.00000000000E+00  0.00000000000E+00  0.42161213017E+03  0.42161213017E+03  0.00000000000E+00 0.  1.
         -1   -1    0    0    0  501 -0.00000000000E+00 -0.00000000000E+00 -0.24145846974E+03  0.24145846974E+03  0.00000000000E+00 0.  1.
         23    2    1    2    0    0  0.37781319050E+02  0.19236652028E+03 -0.12513861736E+03  0.25033183852E+03  0.92596164227E+02 0.  0.
         23    2    1    2    0    0 -0.28087929683E+01 -0.10308038980E+03  0.11202406116E+03  0.17759971946E+03  0.91426549736E+02 0.  0.
        -13    1    4    4    0    0 -0.37514786852E+02 -0.54521217466E+02  0.22301009263E+02  0.69837363930E+02  0.00000000000E+00 0.  1.
         13    1    4    4    0    0  0.34705993883E+02 -0.48559172332E+02  0.89723051894E+02  0.10776235553E+03  0.00000000000E+00 0. -1.
        -13    1    3    3    0    0  0.51915440235E+02  0.12005304589E+03 -0.37975926850E+02  0.13619881711E+03  0.00000000000E+00 0. -1.
         13    1    3    3    0    0 -0.14134121185E+02  0.72313474397E+02 -0.87162690509E+02  0.11413302142E+03  0.00000000000E+00 0.  1.
         21    1    1    2  503  501 -0.47879651818E+02 -0.11352811886E+02  0.42892625714E+02  0.65277291125E+02  0.00000000000E+00 0.  1.
         -1    1    1    2    0  502  0.12907125737E+02 -0.77933318598E+02  0.15037559092E+03  0.16986175080E+03  0.00000000000E+00 0.  1.
<scales pt_clust_5="13000.00000" pt_clust_6="13000.00000" pt_clust_7="13000.00000" pt_clust_8="13000.00000" pt_clust_9="49.20719" pt_clust_10="83.25998"></scales>
<clustering>
<clus scale="   49.207">  1  9  2 -1</clus>
<clus scale="   83.260">  1 10  2 -1</clus>
<clus scale="   91.427">  5  6 -1 -1</clus>
<clus scale="   92.596">  7  8 -1 -1</clus>
<clus scale="  190.955">  1  5  2 -1</clus>
<clus scale="   49.207">  1  5  2 -1</clus>
</clustering>
</event>
<event>
10    2  0.3544405E-006  0.1563351E+03  0.7546771E-02  0.1216379E+00
         21   -1    0    0  501  502  0.00000000000E+00  0.00000000000E+00  0.71305898592E+02  0.71305898592E+02  0.00000000000E+00 0.  1.
          2   -1    0    0  503    0 -0.00000000000E+00 -0.00000000000E+00 -0.84203817500E+03  0.84203817500E+03  0.00000000000E+00 0. -1.
         23    2    1    2    0    0  0.95336493063E+02  0.51869358064E+02 -0.17359243068E+03  0.22392064270E+03  0.90700854589E+02 0.  0.
         23    2    1    2    0    0  0.32809316833E+02  0.22741588072E+01 -0.18825621367E+03  0.21091082636E+03  0.89226406513E+02 0.  0.
        -13    1    4    4    0    0 -0.19207429999E+02  0.24709687070E+02 -0.32257378951E+02  0.44944771654E+02  0.00000000000E+00 0. -1.
         13    1    4    4    0    0  0.52016746832E+02 -0.22435528263E+02 -0.15599883472E+03  0.16596605470E+03  0.00000000000E+00 0.  1.
        -13    1    3    3    0    0  0.12431835047E+02 -0.21106003294E+02 -0.98296758845E+01  0.26393870987E+02  0.00000000000E+00 0.  1.
         13    1    3    3    0    0  0.82904658016E+02  0.72975361358E+02 -0.16376275479E+03  0.19752677171E+03  0.00000000000E+00 0. -1.
         21    1    1    2  503  502 -0.11539803167E+03 -0.70326176603E+02 -0.42896231679E+03  0.44974564595E+03  0.00000000000E+00 0.  1.
          2    1    1    2  501    0 -0.12747778229E+02  0.16182659732E+02  0.20078684728E+02  0.28766958584E+02  0.00000000000E+00 0. -1.
<scales pt_clust_5="13000.00000" pt_clust_6="13000.00000" pt_clust_7="13000.00000" pt_clust_8="13000.00000" pt_clust_9="127.33428" pt_clust_10="20.60059"></scales>
<clustering>
<clus scale="   20.601">  1 10  2 -1</clus>
<clus scale="   89.226">  5  6 -1 -1</clus>
<clus scale="   90.701">  7  8 -1 -1</clus>
<clus scale="   94.252">  1  5  2 -1</clus>
<clus scale="  127.334">  2  9  1 -1</clus>
<clus scale="   20.601">  1  5  2 -1</clus>
</clustering>
</event>
<event>
10    2  0.3544405E-006  0.1144824E+03  0.7546771E-02  0.1253193E+00
         21   -1    0    0  503  502  0.00000000000E+00  0.00000000000E+00  0.62095850719E+02  0.62095850719E+02  0.00000000000E+00 0.  1.
         -1   -1    0    0    0  501 -0.00000000000E+00 -0.00000000000E+00 -0.58770817292E+03  0.58770817292E+03  0.00000000000E+00 0.  1.
         23    2    1    2    0    0  0.27719484816E+02  0.46809801893E+02 -0.34897043570E+03  0.36491676699E+03  0.91784282128E+02 0.  0.
         23    2    1    2    0    0  0.14927311269E+02 -0.62771125470E+02 -0.63242190330E+02  0.12737474987E+03  0.89787045008E+02 0.  0.
        -13    1    3    3    0    0  0.47085456008E+02  0.64132853262E+02 -0.28426781122E+03  0.29519188934E+03  0.00000000000E+00 0.  1.
         13    1    3    3    0    0 -0.19365971192E+02 -0.17323051369E+02 -0.64702624475E+02  0.69724877647E+02  0.00000000000E+00 0. -1.
        -13    1    4    4    0    0  0.21599778633E+02  0.15420413463E+02  0.76901223801E-01  0.26539508325E+02  0.00000000000E+00 0.  1.
         13    1    4    4    0    0 -0.66724673641E+01 -0.78191538933E+02 -0.63319091554E+02  0.10083524154E+03  0.00000000000E+00 0. -1.
         21    1    1    2  503  501  0.11981854936E+02  0.29488031410E+02 -0.91919116193E+02  0.97274008686E+02  0.00000000000E+00 0. -1.
         -1    1    1    2    0  502 -0.54628651021E+02 -0.13526707833E+02 -0.21480579983E+02  0.60238498102E+02  0.00000000000E+00 0.  1.
<scales pt_clust_5="13000.00000" pt_clust_6="13000.00000" pt_clust_7="13000.00000" pt_clust_8="13000.00000" pt_clust_9="31.82937" pt_clust_10="54.76898"></scales>
<clustering>
<clus scale="   31.829">  2  9  1 -1</clus>
<clus scale="   54.769">  1 10  2 -1</clus>
<clus scale="   89.787">  7  8 -1 -1</clus>
<clus scale="   91.784">  5  6 -1 -1</clus>
<clus scale="  112.887">  1  7  2 -1</clus>
<clus scale="   54.769">  1  5  2 -1</clus>
</clustering>
</event>
<event>
10    2  0.3544405E-006  0.1389726E+03  0.7546771E-02  0.1215012E+00
          1   -1    0    0  503    0 -0.00000000000E+00  0.00000000000E+00  0.12500966503E+03  0.12500966503E+03  0.00000000000E+00 0. -1.
         21   -1    0    0  501  502  0.00000000000E+00 -0.00000000000E+00 -0.31387483023E+03  0.31387483023E+03  0.00000000000E+00 0.  1.
         23    2    1    2    0    0 -0.52038610009E+02  0.10490503689E+03 -0.24518766377E+02  0.15105709377E+03  0.92217091570E+02 0.  0.
         23    2    1    2    0    0  0.73284459821E+02 -0.60168604150E+02 -0.14266884042E+03  0.19516168335E+03  0.93503003394E+02 0.  0.
        -11    1    4    4    0    0  0.55112580141E+02 -0.70301365496E+02 -0.14872686178E+03  0.17349166520E+03  0.00000000000E+00 0.  1.
         11    1    4    4    0    0  0.18171879680E+02  0.10132761346E+02  0.60580213585E+01  0.21670018144E+02  0.00000000000E+00 0. -1.
        -11    1    3    3    0    0 -0.64292137206E+02  0.30490043717E+02 -0.25632814534E+02  0.75631758232E+02  0.00000000000E+00 0.  1.
         11    1    3    3    0    0  0.12253527197E+02  0.74414993178E+02  0.11140481572E+01  0.75425335543E+02  0.00000000000E+00 0. -1.
         21    1    1    2  503  502 -0.86873144461E+01 -0.23091965563E+02  0.27830969853E+02  0.37192353902E+02  0.00000000000E+00 0.  1.
          1    1    1    2  501    0 -0.12558535366E+02 -0.21644467181E+02 -0.49508528256E+02  0.55473364241E+02  0.00000000000E+00 0. -1.
<scales pt_clust_5="13000.00000" pt_clust_6="13000.00000" pt_clust_7="13000.00000" pt_clust_8="13000.00000" pt_clust_9="24.67201" pt_clust_10="25.80889"></scales>
<clustering>
<clus scale="   24.672">  1  9  2 -1</clus>
<clus scale="   25.809">  2 10  1 -1</clus>
<clus scale="   92.217">  7  8 -1 -1</clus>
<clus scale="   93.503">  5  6 -1 -1</clus>
<clus scale="  138.111">  1  7  2 -1</clus>
<clus scale="   25.809">  2  5  1 -1</clus>
</clustering>
</event>
<event>
10    2  0.3544405E-006  0.1281942E+03  0.7546771E-02  0.1230793E+00
          3   -1    0    0  503    0 -0.00000000000E+00  0.00000000000E+00  0.46957422977E+03  0.46957422977E+03  0.00000000000E+00 0. -1.
         21   -1    0    0  501  502  0.00000000000E+00 -0.00000000000E+00 -0.27523701329E+03  0.27523701329E+03  0.00000000000E+00 0. -1.
         23    2    1    2    0    0 -0.63320723577E+02  0.42214063955E+02  0.25842771097E+03  0.28410330999E+03  0.90212347923E+02 0.  0.
         23    2    1    2    0    0  0.71210923040E+02 -0.80306401878E+02  0.49384888026E+01  0.14179789288E+03  0.92531832416E+02 0.  0.
        -11    1    3    3    0    0 -0.23420862619E+02  0.15050607560E+02  0.78590671882E+01  0.28927885004E+02  0.00000000000E+00 0.  1.
         11    1    3    3    0    0 -0.39899860958E+02  0.27163456394E+02  0.25056864379E+03  0.25517542499E+03  0.00000000000E+00 0. -1.
        -13    1    4    4    0    0 -0.79343456038E+01 -0.42404737454E+02  0.27539684704E+02  0.51181538003E+02  0.00000000000E+00 0. -1.
         13    1    4    4    0    0  0.79145268643E+02 -0.37901664424E+02 -0.22601195901E+02  0.90616354876E+02  0.00000000000E+00 0.  1.
         21    1    1    2  503  502 -0.20548820998E+02 -0.88980433047E+01  0.12084319558E+03  0.12290039518E+03  0.00000000000E+00 0.  1.
          3    1    1    2  501    0  0.12658621535E+02  0.46990381229E+02 -0.18987217887E+03  0.19600964501E+03  0.00000000000E+00 0. -1.
<scales pt_clust_5="13000.00000" pt_clust_6="13000.00000" pt_clust_7="13000.00000" pt_clust_8="13000.00000" pt_clust_9="22.39262" pt_clust_10="48.54280"></scales>
<clustering>
<clus scale="   22.393">  1  9  2 -1</clus>
<clus scale="   48.543">  2 10  1 -1</clus>
<clus scale="   90.212">  5  6 -1 -1</clus>
<clus scale="   92.532">  7  8 -1 -1</clus>
<clus scale="  126.530">  1  5  2 -1</clus>
<clus scale="   48.543">  2  5  1 -1</clus>
</clustering>
</event>
<event>
10    2  0.3544405E-006  0.1042853E+03  0.7546771E-02  0.1273755E+00
         21   -1    0    0  501  502  0.00000000000E+00  0.00000000000E+00  0.60808250982E+03  0.60808250982E+03  0.00000000000E+00 0. -1.
          1   -1    0    0  503    0 -0.00000000000E+00 -0.00000000000E+00 -0.50371825960E+02  0.50371825960E+02  0.00000000000E+00 0. -1.
         23    2    1    2    0    0 -0.43520762496E+02  0.39367829902E+02  0.80790068207E+02  0.13512807760E+03  0.91042184921E+02 0.  0.
         23    2    1    2    0    0 -0.29081654291E+02 -0.34397273960E+02  0.15436953194E+03  0.18718736736E+03  0.95813584812E+02 0.  0.
        -11    1    4    4    0    0  0.21296506921E+02 -0.12715179586E+02  0.15818936415E+01  0.24853961182E+02  0.00000000000E+00 0.  1.
         11    1    4    4    0    0 -0.50378161212E+02 -0.21682094374E+02  0.15278763830E+03  0.16233340618E+03  0.00000000000E+00 0. -1.
        -13    1    3    3    0    0  0.64368705863E+01 -0.25412403412E+02  0.24002863035E+02  0.35543789668E+02  0.00000000000E+00 0.  1.
         13    1    3    3    0    0 -0.49957633082E+02  0.64780233313E+02  0.56787205172E+02  0.99584287930E+02  0.00000000000E+00 0. -1.
         21    1    1    2  503  502  0.19097874079E+02  0.15120275901E+02  0.33086272324E+02  0.41085921603E+02  0.00000000000E+00 0. -1.
          1    1    1    2  501    0  0.53504542708E+02 -0.20090831843E+02  0.28946481138E+03  0.29505296922E+03  0.00000000000E+00 0. -1.
<scales pt_clust_5="13000.00000" pt_clust_6="13000.00000" pt_clust_7="13000.00000" pt_clust_8="13000.00000" pt_clust_9="24.35881" pt_clust_10="57.92289"></scales>
<clustering>
<clus scale="   24.359">  2  9  1 -1</clus>
<clus scale="   57.923">  1 10  2 -1</clus>
<clus scale="   91.042">  7  8 -1 -1</clus>
<clus scale="   95.814">  5  6 -1 -1</clus>
<clus scale="   99.919">  2  7  1 -1</clus>
<clus scale="   57.923">  1  5  2 -1</clus>
</clustering>
</event>
<event>
10    2  0.3544405E-006  0.9874817E+02  0.7546771E-02  0.1284100E+00
          2   -1    0    0  503    0 -0.00000000000E+00  0.00000000000E+00  0.32795993214E+03  0.32795993214E+03  0.00000000000E+00 0. -1.
         21   -1    0    0  501  502  0.00000000000E+00 -0.00000000000E+00 -0.23071667878E+03  0.23071667878E+03  0.00000000000E+00 0.  1.
         23    2    1    2    0    0 -0.14587438877E+02  0.29684179394E+02  0.17393221883E+03  0.19950750358E+03  0.91961314456E+02 0.  0.
         23    2    1    2    0    0  0.28124090082E+01  0.60382088190E+02 -0.73965844488E+02  0.13415228358E+03  0.94191203519E+02 0.  0.
        -11    1    4    4    0    0 -0.33885964394E+02  0.37887310769E+02 -0.75574712119E+02  0.91078230176E+02  0.00000000000E+00 0.  1.
         11    1    4    4    0    0  0.36698373402E+02  0.22494777421E+02  0.16088676312E+01  0.43074053404E+02  0.00000000000E+00 0. -1.
        -13    1    3    3    0    0 -0.31636098346E+02  0.50050775804E+02  0.67401132949E+02  0.89715303042E+02  0.00000000000E+00 0.  1.
         13    1    3    3    0    0  0.17048659469E+02 -0.20366596410E+02  0.10653108588E+03  0.10979220053E+03  0.00000000000E+00 0. -1.
         21    1    1    2  503  502  0.18229403502E+02 -0.62921787618E+02  0.99458533005E+02  0.11909434200E+03  0.00000000000E+00 0. -1.
          2    1    1    2  501    0 -0.64543736330E+01 -0.27144479966E+02 -0.10218165399E+03  0.10592248177E+03  0.00000000000E+00 0. -1.
<scales pt_clust_5="13000.00000" pt_clust_6="13000.00000" pt_clust_7="13000.00000" pt_clust_8="13000.00000" pt_clust_9="67.39936" pt_clust_10="27.90129"></scales>
<clustering>
<clus scale="   27.901">  2 10  1 -1</clus>
<clus scale="   67.399">  1  9  2 -1</clus>
<clus scale="   91.961">  7  8 -1 -1</clus>
<clus scale="   94.191">  5  6 -1 -1</clus>
<clus scale="   96.624">  1  7  2 -1</clus>
<clus scale="   27.901">  2  5  1 -1</clus>
</clustering>
</event>
<event>
10    2  0.3544405E-006  0.1903532E+03  0.7546771E-02  0.1171416E+00
          1   -1    0    0  503    0 -0.00000000000E+00  0.00000000000E+00  0.28782664589E+03  0.28782664589E+03  0.00000000000E+00 0. -1.
         21   -1    0    0  501  502  0.00000000000E+00 -0.00000000000E+00 -0.46170131796E+03  0.46170131796E+03  0.00000000000E+00 0. -1.
         23    2    1    2    0    0 -0.10564967436E+03 -0.27018817695E+01  0.34438919511E+02  0.14428859922E+03  0.92000037110E+02 0.  0.
         23    2    1    2    0    0  0.68303322668E+02 -0.97141371386E+02 -0.15606704076E+03  0.23027367282E+03  0.12069487669E+03 0.  0.
        -11    1    3    3    0    0 -0.20544940348E+02  0.38040711196E+02 -0.16557587037E+01  0.43265827382E+02  0.00000000000E+00 0.  1.
         11    1    3    3    0    0 -0.85104734017E+02 -0.40742592965E+02  0.36094678214E+02  0.10102277183E+03  0.00000000000E+00 0. -1.
        -11    1    4    4    0    0  0.29911677150E+02 -0.12064444486E+03 -0.11553322618E+03  0.16969890057E+03  0.00000000000E+00 0.  1.
         11    1    4    4    0    0  0.38391645518E+02  0.23503073471E+02 -0.40533814586E+02  0.60574772249E+02  0.00000000000E+00 0. -1.
         21    1    1    2  503  502  0.11933045526E+03 -0.97803033948E+02  0.16845106222E+01  0.15429850478E+03  0.00000000000E+00 0. -1.
          1    1    1    2  501    0 -0.81984103561E+02  0.19764628710E+03 -0.53931061443E+02  0.22066718703E+03  0.00000000000E+00 0. -1.
<scales pt_clust_5="13000.00000" pt_clust_6="13000.00000" pt_clust_7="13000.00000" pt_clust_8="13000.00000" pt_clust_9="125.81349" pt_clust_10="147.19755"></scales>
<clustering>
<clus scale="   92.000">  5  6 -1 -1</clus>
<clus scale="  120.695">  7  8 -1 -1</clus>
<clus scale="  140.118">  1  5  2 -1</clus>
<clus scale="  125.813">  1  9  2 -1</clus>
<clus scale="  147.198">  2 10  1 -1</clus>
<clus scale="  147.198">  2  5  1 -1</clus>
</clustering>
</event>
<event>
10    2  0.3544405E-006  0.9245124E+02  0.7546771E-02  0.1297717E+00
         -1   -1    0    0    0  501 -0.00000000000E+00  0.00000000000E+00  0.55645907565E+03  0.55645907565E+03  0.00000000000E+00 0.  1.
         21   -1    0    0  503  502  0.00000000000E+00 -0.00000000000E+00 -0.12499860469E+03  0.12499860469E+03  0.00000000000E+00 0.  1.
         23    2    1    2    0    0 -0.41894784173E+02 -0.21690376602E+02  0.20004007782E+03  0.22458804031E+03  0.90543413574E+02 0.  0.
         23    2    1    2    0    0 -0.14944274655E+02 -0.29510356975E+02  0.23920981221E+02  0.10040748525E+03  0.91734711198E+02 0.  0.
        -13    1    3    3    0    0 -0.12920652242E+02 -0.52744766182E+02  0.14654373927E+03  0.15628186438E+03  0.00000000000E+00 0.  1.
         13    1    3    3    0    0 -0.28974131931E+02  0.31054389580E+02  0.53496338545E+02  0.68306175937E+02  0.00000000000E+00 0. -1.
        -13    1    4    4    0    0  0.30399860371E+02 -0.40511516145E+02  0.15720939671E+02  0.53032842608E+02  0.00000000000E+00 0.  1.
         13    1    4    4    0    0 -0.45344135025E+02  0.11001159171E+02  0.82000415496E+01  0.47374642645E+02  0.00000000000E+00 0. -1.
         21    1    1    2  503  501  0.32337683976E+02  0.23007329529E+02  0.27578625666E+03  0.27862721041E+03  0.00000000000E+00 0.  1.
         -1    1    1    2    0  502  0.24501374852E+02  0.28193404047E+02 -0.68286844734E+02  0.77834944370E+02  0.00000000000E+00 0.  1.
<scales pt_clust_5="13000.00000" pt_clust_6="13000.00000" pt_clust_7="13000.00000" pt_clust_8="13000.00000" pt_clust_9="40.68079" pt_clust_10="37.35218"></scales>
<clustering>
<clus scale="   37.352">  2 10  1 -1</clus>
<clus scale="   40.681">  1  9  2 -1</clus>
<clus scale="   90.543">  5  6 -1 -1</clus>
<clus scale="   91.269">  1  5  2 -1</clus>
<clus scale="   91.735">  7  8 -1 -1</clus>
<clus scale="   37.352">  2  5  1 -1</clus>
</clustering>
</event>
<event>
10    2  0.3544405E-006  0.9899149E+02  0.7546771E-02  0.1286043E+00
         21   -1    0    0  501  502  0.00000000000E+00  0.00000000000E+00  0.13433718752E+03  0.13433718752E+03  0.00000000000E+00 0.  1.
          1   -1    0    0  503    0 -0.00000000000E+00 -0.00000000000E+00 -0.44013874317E+03  0.44013874317E+03  0.00000000000E+00 0. -1.
         23    2    1    2    0    0  0.31325648197E+02  0.70668702176E+01 -0.31417942659E+03  0.32731965362E+03  0.86012828467E+02 0.  0.
         23    2    1    2    0    0 -0.45111276257E+02 -0.43418976693E+01 -0.25695536083E+02  0.10659767542E+03  0.92999594138E+02 0.  0.
        -11    1    3    3    0    0  0.23936020718E+02  0.43739104830E+02 -0.12696801881E+03  0.13640718522E+03  0.00000000000E+00 0.  1.
         11    1    3    3    0    0  0.73896274790E+01 -0.36672234612E+02 -0.18721140779E+03  0.19091246840E+03  0.00000000000E+00 0. -1.
        -11    1    4    4    0    0 -0.33118051291E+02 -0.40784827286E+02 -0.39599750419E+02  0.65790179292E+02  0.00000000000E+00 0.  1.
         11    1    4    4    0    0 -0.11993224966E+02  0.36442929616E+02  0.13904214335E+02  0.40807496130E+02  0.00000000000E+00 0. -1.
         21    1    1    2  503  502  0.36340329541E+02  0.24179822677E+01 -0.45160464162E+02  0.58016667542E+02  0.00000000000E+00 0. -1.
          1    1    1    2  501    0 -0.22554701481E+02 -0.51429548160E+01  0.79233871188E+02  0.82541934110E+02  0.00000000000E+00 0. -1.
<scales pt_clust_5="13000.00000" pt_clust_6="13000.00000" pt_clust_7="13000.00000" pt_clust_8="13000.00000" pt_clust_9="33.67589" pt_clust_10="23.13362"></scales>
<clustering>
<clus scale="   23.134">  1 10  2 -1</clus>
<clus scale="   33.676">  1  9  2 -1</clus>
<clus scale="   86.013">  5  6 -1 -1</clus>
<clus scale="   92.459">  2  5  1 -1</clus>
<clus scale="   93.000">  7  8 -1 -1</clus>
<clus scale="   23.134">  1  5  2 -1</clus>
</clustering>
</event>
<event>
10    2  0.3544405E-006  0.9540344E+02  0.7546771E-02  0.1292332E+00
         21   -1    0    0  501  502  0.00000000000E+00  0.00000000000E+00  0.20307496321E+03  0.20307496321E+03  0.00000000000E+00 0. -1.
          2   -1    0    0  503    0 -0.00000000000E+00 -0.00000000000E+00 -0.45207288530E+03  0.45207288530E+03  0.00000000000E+00 0. -1.
         23    2    1    2    0    0 -0.19789428373E+02 -0.43864332661E+02 -0.18231011253E+03  0.21002047726E+03  0.92498230173E+02 0.  0.
         23    2    1    2    0    0  0.20582158432E+02 -0.29775438853E+02 -0.69374152685E+02  0.11833690557E+03  0.88773014789E+02 0.  0.
        -11    1    4    4    0    0 -0.42366865004E+01 -0.57968893277E+02 -0.38531957016E+02  0.69735599315E+02  0.00000000000E+00 0. -1.
         11    1    4    4    0    0  0.24818844933E+02  0.28193454424E+02 -0.30842195668E+02  0.48601306256E+02  0.00000000000E+00 0.  1.
        -11    1    3    3    0    0 -0.40105785822E+02  0.12417222451E+02 -0.98196077185E+02  0.10679480813E+03  0.00000000000E+00 0.  1.
         11    1    3    3    0    0  0.20316357448E+02 -0.56281555112E+02 -0.84114035341E+02  0.10322566913E+03  0.00000000000E+00 0. -1.
         21    1    1    2  503  502 -0.42385685209E+01  0.25115954229E+02 -0.15741470015E+03  0.15946210974E+03  0.00000000000E+00 0.  1.
          2    1    1    2  501    0  0.34458384621E+01  0.48523817285E+02  0.16010104327E+03  0.16732835594E+03  0.00000000000E+00 0. -1.
<scales pt_clust_5="13000.00000" pt_clust_6="13000.00000" pt_clust_7="13000.00000" pt_clust_8="13000.00000" pt_clust_9="25.47109" pt_clust_10="48.95069"></scales>
<clustering>
<clus scale="   25.471">  2  9  1 -1</clus>
<clus scale="   48.951">  1 10  2 -1</clus>
<clus scale="   88.773">  5  6 -1 -1</clus>
<clus scale="   91.796">  1  5  2 -1</clus>
<clus scale="   92.498">  7  8 -1 -1</clus>
<clus scale="   48.951">  1  5  2 -1</clus>
</clustering>
</event>
<event>
10    2  0.3544405E-006  0.9568118E+02  0.7546771E-02  0.1292021E+00
          1   -1    0    0  503    0 -0.00000000000E+00  0.00000000000E+00  0.23381935181E+03  0.23381935181E+03  0.00000000000E+00 0. -1.
         21   -1    0    0  501  502  0.00000000000E+00 -0.00000000000E+00 -0.19518307541E+03  0.19518307541E+03  0.00000000000E+00 0. -1.
         23    2    1    2    0    0 -0.12509564344E+02 -0.19963792990E+02  0.61127328915E+02  0.10799539516E+03  0.85856932186E+02 0.  0.
         23    2    1    2    0    0  0.58261748480E+02 -0.31142661658E+02  0.63871429735E+02  0.12881181355E+03  0.90269746104E+02 0.  0.
        -11    1    4    4    0    0  0.30054895104E+02  0.29200465799E+02  0.98429679118E+01  0.43044720232E+02  0.00000000000E+00 0.  1.
         11    1    4    4    0    0  0.28206853376E+02 -0.60343127457E+02  0.54028461823E+02  0.85767093314E+02  0.00000000000E+00 0. -1.
        -11    1    3    3    0    0  0.33706528052E+02  0.71760705722E+01  0.31842228705E+02  0.46920715586E+02  0.00000000000E+00 0.  1.
         11    1    3    3    0    0 -0.46216092396E+02 -0.27139863563E+02  0.29285100210E+02  0.61074679572E+02  0.00000000000E+00 0. -1.
         21    1    1    2  503  502 -0.57209229221E+02  0.11553416269E+02  0.32219414503E+02  0.66666843381E+02  0.00000000000E+00 0. -1.
          1    1    1    2  501    0  0.11457045085E+02  0.39553038380E+02 -0.11858189675E+03  0.12552837513E+03  0.00000000000E+00 0. -1.
<scales pt_clust_5="13000.00000" pt_clust_6="13000.00000" pt_clust_7="13000.00000" pt_clust_8="13000.00000" pt_clust_9="58.36909" pt_clust_10="41.17896"></scales>
<clustering>
<clus scale="   41.179">  2 10  1 -1</clus>
<clus scale="   58.369">  2  9  1 -1</clus>
<clus scale="   85.857">  7  8 -1 -1</clus>
<clus scale="   90.270">  5  6 -1 -1</clus>
<clus scale="   91.530">  1  7  2 -1</clus>
<clus scale="   41.179">  2  5  1 -1</clus>
</clustering>
</event>
<event>
10    2  0.3544405E-006  0.1619379E+03  0.7546771E-02  0.1187187E+00
         21   -1    0    0  501  502  0.00000000000E+00  0.00000000000E+00  0.42976186945E+03  0.42976186945E+03  0.00000000000E+00 0. -1.
          1   -1    0    0  503    0 -0.00000000000E+00 -0.00000000000E+00 -0.15978618408E+03  0.15978618408E+03  0.00000000000E+00 0. -1.
         23    2    1    2    0    0  0.11889472217E+03  0.12201414100E+03  0.31721192657E+02  0.19482268251E+03  0.89029422075E+02 0.  0.
         23    2    1    2    0    0 -0.37925942296E+02 -0.66102385782E+02  0.15285104549E+03  0.19456636018E+03  0.93191866071E+02 0.  0.
        -11    1    4    4    0    0  0.19587076325E+02 -0.31436572950E+02  0.10706297079E+03  0.11328897295E+03  0.00000000000E+00 0.  1.
         11    1    4    4    0    0 -0.57513018621E+02 -0.34665812832E+02  0.45788074695E+02  0.81277387227E+02  0.00000000000E+00 0. -1.
        -13    1    3    3    0    0  0.20278093360E+02  0.71282358603E+02 -0.13004389781E+02  0.75242872565E+02  0.00000000000E+00 0.  1.
         13    1    3    3    0    0  0.98616628810E+02  0.50731782393E+02  0.44725582438E+02  0.11957980995E+03  0.00000000000E+00 0. -1.
         21    1    1    2  503  502  0.35713530216E+02 -0.25188306854E+02 -0.11742443757E+02  0.45252536150E+02  0.00000000000E+00 0. -1.
          1    1    1    2  501    0 -0.11668231009E+03 -0.30723448359E+02  0.97145890983E+02  0.15490647469E+03  0.00000000000E+00 0. -1.
<scales pt_clust_5="13000.00000" pt_clust_6="13000.00000" pt_clust_7="13000.00000" pt_clust_8="13000.00000" pt_clust_9="43.70248" pt_clust_10="114.70937"></scales>
<clustering>
<clus scale="   43.702">  2  9  1 -1</clus>
<clus scale="   89.029">  7  8 -1 -1</clus>
<clus scale="   93.192">  5  6 -1 -1</clus>
<clus scale="  114.709">  1 10  2 -1</clus>
<clus scale="  159.579">  2  7  1 -1</clus>
<clus scale="  114.709">  1  5  2 -1</clus>
</clustering>
</event>
<event>
10    2  0.3544405E-006  0.3088515E+03  0.7546771E-02  0.1104498E+00
         21   -1    0    0  503  502  0.00000000000E+00  0.00000000000E+00  0.30488938382E+03  0.30488938382E+03  0.00000000000E+00 0.  1.
         -3   -1    0    0    0  501 -0.00000000000E+00 -0.00000000000E+00 -0.85808041221E+03  0.85808041221E+03  0.00000000000E+00 0.  1.
         23    2    1    2    0    0 -0.29243210129E+03  0.18746055053E+03 -0.32940384396E+03  0.48723005222E+03  0.90709643903E+02 0.  0.
         23    2    1    2    0    0  0.10423886199E+03 -0.12205383351E+03 -0.65279643414E+02  0.19466918559E+03  0.88723059865E+02 0.  0.
        -11    1    3    3    0    0 -0.22782680460E+03  0.10809939975E+03 -0.26753356769E+03  0.36764757984E+03  0.00000000000E+00 0.  1.
         11    1    3    3    0    0 -0.64605296687E+02  0.79361150788E+02 -0.61870276272E+02  0.11958247238E+03  0.00000000000E+00 0. -1.
        -11    1    4    4    0    0  0.59758978971E+02 -0.12512440576E+03 -0.45997046916E+02  0.14609237081E+03  0.00000000000E+00 0.  1.
         11    1    4    4    0    0  0.44479883017E+02  0.30705722418E+01 -0.19282596499E+02  0.48576814787E+02  0.00000000000E+00 0. -1.
         21    1    1    2  503  501  0.13996383288E+03 -0.22213549650E+03 -0.17611009439E+03  0.31614683086E+03  0.00000000000E+00 0.  1.
         -3    1    1    2    0  502  0.48229406420E+02  0.15672877948E+03  0.17602553368E+02  0.16492372736E+03  0.00000000000E+00 0.  1.
<scales pt_clust_5="13000.00000" pt_clust_6="13000.00000" pt_clust_7="13000.00000" pt_clust_8="13000.00000" pt_clust_9="295.23045" pt_clust_10="163.98166"></scales>
<clustering>
<clus scale="   88.723">  7  8 -1 -1</clus>
<clus scale="   90.710">  5  6 -1 -1</clus>
<clus scale="  163.982">  1 10  2 -1</clus>
<clus scale="  166.011">  1  7  2 -1</clus>
<clus scale="  295.230">  2  9  1 -1</clus>
<clus scale="  163.982">  1  5  2 -1</clus>
</clustering>
</event>
<event>
10    2  0.3544405E-006  0.9434255E+02  0.7546771E-02  0.1293090E+00
         21   -1    0    0  501  502  0.00000000000E+00  0.00000000000E+00  0.71307594156E+02  0.71307594156E+02  0.00000000000E+00 0. -1.
          1   -1    0    0  503    0 -0.00000000000E+00 -0.00000000000E+00 -0.58157491913E+03  0.58157491913E+03  0.00000000000E+00 0. -1.
         23    2    1    2    0    0  0.13344717417E+02 -0.10326079317E+02 -0.38882155989E+03  0.39999042994E+03  0.92333250844E+02 0.  0.
         23    2    1    2    0    0 -0.18752904775E+02 -0.15618598296E+02 -0.78700134603E+02  0.12431796463E+03  0.93089382276E+02 0.  0.
        -11    1    4    4    0    0  0.18584565801E+01  0.33597128959E+02 -0.58063532278E+02  0.67108827406E+02  0.00000000000E+00 0. -1.
         11    1    4    4    0    0 -0.20611361355E+02 -0.49215727256E+02 -0.20636602325E+02  0.57209137222E+02  0.00000000000E+00 0.  1.
        -11    1    3    3    0    0 -0.18582113994E+02 -0.40235432912E+02 -0.12633676720E+03  0.13388488999E+03  0.00000000000E+00 0.  1.
         11    1    3    3    0    0  0.31926831412E+02  0.29909353595E+02 -0.26248479270E+03  0.26610553995E+03  0.00000000000E+00 0. -1.
         21    1    1    2  503  502  0.36217527370E+02  0.19664951690E+02 -0.73707190480E+02  0.84446252387E+02  0.00000000000E+00 0. -1.
          1    1    1    2  501    0 -0.30809340012E+02  0.62797259239E+01  0.30961559997E+02  0.44127866333E+02  0.00000000000E+00 0. -1.
<scales pt_clust_5="13000.00000" pt_clust_6="13000.00000" pt_clust_7="13000.00000" pt_clust_8="13000.00000" pt_clust_9="37.52048" pt_clust_10="31.44281"></scales>
<clustering>
<clus scale="   31.443">  1 10  2 -1</clus>
<clus scale="   37.520">  1  9  2 -1</clus>
<clus scale="   92.333">  7  8 -1 -1</clus>
<clus scale="   93.089">  5  6 -1 -1</clus>
<clus scale="   93.597">  2  7  1 -1</clus>
<clus scale="   31.443">  1  5  2 -1</clus>
</clustering>
</event>
<event>
10    2  0.3544405E-006  0.1390595E+03  0.7546771E-02  0.1214980E+00
         21   -1    0    0  501  502  0.00000000000E+00  0.00000000000E+00  0.29401851582E+03  0.29401851582E+03  0.00000000000E+00 0. -1.
          2   -1    0    0  503    0 -0.00000000000E+00 -0.00000000000E+00 -0.36652464445E+03  0.36652464445E+03  0.00000000000E+00 0.  1.
         23    2    1    2    0    0  0.70327400045E+02 -0.78677781576E+02 -0.24280580903E+03  0.28081158387E+03  0.93618097749E+02 0.  0.
         23    2    1    2    0    0 -0.45760666817E+02  0.11507153228E+03 -0.57723550954E+01  0.15435070222E+03  0.91952830433E+02 0.  0.
        -11    1    4    4    0    0 -0.63228443426E+02  0.44908890199E+02  0.15277433520E+02  0.79044572565E+02  0.00000000000E+00 0. -1.
         11    1    4    4    0    0  0.17467776610E+02  0.70162642078E+02 -0.21049788615E+02  0.75306129656E+02  0.00000000000E+00 0.  1.
        -13    1    3    3    0    0  0.18971606423E+02  0.15348253623E+02 -0.13923415242E+02  0.28095412998E+02  0.00000000000E+00 0. -1.
         13    1    3    3    0    0  0.51355793622E+02 -0.94026035200E+02 -0.22888239379E+03  0.25271617087E+03  0.00000000000E+00 0.  1.
         21    1    1    2  503  502 -0.26752345837E+02 -0.43902803423E+01 -0.15441520942E+02  0.31199409262E+02  0.00000000000E+00 0. -1.
          2    1    1    2  501    0  0.21856126086E+01 -0.32003470359E+02  0.19151355644E+03  0.19418146492E+03  0.00000000000E+00 0.  1.
<scales pt_clust_5="13000.00000" pt_clust_6="13000.00000" pt_clust_7="13000.00000" pt_clust_8="13000.00000" pt_clust_9="27.11019" pt_clust_10="32.08813"></scales>
<clustering>
<clus scale="   27.110">  2  9  1 -1</clus>
<clus scale="   32.088">  1 10  2 -1</clus>
<clus scale="   91.953">  5  6 -1 -1</clus>
<clus scale="   93.618">  7  8 -1 -1</clus>
<clus scale="  137.944">  1  5  2 -1</clus>
<clus scale="   32.088">  1  5  2 -1</clus>
</clustering>
</event>
<event>
10    2  0.3544405E-006  0.9618120E+02  0.7546771E-02  0.1289261E+00
         -3   -1    0    0    0  501 -0.00000000000E+00  0.00000000000E+00  0.14939005363E+03  0.14939005363E+03  0.00000000000E+00 0.  1.
         21   -1    0    0  503  502  0.00000000000E+00 -0.00000000000E+00 -0.23619437858E+03  0.23619437858E+03  0.00000000000E+00 0. -1.
         23    2    1    2    0    0 -0.73093244055E+01 -0.42538817754E+02  0.80838574397E+02  0.12894474762E+03  0.90713260276E+02 0.  0.
         23    2    1    2    0    0  0.39418527603E+02  0.28724627809E+02 -0.10304725779E+03  0.14484018760E+03  0.89336543728E+02 0.  0.
        -11    1    3    3    0    0  0.27027939841E+02 -0.46218420161E+02  0.77573939116E+02  0.94256925073E+02  0.00000000000E+00 0.  1.
         11    1    3    3    0    0 -0.34337264246E+02  0.36796024076E+01  0.32646352816E+01  0.34687822551E+02  0.00000000000E+00 0. -1.
        -13    1    4    4    0    0 -0.11069529256E+02 -0.25179168339E+02 -0.34030936395E+02  0.43756480984E+02  0.00000000000E+00 0.  1.
         13    1    4    4    0    0  0.50488056860E+02  0.53903796148E+02 -0.69016321396E+02  0.10108370662E+03  0.00000000000E+00 0. -1.
         21    1    1    2  503  501 -0.10077509399E+02  0.23131389330E+02  0.14544520680E+02  0.29123194361E+02  0.00000000000E+00 0. -1.
         -3    1    1    2    0  502 -0.22031693799E+02 -0.93171993852E+01 -0.79140162238E+02  0.82676302621E+02  0.00000000000E+00 0.  1.
<scales pt_clust_5="13000.00000" pt_clust_6="13000.00000" pt_clust_7="13000.00000" pt_clust_8="13000.00000" pt_clust_9="25.26834" pt_clust_10="23.92082"></scales>
<clustering>
<clus scale="   23.921">  2 10  1 -1</clus>
<clus scale="   25.268">  1  9  2 -1</clus>
<clus scale="   89.337">  7  8 -1 -1</clus>
<clus scale="   90.713">  5  6 -1 -1</clus>
<clus scale="   94.884">  2  7  1 -1</clus>
<clus scale="   23.921">  2  5  1 -1</clus>
</clustering>
</event>
<event>
10    2  0.3544405E-006  0.1763028E+03  0.7546771E-02  0.1171887E+00
         21   -1    0    0  501  502  0.00000000000E+00  0.00000000000E+00  0.18217291260E+03  0.18217291260E+03  0.00000000000E+00 0. -1.
          4   -1    0    0  503    0 -0.00000000000E+00 -0.00000000000E+00 -0.32958881066E+03  0.32958881066E+03  0.00000000000E+00 0. -1.
         23    2    1    2    0    0  0.24904171751E+01  0.13389657496E+03 -0.92997388484E+02  0.18609811886E+03  0.89719009203E+02 0.  0.
         23    2    1    2    0    0 -0.36941215102E+02 -0.15848530011E+03 -0.42167275924E+02  0.19222839402E+03  0.93227853060E+02 0.  0.
        -11    1    4    4    0    0 -0.54404659922E+02 -0.42536615350E+02 -0.26323451669E+02  0.73906391972E+02  0.00000000000E+00 0. -1.
         11    1    4    4    0    0  0.17463444820E+02 -0.11594868476E+03 -0.15843824255E+02  0.11832200205E+03  0.00000000000E+00 0.  1.
        -13    1    3    3    0    0 -0.27729619658E+02  0.20840046419E+02  0.28867866608E+01  0.34807655456E+02  0.00000000000E+00 0.  1.
         13    1    3    3    0    0  0.30220036833E+02  0.11305652854E+03 -0.95884175145E+02  0.15129046340E+03  0.00000000000E+00 0. -1.
         21    1    1    2  503  502  0.46770877306E+02  0.41783356120E+02 -0.56485397845E+02  0.84403578018E+02  0.00000000000E+00 0.  1.
          4    1    1    2  501    0 -0.12320079379E+02 -0.17194630973E+02  0.44234164197E+02  0.49031632365E+02  0.00000000000E+00 0. -1.
<scales pt_clust_5="13000.00000" pt_clust_6="13000.00000" pt_clust_7="13000.00000" pt_clust_8="13000.00000" pt_clust_9="60.59238" pt_clust_10="21.15277"></scales>
<clustering>
<clus scale="   21.153">  1 10  2 -1</clus>
<clus scale="   60.592">  2  9  1 -1</clus>
<clus scale="   89.719">  7  8 -1 -1</clus>
<clus scale="   93.228">  5  6 -1 -1</clus>
<clus scale="  174.473">  2  7  1 -1</clus>
<clus scale="   21.153">  1  5  2 -1</clus>
</clustering>
</event>
<event>
10    2  0.3544405E-006  0.1639584E+03  0.7546771E-02  0.1186181E+00
          2   -1    0    0  503    0 -0.00000000000E+00  0.00000000000E+00  0.50800068288E+03  0.50800068288E+03  0.00000000000E+00 0. -1.
         21   -1    0    0  501  502  0.00000000000E+00 -0.00000000000E+00 -0.28945350901E+03  0.28945350901E+03  0.00000000000E+00 0. -1.
         23    2    1    2    0    0 -0.10621007802E+03 -0.40038770553E+02  0.31277535333E+03  0.34563752555E+03  0.93558503628E+02 0.  0.
         23    2    1    2    0    0  0.10869859288E+03 -0.48169089673E+01 -0.17630713458E+02  0.13689337907E+03  0.81181084437E+02 0.  0.
        -11    1    4    4    0    0  0.10297773020E+03  0.24251658418E+02 -0.17710879975E+02  0.10726710178E+03  0.00000000000E+00 0.  1.
         11    1    4    4    0    0  0.57208626737E+01 -0.29068567386E+02  0.80166516413E-01  0.29626277293E+02  0.00000000000E+00 0. -1.
        -13    1    3    3    0    0 -0.84858120110E+02 -0.57392031076E+02  0.29643339710E+03  0.31363594293E+03  0.00000000000E+00 0. -1.
         13    1    3    3    0    0 -0.21351957905E+02  0.17353260523E+02  0.16341956228E+02  0.32001582625E+02  0.00000000000E+00 0.  1.
         21    1    1    2  503  502 -0.47314783667E+02  0.15263560271E+02  0.11001908060E+03  0.12073053931E+03  0.00000000000E+00 0. -1.
          2    1    1    2  501    0  0.44826268805E+02  0.29592119249E+02 -0.18661654659E+03  0.19419274796E+03  0.00000000000E+00 0. -1.
<scales pt_clust_5="13000.00000" pt_clust_6="13000.00000" pt_clust_7="13000.00000" pt_clust_8="13000.00000" pt_clust_9="49.71584" pt_clust_10="53.41449"></scales>
<clustering>
<clus scale="   49.716">  1  9  2 -1</clus>
<clus scale="   53.414">  2 10  1 -1</clus>
<clus scale="   81.181">  5  6 -1 -1</clus>
<clus scale="   93.559">  7  8 -1 -1</clus>
<clus scale="  157.224">  2  5  1 -1</clus>
<clus scale="   53.414">  2  5  1 -1</clus>
</clustering>
</event>
<event>
10    2  0.3544405E-006  0.1125044E+03  0.7546771E-02  0.1256654E+00
          1   -1    0    0  503    0 -0.00000000000E+00  0.00000000000E+00  0.38007240215E+03  0.38007240215E+03  0.00000000000E+00 0. -1.
         21   -1    0    0  501  502  0.00000000000E+00 -0.00000000000E+00 -0.10128388886E+03  0.10128388886E+03  0.00000000000E+00 0. -1.
         23    2    1    2    0    0  0.34369720251E+02 -0.59430863398E+02  0.22417610527E+03  0.25119053298E+03  0.90157930825E+02 0.  0.
         23    2    1    2    0    0 -0.39981383709E+02  0.74047342433E+02  0.59695205682E+02  0.13818878771E+03  0.91929883625E+02 0.  0.
        -11    1    4    4    0    0 -0.63312931061E+02  0.78262397026E+02  0.44763305227E+02  0.11016934021E+03  0.00000000000E+00 0. -1.
         11    1    4    4    0    0  0.23331547352E+02 -0.42150545924E+01  0.14931900454E+02  0.28019447501E+02  0.00000000000E+00 0.  1.
        -13    1    3    3    0    0 -0.30640087073E+02 -0.12948374578E+02  0.60317002653E+02  0.68881174127E+02  0.00000000000E+00 0.  1.
         13    1    3    3    0    0  0.65009807324E+02 -0.46482488820E+02  0.16385910262E+03  0.18230935886E+03  0.00000000000E+00 0. -1.
         21    1    1    2  503  502 -0.19853786597E+02  0.96669360584E+01  0.33267752032E+02  0.39929510644E+02  0.00000000000E+00 0.  1.
          1    1    1    2  501    0  0.25465450055E+02 -0.24283415094E+02 -0.38350549702E+02  0.52047459664E+02  0.00000000000E+00 0. -1.
<scales pt_clust_5="13000.00000" pt_clust_6="13000.00000" pt_clust_7="13000.00000" pt_clust_8="13000.00000" pt_clust_9="22.08218" pt_clust_10="34.76844"></scales>
<clustering>
<clus scale="   22.082">  1  9  2 -1</clus>
<clus scale="   34.768">  2 10  1 -1</clus>
<clus scale="   90.158">  7  8 -1 -1</clus>
<clus scale="   91.930">  5  6 -1 -1</clus>
<clus scale="  111.061">  1  7  2 -1</clus>
<clus scale="   34.768">  2  5  1 -1</clus>
</clustering>
</event>
<event>
10    2  0.3544405E-006  0.1374550E+03  0.7546771E-02  0.1218576E+00
         21   -1    0    0  501  502  0.00000000000E+00  0.00000000000E+00  0.27401096121E+03  0.27401096121E+03  0.00000000000E+00 0.  1.
          2   -1    0    0  503    0 -0.00000000000E+00 -0.00000000000E+00 -0.47234845610E+03  0.47234845610E+03  0.00000000000E+00 0.  1.
         23    2    1    2    0    0  0.65004390364E+01 -0.10427556463E+03 -0.33447045640E+03  0.36232111501E+03  0.92143665519E+02 0.  0.
         23    2    1    2    0    0 -0.54003268830E+02  0.84853850611E+02 -0.51537000192E+02  0.15043090222E+03  0.99281745289E+02 0.  0.
        -11    1    4    4    0    0 -0.28466492352E+02  0.70539311082E+02  0.15186324179E+02  0.77567777052E+02  0.00000000000E+00 0. -1.
         11    1    4    4    0    0 -0.25536776477E+02  0.14314539529E+02 -0.66723324371E+02  0.72863125172E+02  0.00000000000E+00 0.  1.
        -11    1    3    3    0    0 -0.21132348155E+02 -0.83020043318E+02 -0.30458342378E+03  0.31640158939E+03  0.00000000000E+00 0.  1.
         11    1    3    3    0    0  0.27632787192E+02 -0.21255521317E+02 -0.29887032620E+02  0.45919525621E+02  0.00000000000E+00 0. -1.
         21    1    1    2  503  502  0.20550267876E+02  0.17291840893E+02 -0.13893860815E+02  0.30238396777E+02  0.00000000000E+00 0. -1.
          2    1    1    2  501    0  0.26952561917E+02  0.21298731299E+01  0.20156382251E+03  0.20336900329E+03  0.00000000000E+00 0.  1.
<scales pt_clust_5="13000.00000" pt_clust_6="13000.00000" pt_clust_7="13000.00000" pt_clust_8="13000.00000" pt_clust_9="26.85742" pt_clust_10="27.08040"></scales>
<clustering>
<clus scale="   26.857">  2  9  1 -1</clus>
<clus scale="   27.080">  1 10  2 -1</clus>
<clus scale="   92.144">  7  8 -1 -1</clus>
<clus scale="   99.282">  5  6 -1 -1</clus>
<clus scale="  132.391">  2  7  1 -1</clus>
<clus scale="   27.080">  1  5  2 -1</clus>
</clustering>
</event>
<event>
10    2  0.3544405E-006  0.1724110E+03  0.7546771E-02  0.1175941E+00
         21   -1    0    0  501  502  0.00000000000E+00  0.00000000000E+00  0.19766753929E+03  0.19766753929E+03  0.00000000000E+00 0. -1.
          2   -1    0    0  503    0 -0.00000000000E+00 -0.00000000000E+00 -0.11325205678E+04  0.11325205678E+04  0.00000000000E+00 0. -1.
         23    2    1    2    0    0 -0.20476527430E+03 -0.11690845496E+03 -0.76351725490E+03  0.80470713122E+03  0.94860761617E+02 0.  0.
         23    2    1    2    0    0  0.12734160087E+03  0.23413407036E+02  0.74041056481E+02  0.17455090403E+03  0.90674522935E+02 0.  0.
        -13    1    3    3    0    0 -0.61211221058E+02  0.81762718325E+01 -0.23343631055E+03  0.24146671839E+03  0.00000000000E+00 0. -1.
         13    1    3    3    0    0 -0.14355405324E+03 -0.12508472680E+03 -0.53008094435E+03  0.56324041283E+03  0.00000000000E+00 0.  1.
        -13    1    4    4    0    0  0.33226368113E+02  0.49887924876E+02  0.22453592374E+02  0.64007502661E+02  0.00000000000E+00 0.  1.
         13    1    4    4    0    0  0.94115232761E+02 -0.26474517840E+02  0.51587464107E+02  0.11054340137E+03  0.00000000000E+00 0. -1.
         21    1    1    2  503  502  0.74914907727E+02  0.65694596182E+02 -0.28530999971E+03  0.30220823831E+03  0.00000000000E+00 0. -1.
          2    1    1    2  501    0  0.25087656942E+01  0.27800451748E+02  0.39933169651E+02  0.48721833515E+02  0.00000000000E+00 0. -1.
<scales pt_clust_5="13000.00000" pt_clust_6="13000.00000" pt_clust_7="13000.00000" pt_clust_8="13000.00000" pt_clust_9="100.75895" pt_clust_10="27.91342"></scales>
<clustering>
<clus scale="   27.913">  1 10  2 -1</clus>
<clus scale="   90.675">  7  8 -1 -1</clus>
<clus scale="   94.861">  5  6 -1 -1</clus>
<clus scale="  100.759">  2  9  1 -1</clus>
<clus scale="  170.144">  1  7  2 -1</clus>
<clus scale="   27.913">  1  5  2 -1</clus>
</clustering>
</event>
<event>
10    2  0.3544405E-006  0.1182649E+03  0.7546771E-02  0.1245997E+00
         21   -1    0    0  501  502  0.00000000000E+00  0.00000000000E+00  0.12180281934E+03  0.12180281934E+03  0.00000000000E+00 0. -1.
          1   -1    0    0  503    0 -0.00000000000E+00 -0.00000000000E+00 -0.61343597279E+03  0.61343597279E+03  0.00000000000E+00 0. -1.
         23    2    1    2    0    0  0.37035254053E+02 -0.82096986742E+02 -0.51450911922E+03  0.52995491661E+03  0.89560340579E+02 0.  0.
         23    2    1    2    0    0 -0.18858696627E+02 -0.43258858586E+01 -0.36747447066E+01  0.91670778217E+02  0.89530241278E+02 0.  0.
        -11    1    4    4    0    0  0.19601440224E+02 -0.36446010762E+02  0.52842115111E+00  0.41386077227E+02  0.00000000000E+00 0. -1.
         11    1    4    4    0    0 -0.38460136851E+02  0.32120124904E+02 -0.42031658577E+01  0.50284700990E+02  0.00000000000E+00 0.  1.
        -13    1    3    3    0    0  0.28175817742E+01 -0.84707624748E+02 -0.43767011364E+03  0.44580090716E+03  0.00000000000E+00 0. -1.
         13    1    3    3    0    0  0.34217672279E+02  0.26106380061E+01 -0.76839005587E+02  0.84154009451E+02  0.00000000000E+00 0.  1.
         21    1    1    2  503  502 -0.25971648666E+01  0.30655212731E+02 -0.22185316963E+02  0.37929877692E+02  0.00000000000E+00 0.  1.
          1    1    1    2  501    0 -0.15579392559E+02  0.55767659870E+02  0.48736027447E+02  0.75683219614E+02  0.00000000000E+00 0. -1.
<scales pt_clust_5="13000.00000" pt_clust_6="13000.00000" pt_clust_7="13000.00000" pt_clust_8="13000.00000" pt_clust_9="30.76503" pt_clust_10="74.47206"></scales>
<clustering>
<clus scale="   30.765">  1  9  2 -1</clus>
<clus scale="   74.472">  1 10  2 -1</clus>
<clus scale="   89.530">  5  6 -1 -1</clus>
<clus scale="   89.560">  7  8 -1 -1</clus>
<clus scale="  118.242">  1  5  2 -1</clus>
<clus scale="   30.765">  1  5  2 -1</clus>
</clustering>
</event>
<event>
10    2  0.3544405E-006  0.9808130E+02  0.7546771E-02  0.1284779E+00
         21   -1    0    0  501  502  0.00000000000E+00  0.00000000000E+00  0.69974971804E+03  0.69974971804E+03  0.00000000000E+00 0.  1.
          1   -1    0    0  503    0 -0.00000000000E+00 -0.00000000000E+00 -0.40187694394E+02  0.40187694394E+02  0.00000000000E+00 0. -1.
         23    2    1    2    0    0 -0.36283815619E+02  0.57808798139E+01  0.94070858816E+02  0.13572627234E+03  0.90677233519E+02 0.  0.
         23    2    1    2    0    0  0.36787220164E+02  0.47140960153E+02  0.28027122014E+03  0.30034482463E+03  0.89885967505E+02 0.  0.
        -11    1    4    4    0    0  0.57852378892E+02  0.41861327567E+02  0.26321883456E+03  0.27273324579E+03  0.00000000000E+00 0. -1.
         11    1    4    4    0    0 -0.21065158728E+02  0.52796325860E+01  0.17052385573E+02  0.27611578843E+02  0.00000000000E+00 0.  1.
        -13    1    3    3    0    0 -0.54255927458E+02 -0.11816721801E+02  0.95568132852E+02  0.11052876818E+03  0.00000000000E+00 0.  1.
         13    1    3    3    0    0  0.17972111839E+02  0.17597601615E+02 -0.14972740362E+01  0.25197504164E+02  0.00000000000E+00 0. -1.
         21    1    1    2  503  502 -0.24669434024E+01  0.22308098276E+02  0.28120423501E+02  0.35979094990E+02  0.00000000000E+00 0.  1.
          1    1    1    2  501    0  0.19635388569E+01 -0.75229938243E+02  0.25709952119E+03  0.26788722046E+03  0.00000000000E+00 0. -1.
<scales pt_clust_5="13000.00000" pt_clust_6="13000.00000" pt_clust_7="13000.00000" pt_clust_8="13000.00000" pt_clust_9="22.44409" pt_clust_10="71.92907"></scales>
<clustering>
<clus scale="   22.444">  2  9  1 -1</clus>
<clus scale="   71.929">  1 10  2 -1</clus>
<clus scale="   89.886">  5  6 -1 -1</clus>
<clus scale="   90.677">  7  8 -1 -1</clus>
<clus scale="   97.350">  1  5  2 -1</clus>
<clus scale="   71.929">  1  5  2 -1</clus>
</clustering>
</event>
<event>
10    2  0.3544405E-006  0.1000117E+03  0.7546771E-02  0.1283587E+00
          1   -1    0    0  503    0 -0.00000000000E+00  0.00000000000E+00  0.13839665023E+03  0.13839665023E+03  0.00000000000E+00 0. -1.
         21   -1    0    0  501  502  0.00000000000E+00 -0.00000000000E+00 -0.26957248402E+03  0.26957248402E+03  0.00000000000E+00 0. -1.
         23    2    1    2    0    0 -0.70709274916E+01  0.20810120014E+02  0.50705623935E+01  0.94001261938E+02  0.91254958947E+02 0.  0.
         23    2    1    2    0    0  0.91401116286E+01 -0.21514412253E+02 -0.53730072375E+02  0.11376913719E+03  0.97519661216E+02 0.  0.
        -11    1    3    3    0    0  0.42076407765E+02  0.59576262724E+01  0.11999943116E+01  0.42513026093E+02  0.00000000000E+00 0.  1.
         11    1    3    3    0    0 -0.49147335257E+02  0.14852493742E+02  0.38705680819E+01  0.51488235845E+02  0.00000000000E+00 0. -1.
        -11    1    4    4    0    0 -0.32086406941E+02 -0.72887711083E+01  0.11883283415E+02  0.34983940878E+02  0.00000000000E+00 0. -1.
         11    1    4    4    0    0  0.41226518570E+02 -0.14225641145E+02 -0.65613355789E+02  0.78785196308E+02  0.00000000000E+00 0.  1.
         21    1    1    2  503  502 -0.18918339116E+02 -0.11137389583E+02  0.56005461470E+02  0.60154440535E+02  0.00000000000E+00 0.  1.
          1    1    1    2  501    0  0.16849154979E+02  0.11841681821E+02 -0.13852178528E+03  0.14004429459E+03  0.00000000000E+00 0. -1.
<scales pt_clust_5="13000.00000" pt_clust_6="13000.00000" pt_clust_7="13000.00000" pt_clust_8="13000.00000" pt_clust_9="21.62642" pt_clust_10="20.59416"></scales>
<clustering>
<clus scale="   20.594">  2 10  1 -1</clus>
<clus scale="   21.626">  1  9  2 -1</clus>
<clus scale="   91.255">  5  6 -1 -1</clus>
<clus scale="   93.913">  1  5  2 -1</clus>
<clus scale="   97.520">  7  8 -1 -1</clus>
<clus scale="   20.594">  2  5  1 -1</clus>
</clustering>
</event>
<event>
10    2  0.3544405E-006  0.1678854E+03  0.7546771E-02  0.1189416E+00
         21   -1    0    0  501  502  0.00000000000E+00  0.00000000000E+00  0.66431466103E+03  0.66431466103E+03  0.00000000000E+00 0. -1.
          4   -1    0    0  503    0 -0.00000000000E+00 -0.00000000000E+00 -0.78544039291E+03  0.78544039291E+03  0.00000000000E+00 0. -1.
         23    2    1    2    0    0  0.98851024376E+02 -0.27771914125E+02  0.20488766459E+03  0.24658228278E+03  0.91000345314E+02 0.  0.
         23    2    1    2    0    0 -0.20322029531E+03  0.47483500620E+02 -0.41397540886E+03  0.47282030766E+03  0.92899047043E+02 0.  0.
        -11    1    3    3    0    0  0.32778924833E+02 -0.24171104929E+02  0.16358750832E+03  0.16858105797E+03  0.00000000000E+00 0.  1.
         11    1    3    3    0    0  0.66072099543E+02 -0.36008091962E+01  0.41300156268E+02  0.78001224815E+02  0.00000000000E+00 0. -1.
        -13    1    4    4    0    0 -0.52496157365E+02  0.54136721909E+02 -0.10867123647E+03  0.13227270630E+03  0.00000000000E+00 0. -1.
         13    1    4    4    0    0 -0.15072413794E+03 -0.66532212894E+01 -0.30530417239E+03  0.34054760136E+03  0.00000000000E+00 0.  1.
         21    1    1    2  503  502 -0.33785911512E+02 -0.19033537301E+02 -0.30828324080E+03  0.31071260019E+03  0.00000000000E+00 0.  1.
          4    1    1    2  501    0  0.13815518245E+03 -0.67804919291E+00  0.39624525320E+03  0.41963986330E+03  0.00000000000E+00 0. -1.
<scales pt_clust_5="13000.00000" pt_clust_6="13000.00000" pt_clust_7="13000.00000" pt_clust_8="13000.00000" pt_clust_9="38.77839" pt_clust_10="139.84020"></scales>
<clustering>
<clus scale="   38.778">  2  9  1 -1</clus>
<clus scale="   91.000">  5  6 -1 -1</clus>
<clus scale="   92.899">  7  8 -1 -1</clus>
<clus scale="  136.310">  2  5  1 -1</clus>
<clus scale="  139.840">  1 10  2 -1</clus>
<clus scale="  139.840">  1  5  2 -1</clus>
</clustering>
</event>
<event>
10    2  0.3544405E-006  0.1166804E+03  0.7546771E-02  0.1248710E+00
          1   -1    0    0  503    0 -0.00000000000E+00  0.00000000000E+00  0.40645974478E+03  0.40645974478E+03  0.00000000000E+00 0. -1.
         21   -1    0    0  501  502  0.00000000000E+00 -0.00000000000E+00 -0.64317471182E+02  0.64317471182E+02  0.00000000000E+00 0.  1.
         23    2    1    2    0    0 -0.63723847939E+02 -0.67410876086E+01  0.11758457069E+03  0.16174925880E+03  0.90722215578E+02 0.  0.
         23    2    1    2    0    0  0.83839434576E+02 -0.79328650708E+01  0.12521907262E+03  0.17602198962E+03  0.90619774583E+02 0.  0.
        -11    1    3    3    0    0 -0.54112232468E+02  0.36854368131E+02  0.59311958247E+02  0.88341873108E+02  0.00000000000E+00 0. -1.
         11    1    3    3    0    0 -0.96116154708E+01 -0.43595455740E+02  0.58272612441E+02  0.73407385690E+02  0.00000000000E+00 0.  1.
        -11    1    4    4    0    0  0.20096749746E+02  0.22725340661E+02  0.93876461023E+02  0.98656527371E+02  0.00000000000E+00 0. -1.
         11    1    4    4    0    0  0.63742684830E+02 -0.30658205732E+02  0.31342611595E+02  0.77365462253E+02  0.00000000000E+00 0.  1.
         21    1    1    2  503  502 -0.53565882791E+01 -0.19924793308E+02  0.92501379101E+02  0.94774445723E+02  0.00000000000E+00 0. -1.
          1    1    1    2  501    0 -0.14758998357E+02  0.34598745988E+02  0.68372511862E+01  0.38231521814E+02  0.00000000000E+00 0. -1.
<scales pt_clust_5="13000.00000" pt_clust_6="13000.00000" pt_clust_7="13000.00000" pt_clust_8="13000.00000" pt_clust_9="20.63227" pt_clust_10="36.45794"></scales>
<clustering>
<clus scale="   20.632">  1  9  2 -1</clus>
<clus scale="   36.458">  2 10  1 -1</clus>
<clus scale="   90.620">  7  8 -1 -1</clus>
<clus scale="   90.722">  5  6 -1 -1</clus>
<clus scale="  116.601">  2  7  1 -1</clus>
<clus scale="   36.458">  2  5  1 -1</clus>
</clustering>
</event>
<event>
10    2  0.3544405E-006  0.9714493E+02  0.7546771E-02  0.1288020E+00
         -1   -1    0    0    0  501 -0.00000000000E+00  0.00000000000E+00  0.41502894275E+03  0.41502894275E+03  0.00000000000E+00 0.  1.
         21   -1    0    0  503  502  0.00000000000E+00 -0.00000000000E+00 -0.31508932774E+03  0.31508932774E+03  0.00000000000E+00 0.  1.
         23    2    1    2    0    0  0.33728464600E+02  0.92284312088E+01  0.15794355619E+03  0.18560782363E+03  0.91001780107E+02 0.  0.
         23    2    1    2    0    0  0.36049350337E+02 -0.68250696102E+02  0.11027132654E+02  0.11750810693E+03  0.87913846247E+02 0.  0.
        -11    1    4    4    0    0  0.32219065788E+02  0.12612483674E+02 -0.50703869469E+01  0.34969297512E+02  0.00000000000E+00 0.  1.
         11    1    4    4    0    0  0.38302845488E+01 -0.80863179775E+02  0.16097519600E+02  0.82538809420E+02  0.00000000000E+00 0. -1.
        -13    1    3    3    0    0  0.63634282838E+02  0.17475836523E+02  0.98605989535E+02  0.11865019168E+03  0.00000000000E+00 0.  1.
         13    1    3    3    0    0 -0.29905818238E+02 -0.82474053140E+01  0.59337566656E+02  0.66957631944E+02  0.00000000000E+00 0. -1.
         21    1    1    2  503  501 -0.49881566049E+02  0.17673256671E+02  0.17286940208E+03  0.18078812131E+03  0.00000000000E+00 0.  1.
         -1    1    1    2    0  502 -0.19896248889E+02  0.41349008222E+02 -0.24190047591E+03  0.24621421861E+03  0.00000000000E+00 0.  1.
<scales pt_clust_5="13000.00000" pt_clust_6="13000.00000" pt_clust_7="13000.00000" pt_clust_8="13000.00000" pt_clust_9="54.76462" pt_clust_10="45.88683"></scales>
<clustering>
<clus scale="   45.887">  2 10  1 -1</clus>
<clus scale="   54.765">  1  9  2 -1</clus>
<clus scale="   87.914">  5  6 -1 -1</clus>
<clus scale="   91.002">  7  8 -1 -1</clus>
<clus scale="   94.258">  2  5  1 -1</clus>
<clus scale="   45.887">  2  5  1 -1</clus>
</clustering>
</event>
<event>
10    2  0.3544405E-006  0.1118641E+03  0.7546771E-02  0.1261912E+00
         21   -1    0    0  501  502  0.00000000000E+00  0.00000000000E+00  0.65659610359E+02  0.65659610359E+02  0.00000000000E+00 0. -1.
          1   -1    0    0  503    0 -0.00000000000E+00 -0.00000000000E+00 -0.39504690644E+03  0.39504690644E+03  0.00000000000E+00 0. -1.
         23    2    1    2    0    0  0.42213672984E+02  0.40034602248E+02 -0.88326422895E+02  0.13740910625E+03  0.87720818136E+02 0.  0.
         23    2    1    2    0    0 -0.25263961964E+02 -0.44506925073E+02 -0.66918700377E+02  0.13010499089E+03  0.99146669335E+02 0.  0.
        -11    1    3    3    0    0 -0.20950277036E+02  0.29568411772E+01 -0.50976971519E+02  0.55193374991E+02  0.00000000000E+00 0.  1.
         11    1    3    3    0    0  0.63163950020E+02  0.37077761071E+02 -0.37349451376E+02  0.82215731258E+02  0.00000000000E+00 0. -1.
        -11    1    4    4    0    0 -0.25514057456E+02  0.28679583281E+02 -0.22568636987E+02  0.44528968105E+02  0.00000000000E+00 0.  1.
         11    1    4    4    0    0  0.25009549119E+00 -0.73186508354E+02 -0.44350063390E+02  0.85576022784E+02  0.00000000000E+00 0. -1.
         21    1    1    2  503  502 -0.14101612583E+02 -0.18573120481E+02 -0.16739460011E+03  0.16901114882E+03  0.00000000000E+00 0. -1.
          1    1    1    2  501    0 -0.28480984371E+01  0.23045443307E+02 -0.67475726986E+01  0.24181270836E+02  0.00000000000E+00 0. -1.
<scales pt_clust_5="13000.00000" pt_clust_6="13000.00000" pt_clust_7="13000.00000" pt_clust_8="13000.00000" pt_clust_9="23.08493" pt_clust_10="23.22077"></scales>
<clustering>
<clus scale="   23.221">  1 10  2 -1</clus>
<clus scale="   23.085">  2  9  1 -1</clus>
<clus scale="   87.721">  5  6 -1 -1</clus>
<clus scale="   99.147">  7  8 -1 -1</clus>
<clus scale="  101.875">  2  5  1 -1</clus>
<clus scale="   23.221">  1  5  2 -1</clus>
</clustering>
</event>
<event>
10    2  0.3544405E-006  0.1144867E+03  0.7546771E-02  0.1252805E+00
         21   -1    0    0  501  502  0.00000000000E+00  0.00000000000E+00  0.18437948806E+03  0.18437948806E+03  0.00000000000E+00 0. -1.
          2   -1    0    0  503    0 -0.00000000000E+00 -0.00000000000E+00 -0.27786772314E+03  0.27786772314E+03  0.00000000000E+00 0. -1.
         23    2    1    2    0    0  0.32344286155E+02 -0.52885238551E+02 -0.13806183801E+03  0.17720848089E+03  0.92188791504E+02 0.  0.
         23    2    1    2    0    0 -0.19395172055E+02  0.80376246807E+02 -0.51500858625E+02  0.13348779339E+03  0.91269594040E+02 0.  0.
        -11    1    3    3    0    0  0.64682627312E+01 -0.76073405320E+02 -0.94884981732E+02  0.12178736050E+03  0.00000000000E+00 0.  1.
         11    1    3    3    0    0  0.25876023424E+02  0.23188166769E+02 -0.43176856279E+02  0.55421120383E+02  0.00000000000E+00 0. -1.
        -11    1    4    4    0    0 -0.30616650655E+02  0.12425856176E+01 -0.43436199769E+02  0.53156624862E+02  0.00000000000E+00 0.  1.
         11    1    4    4    0    0  0.11221478601E+02  0.79133661189E+02 -0.80646588563E+01  0.80331168531E+02  0.00000000000E+00 0. -1.
         21    1    1    2  503  502 -0.38596271273E+02 -0.98145125200E+01 -0.99474143014E+01  0.41048116442E+02  0.00000000000E+00 0. -1.
          2    1    1    2  501    0  0.25647157172E+02 -0.17676495735E+02  0.10602187586E+03  0.11050282048E+03  0.00000000000E+00 0. -1.
<scales pt_clust_5="13000.00000" pt_clust_6="13000.00000" pt_clust_7="13000.00000" pt_clust_8="13000.00000" pt_clust_9="35.95718" pt_clust_10="31.14860"></scales>
<clustering>
<clus scale="   31.149">  1 10  2 -1</clus>
<clus scale="   35.957">  1  9  2 -1</clus>
<clus scale="   91.270">  7  8 -1 -1</clus>
<clus scale="   92.189">  5  6 -1 -1</clus>
<clus scale="  113.748">  1  7  2 -1</clus>
<clus scale="   31.149">  1  5  2 -1</clus>
</clustering>
</event>
<event>
10    2  0.3544405E-006  0.9630509E+02  0.7546771E-02  0.1288275E+00
          2   -1    0    0  503    0 -0.00000000000E+00  0.00000000000E+00  0.11772548893E+03  0.11772548893E+03  0.00000000000E+00 0. -1.
         21   -1    0    0  501  502  0.00000000000E+00 -0.00000000000E+00 -0.19125780727E+03  0.19125780727E+03  0.00000000000E+00 0.  1.
         23    2    1    2    0    0 -0.31038618344E+02  0.22464347633E+02  0.36691642212E+02  0.10325888110E+03  0.88589373938E+02 0.  0.
         23    2    1    2    0    0 -0.89759222543E+01 -0.28856392318E+02 -0.10796845468E+03  0.14287975941E+03  0.88567374831E+02 0.  0.
        -11    1    3    3    0    0 -0.20526986529E+02 -0.27358357804E+02 -0.84271869274E+01  0.35225763259E+02  0.00000000000E+00 0. -1.
         11    1    3    3    0    0 -0.10511631816E+02  0.49822705436E+02  0.45118829139E+02  0.68033117842E+02  0.00000000000E+00 0.  1.
        -11    1    4    4    0    0  0.27513467613E+02 -0.45707980193E+02 -0.63602914223E+02  0.83015306125E+02  0.00000000000E+00 0.  1.
         11    1    4    4    0    0 -0.36489389867E+02  0.16851587874E+02 -0.44365540458E+02  0.59864453283E+02  0.00000000000E+00 0. -1.
         21    1    1    2  503  502  0.24063728855E+02  0.27069774366E+02  0.24784963558E+01  0.36303976019E+02  0.00000000000E+00 0. -1.
          2    1    1    2  501    0  0.15950811744E+02 -0.20677729680E+02 -0.47340022233E+01  0.26540679665E+02  0.00000000000E+00 0. -1.
<scales pt_clust_5="13000.00000" pt_clust_6="13000.00000" pt_clust_7="13000.00000" pt_clust_8="13000.00000" pt_clust_9="35.83686" pt_clust_10="26.11508"></scales>
<clustering>
<clus scale="   26.115">  2 10  1 -1</clus>
<clus scale="   35.837">  1  9  2 -1</clus>
<clus scale="   88.567">  7  8 -1 -1</clus>
<clus scale="   88.589">  5  6 -1 -1</clus>
<clus scale="   96.285">  2  7  1 -1</clus>
<clus scale="   26.115">  2  5  1 -1</clus>
</clustering>
</event>
<event>
10    2  0.3544405E-006  0.3361338E+03  0.7546771E-02  0.1068465E+00
          2   -1    0    0  503    0 -0.00000000000E+00  0.00000000000E+00  0.18024546099E+03  0.18024546099E+03  0.00000000000E+00 0. -1.
         21   -1    0    0  501  502  0.00000000000E+00 -0.00000000000E+00 -0.95241514906E+03  0.95241514906E+03  0.00000000000E+00 0. -1.
         23    2    1    2    0    0 -0.33031880144E+03 -0.12348450151E+03 -0.15328799986E+03  0.39565313194E+03  0.93194727387E+02 0.  0.
         23    2    1    2    0    0  0.27805091126E+03  0.10629335838E+03 -0.57643829003E+03  0.65546988189E+03  0.93536498570E+02 0.  0.
        -11    1    4    4    0    0  0.26119843111E+03  0.67766106348E+02 -0.49215129689E+03  0.56127512382E+03  0.00000000000E+00 0. -1.
         11    1    4    4    0    0  0.16852480154E+02  0.38527252032E+02 -0.84286993136E+02  0.94194758073E+02  0.00000000000E+00 0.  1.
        -13    1    3    3    0    0 -0.10991538555E+03 -0.87734728225E+02 -0.46316199695E+02  0.14806743352E+03  0.00000000000E+00 0. -1.
         13    1    3    3    0    0 -0.22040341589E+03 -0.35749773283E+02 -0.10697180017E+03  0.24758569841E+03  0.00000000000E+00 0.  1.
         21    1    1    2  503  502  0.34164247885E+02 -0.24854395841E+01 -0.36862819188E+01  0.34452313679E+02  0.00000000000E+00 0.  1.
          2    1    1    2  501    0  0.18103642290E+02  0.19676582712E+02 -0.38757116256E+02  0.47085282540E+02  0.00000000000E+00 0. -1.
<scales pt_clust_5="13000.00000" pt_clust_6="13000.00000" pt_clust_7="13000.00000" pt_clust_8="13000.00000" pt_clust_9="34.60596" pt_clust_10="26.73780"></scales>
<clustering>
<clus scale="   26.738">  2 10  1 -1</clus>
<clus scale="   34.606">  1  9  2 -1</clus>
<clus scale="   93.195">  7  8 -1 -1</clus>
<clus scale="   93.536">  5  6 -1 -1</clus>
<clus scale="  336.039">  1  7  2 -1</clus>
<clus scale="   26.738">  2  5  1 -1</clus>
</clustering>
</event>
<event>
10    2  0.3544405E-006  0.1481297E+03  0.7546771E-02  0.1213820E+00
         21   -1    0    0  503  502  0.00000000000E+00  0.00000000000E+00  0.71757405953E+02  0.71757405953E+02  0.00000000000E+00 0. -1.
         -3   -1    0    0    0  501 -0.00000000000E+00 -0.00000000000E+00 -0.35223200803E+03  0.35223200803E+03  0.00000000000E+00 0.  1.
         23    2    1    2    0    0  0.70009767282E+02  0.12097663691E+02 -0.15119421796E+03  0.18869471529E+03  0.87739860122E+02 0.  0.
         23    2    1    2    0    0 -0.72054286963E+02 -0.20905359385E+02 -0.78077404075E+02  0.16638761704E+03  0.12633251266E+03 0.  0.
        -11    1    4    4    0    0 -0.19204450083E+02  0.36843496094E+02  0.15535090762E+02  0.44357560262E+02  0.00000000000E+00 0.  1.
         11    1    4    4    0    0 -0.52849836880E+02 -0.57748855479E+02 -0.93612494837E+02  0.12203005678E+03  0.00000000000E+00 0. -1.
        -13    1    3    3    0    0  0.19700734177E+02 -0.22892968016E+02 -0.55838657960E+01  0.30714597001E+02  0.00000000000E+00 0. -1.
         13    1    3    3    0    0  0.50309033105E+02  0.34990631707E+02 -0.14561035216E+03  0.15798011829E+03  0.00000000000E+00 0.  1.
         21    1    1    2  503  501  0.23363497249E+02  0.47853874714E+01 -0.32175362700E+02  0.40050054954E+02  0.00000000000E+00 0.  1.
         -3    1    1    2    0  502 -0.21318977568E+02  0.40223082222E+01 -0.19027617344E+02  0.28857026697E+02  0.00000000000E+00 0.  1.
<scales pt_clust_5="13000.00000" pt_clust_6="13000.00000" pt_clust_7="13000.00000" pt_clust_8="13000.00000" pt_clust_9="22.67101" pt_clust_10="21.69511"></scales>
<clustering>
<clus scale="   21.695">  1 10  2 -1</clus>
<clus scale="   22.671">  2  9  1 -1</clus>
<clus scale="   87.740">  7  8 -1 -1</clus>
<clus scale="  116.965">  2  7  1 -1</clus>
<clus scale="  126.333">  5  6 -1 -1</clus>
<clus scale="   21.695">  1  5  2 -1</clus>
</clustering>
</event>
<event>
10    2  0.3544405E-006  0.1700924E+03  0.7546771E-02  0.1178336E+00
          3   -1    0    0  503    0 -0.00000000000E+00  0.00000000000E+00  0.17558959634E+03  0.17558959634E+03  0.00000000000E+00 0. -1.
         21   -1    0    0  501  502  0.00000000000E+00 -0.00000000000E+00 -0.49658449662E+03  0.49658449662E+03  0.00000000000E+00 0. -1.
         23    2    1    2    0    0  0.11552413079E+03 -0.82787497374E+01 -0.53546330338E+02  0.15796301847E+03  0.93116825654E+02 0.  0.
         23    2    1    2    0    0 -0.15365585851E+03 -0.88116392045E+02 -0.18724245530E+02  0.20285156485E+03  0.97074912258E+02 0.  0.
        -11    1    4    4    0    0 -0.12011232719E+03 -0.14826678999E+02 -0.17166025682E+02  0.12223532219E+03  0.00000000000E+00 0.  1.
         11    1    4    4    0    0 -0.33543531320E+02 -0.73289713045E+02 -0.15582198479E+01  0.80616242661E+02  0.00000000000E+00 0. -1.
        -11    1    3    3    0    0  0.76038945139E+00 -0.30087098537E+02 -0.16646163588E+01  0.30142704558E+02  0.00000000000E+00 0.  1.
         11    1    3    3    0    0  0.11476374134E+03  0.21808348799E+02 -0.51881713979E+02  0.12782031391E+03  0.00000000000E+00 0. -1.
         21    1    1    2  503  502 -0.23226621020E+02  0.54436965417E+02 -0.83704991763E+01  0.59773944025E+02  0.00000000000E+00 0. -1.
          3    1    1    2  501    0  0.61358348735E+02  0.41958176365E+02 -0.24035382523E+03  0.25158556562E+03  0.00000000000E+00 0. -1.
<scales pt_clust_5="13000.00000" pt_clust_6="13000.00000" pt_clust_7="13000.00000" pt_clust_8="13000.00000" pt_clust_9="59.18496" pt_clust_10="74.79717"></scales>
<clustering>
<clus scale="   59.185">  1  9  2 -1</clus>
<clus scale="   74.797">  2 10  1 -1</clus>
<clus scale="   93.117">  7  8 -1 -1</clus>
<clus scale="   97.075">  5  6 -1 -1</clus>
<clus scale="  167.865">  1  7  2 -1</clus>
<clus scale="   74.797">  2  5  1 -1</clus>
</clustering>
</event>
<event>
10    2  0.3544405E-006  0.1182785E+03  0.7546771E-02  0.1248721E+00
         21   -1    0    0  501  502  0.00000000000E+00  0.00000000000E+00  0.33278730371E+03  0.33278730371E+03  0.00000000000E+00 0. -1.
          1   -1    0    0  503    0 -0.00000000000E+00 -0.00000000000E+00 -0.22047465876E+03  0.22047465876E+03  0.00000000000E+00 0. -1.
         23    2    1    2    0    0  0.74878712318E+02 -0.28695967191E+02 -0.12605284389E+03  0.17421573297E+03  0.89618759588E+02 0.  0.
         23    2    1    2    0    0 -0.75735997348E+02 -0.24862349919E+02  0.63845555085E+02  0.13037087568E+03  0.81032293464E+02 0.  0.
        -11    1    4    4    0    0 -0.56121472390E+02  0.12920651428E+02  0.66188780041E+02  0.87735497376E+02  0.00000000000E+00 0.  1.
         11    1    4    4    0    0 -0.19614524959E+02 -0.37783001347E+02 -0.23432249552E+01  0.42635378306E+02  0.00000000000E+00 0. -1.
        -11    1    3    3    0    0  0.57623001836E+02  0.13512113596E+02 -0.11169919443E+03  0.12641082861E+03  0.00000000000E+00 0. -1.
         11    1    3    3    0    0  0.17255710481E+02 -0.42208080787E+02 -0.14353649464E+02  0.47804904360E+02  0.00000000000E+00 0.  1.
         21    1    1    2  503  502  0.40851262734E+02  0.52574974097E+02 -0.30542256585E+01  0.66650445329E+02  0.00000000000E+00 0. -1.
          1    1    1    2  501    0 -0.39993977703E+02  0.98334301356E+00  0.17757415942E+03  0.18202490848E+03  0.00000000000E+00 0. -1.
<scales pt_clust_5="13000.00000" pt_clust_6="13000.00000" pt_clust_7="13000.00000" pt_clust_8="13000.00000" pt_clust_9="62.00341" pt_clust_10="40.00606"></scales>
<clustering>
<clus scale="   40.006">  1 10  2 -1</clus>
<clus scale="   62.003">  1  9  2 -1</clus>
<clus scale="   81.032">  5  6 -1 -1</clus>
<clus scale="   89.619">  7  8 -1 -1</clus>
<clus scale="  111.913">  1  5  2 -1</clus>
<clus scale="   40.006">  1  5  2 -1</clus>
</clustering>
</event>
<event>
10    2  0.3544405E-006  0.9271806E+02  0.7546771E-02  0.1296542E+00
         -1   -1    0    0    0  501 -0.00000000000E+00  0.00000000000E+00  0.21163852805E+03  0.21163852805E+03  0.00000000000E+00 0.  1.
         21   -1    0    0  503  502  0.00000000000E+00 -0.00000000000E+00 -0.28442391069E+03  0.28442391069E+03  0.00000000000E+00 0.  1.
         23    2    1    2    0    0  0.43275439021E+01 -0.20812564905E+02  0.12487407441E+03  0.15672148583E+03  0.92283255069E+02 0.  0.
         23    2    1    2    0    0 -0.28348442376E+02 -0.20663450678E+02 -0.59617053749E+02  0.11552628833E+03  0.92528470313E+02 0.  0.
        -11    1    3    3    0    0  0.45589464377E+02  0.48728664935E+01  0.54966817927E+02  0.71578594308E+02  0.00000000000E+00 0. -1.
         11    1    3    3    0    0 -0.41261920475E+02 -0.25685431399E+02  0.69907256484E+02  0.85142891521E+02  0.00000000000E+00 0.  1.
        -11    1    4    4    0    0 -0.12776400995E+01 -0.38183765269E+02 -0.71576125021E+02  0.81134295876E+02  0.00000000000E+00 0. -1.
         11    1    4    4    0    0 -0.27070802276E+02  0.17520314590E+02  0.11959071272E+02  0.34391992454E+02  0.00000000000E+00 0.  1.
         21    1    1    2  503  501 -0.23998567790E+02  0.20737404142E+02  0.32511655994E+02  0.45420028203E+02  0.00000000000E+00 0. -1.
         -1    1    1    2    0  502  0.48019466264E+02  0.20738611442E+02 -0.17055405930E+03  0.17839463638E+03  0.00000000000E+00 0.  1.
<scales pt_clust_5="13000.00000" pt_clust_6="13000.00000" pt_clust_7="13000.00000" pt_clust_8="13000.00000" pt_clust_9="31.71705" pt_clust_10="51.99691"></scales>
<clustering>
<clus scale="   31.717">  1  9  2 -1</clus>
<clus scale="   51.997">  2 10  1 -1</clus>
<clus scale="   92.283">  5  6 -1 -1</clus>
<clus scale="   92.473">  1  5  2 -1</clus>
<clus scale="   92.528">  7  8 -1 -1</clus>
<clus scale="   51.997">  2  5  1 -1</clus>
</clustering>
</event>
<event>
10    2  0.3544405E-006  0.1187017E+03  0.7546771E-02  0.1246439E+00
          4   -1    0    0  503    0 -0.00000000000E+00  0.00000000000E+00  0.19981769264E+03  0.19981769264E+03  0.00000000000E+00 0. -1.
         21   -1    0    0  501  502  0.00000000000E+00 -0.00000000000E+00 -0.21583093670E+03  0.21583093670E+03  0.00000000000E+00 0.  1.
         23    2    1    2    0    0  0.21369153309E+01 -0.86138283658E+02  0.15053230089E+02  0.12554802872E+03  0.90062963863E+02 0.  0.
         23    2    1    2    0    0  0.60307803165E+02  0.43137580441E+02 -0.11774126253E+03  0.16771412574E+03  0.93633012881E+02 0.  0.
        -13    1    4    4    0    0  0.13598109144E+02  0.62536620518E+02 -0.41687285495E+02  0.76377792912E+02  0.00000000000E+00 0. -1.
         13    1    4    4    0    0  0.46709694021E+02 -0.19399040077E+02 -0.76053977037E+02  0.91336332829E+02  0.00000000000E+00 0.  1.
        -13    1    3    3    0    0  0.42965959292E+02 -0.66268679337E+02  0.13426740102E+02  0.80111727410E+02  0.00000000000E+00 0. -1.
         13    1    3    3    0    0 -0.40829043961E+02 -0.19869604321E+02  0.16264899877E+01  0.45436301306E+02  0.00000000000E+00 0.  1.
         21    1    1    2  503  502 -0.46541300383E+02  0.23406974335E+02  0.81340587749E+02  0.96593324326E+02  0.00000000000E+00 0. -1.
          4    1    1    2  501    0 -0.15903418112E+02  0.19593728881E+02  0.53342006354E+01  0.25793150555E+02  0.00000000000E+00 0. -1.
<scales pt_clust_5="13000.00000" pt_clust_6="13000.00000" pt_clust_7="13000.00000" pt_clust_8="13000.00000" pt_clust_9="52.95082" pt_clust_10="25.23556"></scales>
<clustering>
<clus scale="   25.236">  2 10  1 -1</clus>
<clus scale="   52.951">  1  9  2 -1</clus>
<clus scale="   90.063">  7  8 -1 -1</clus>
<clus scale="   93.633">  5  6 -1 -1</clus>
<clus scale="  115.906">  1  7  2 -1</clus>
<clus scale="   25.236">  2  5  1 -1</clus>
</clustering>
</event>
<event>
10    2  0.3544405E-006  0.9396016E+02  0.7546771E-02  0.1296050E+00
          3   -1    0    0  503    0 -0.00000000000E+00  0.00000000000E+00  0.90247418176E+02  0.90247418176E+02  0.00000000000E+00 0. -1.
         21   -1    0    0  501  502  0.00000000000E+00 -0.00000000000E+00 -0.37801117926E+03  0.37801117926E+03  0.00000000000E+00 0. -1.
         23    2    1    2    0    0  0.14493503149E+02  0.30828132679E+02 -0.20374312336E+02  0.93243963733E+02  0.84373507521E+02 0.  0.
         23    2    1    2    0    0 -0.45270687076E+02 -0.99048082669E+01 -0.56928804273E+02  0.11530494929E+03  0.88920201528E+02 0.  0.
        -11    1    4    4    0    0 -0.39219003183E+01 -0.42806505555E+02 -0.42681397899E+02  0.60576232522E+02  0.00000000000E+00 0.  1.
         11    1    4    4    0    0 -0.41348786757E+02  0.32901697288E+02 -0.14247406375E+02  0.54728716768E+02  0.00000000000E+00 0. -1.
        -13    1    3    3    0    0 -0.33811774483E+01  0.47484562839E+02  0.15301822563E+02  0.50003618296E+02  0.00000000000E+00 0. -1.
         13    1    3    3    0    0  0.17874680598E+02 -0.16656430160E+02 -0.35676134899E+02  0.43240345436E+02  0.00000000000E+00 0.  1.
         21    1    1    2  503  502 -0.87657901764E+01 -0.29383288968E+02  0.12499056907E+02  0.33112583281E+02  0.00000000000E+00 0.  1.
          3    1    1    2  501    0  0.39542974103E+02  0.84599645559E+01 -0.22295970139E+03  0.22659710114E+03  0.00000000000E+00 0. -1.
<scales pt_clust_5="13000.00000" pt_clust_6="13000.00000" pt_clust_7="13000.00000" pt_clust_8="13000.00000" pt_clust_9="30.66295" pt_clust_10="40.04747"></scales>
<clustering>
<clus scale="   30.663">  1  9  2 -1</clus>
<clus scale="   40.047">  2 10  1 -1</clus>
<clus scale="   84.374">  7  8 -1 -1</clus>
<clus scale="   88.920">  5  6 -1 -1</clus>
<clus scale="   89.669">  1  7  2 -1</clus>
<clus scale="   40.047">  2  5  1 -1</clus>
</clustering>
</event>
<event>
10    2  0.3544405E-006  0.1400630E+03  0.7546771E-02  0.1213433E+00
          2   -1    0    0  503    0 -0.00000000000E+00  0.00000000000E+00  0.52609357367E+03  0.52609357367E+03  0.00000000000E+00 0. -1.
         21   -1    0    0  501  502  0.00000000000E+00 -0.00000000000E+00 -0.28009783509E+03  0.28009783509E+03  0.00000000000E+00 0. -1.
         23    2    1    2    0    0  0.32969964411E+02  0.93314015927E+02  0.16183071249E+03  0.21039280681E+03  0.91002360023E+02 0.  0.
         23    2    1    2    0    0  0.25761495309E+02 -0.13126347365E+03  0.55439589969E+02  0.17056432015E+03  0.90138144059E+02 0.  0.
        -11    1    4    4    0    0 -0.22758671727E+02 -0.24718627782E+02  0.40373714787E+02  0.52526227200E+02  0.00000000000E+00 0.  1.
         11    1    4    4    0    0  0.48520167036E+02 -0.10654484587E+03  0.15065875182E+02  0.11803809295E+03  0.00000000000E+00 0. -1.
        -11    1    3    3    0    0 -0.22132850657E+02 -0.17934549946E+01  0.14278705099E+02  0.26400018529E+02  0.00000000000E+00 0. -1.
         11    1    3    3    0    0  0.55102815068E+02  0.95107470921E+02  0.14755200739E+03  0.18399278828E+03  0.00000000000E+00 0.  1.
         21    1    1    2  503  502  0.56163991108E+02 -0.11828077540E+02  0.20282115303E+03  0.21078595169E+03  0.00000000000E+00 0. -1.
          2    1    1    2  501    0 -0.11489545083E+03  0.49777535268E+02 -0.17409571691E+03  0.21444833010E+03  0.00000000000E+00 0. -1.
<scales pt_clust_5="13000.00000" pt_clust_6="13000.00000" pt_clust_7="13000.00000" pt_clust_8="13000.00000" pt_clust_9="57.39597" pt_clust_10="121.66334"></scales>
<clustering>
<clus scale="   57.396">  1  9  2 -1</clus>
<clus scale="   90.138">  5  6 -1 -1</clus>
<clus scale="   91.002">  7  8 -1 -1</clus>
<clus scale="  121.663">  2 10  1 -1</clus>
<clus scale="  139.503">  2  5  1 -1</clus>
<clus scale="  121.663">  2  5  1 -1</clus>
</clustering>
</event>
<event>
10    2  0.3544405E-006  0.1383765E+03  0.7546771E-02  0.1215663E+00
         21   -1    0    0  503  502  0.00000000000E+00  0.00000000000E+00  0.46608695494E+02  0.46608695494E+02  0.00000000000E+00 0. -1.
         -2   -1    0    0    0  501 -0.00000000000E+00 -0.00000000000E+00 -0.91439195316E+03  0.91439195316E+03  0.00000000000E+00 0.  1.
         23    2    1    2    0    0  0.13113566973E+02  0.10922272774E+03 -0.34995940156E+03  0.37801230473E+03  0.91214855629E+02 0.  0.
         23    2    1    2    0    0 -0.34839482936E+02 -0.93772041638E+02 -0.12627215283E+03  0.18541565558E+03  0.91800454183E+02 0.  0.
        -11    1    4    4    0    0 -0.59888938492E+02 -0.52229856666E+02 -0.10685473340E+03  0.13316372228E+03  0.00000000000E+00 0.  1.
         11    1    4    4    0    0  0.25049455556E+02 -0.41542184972E+02 -0.19417419427E+02  0.52251933295E+02  0.00000000000E+00 0. -1.
        -11    1    3    3    0    0 -0.16745132486E+02  0.19646780971E+02 -0.14692126673E+02  0.29702761668E+02  0.00000000000E+00 0. -1.
         11    1    3    3    0    0  0.29858699459E+02  0.89575946770E+02 -0.33526727489E+03  0.34830954306E+03  0.00000000000E+00 0.  1.
         21    1    1    2  503  501 -0.22674992691E+02 -0.70008389283E+01 -0.13390535522E+03  0.13599195268E+03  0.00000000000E+00 0.  1.
         -2    1    1    2    0  502  0.44400908654E+02 -0.84498471751E+01 -0.25764634806E+03  0.26158073567E+03  0.00000000000E+00 0.  1.
<scales pt_clust_5="13000.00000" pt_clust_6="13000.00000" pt_clust_7="13000.00000" pt_clust_8="13000.00000" pt_clust_9="23.73114" pt_clust_10="38.39338"></scales>
<clustering>
<clus scale="   23.731">  2  9  1 -1</clus>
<clus scale="   38.393">  1 10  2 -1</clus>
<clus scale="   91.215">  7  8 -1 -1</clus>
<clus scale="   91.800">  5  6 -1 -1</clus>
<clus scale="  137.989">  2  7  1 -1</clus>
<clus scale="   38.393">  1  5  2 -1</clus>
</clustering>
</event>
<event>
10    2  0.3544405E-006  0.1663327E+03  0.7546771E-02  0.1182002E+00
         21   -1    0    0  501  502  0.00000000000E+00  0.00000000000E+00  0.11604948765E+03  0.11604948765E+03  0.00000000000E+00 0.  1.
          2   -1    0    0  503    0 -0.00000000000E+00 -0.00000000000E+00 -0.89280052501E+03  0.89280052501E+03  0.00000000000E+00 0. -1.
         23    2    1    2    0    0 -0.10515676894E+03  0.25046610533E+02 -0.31149247561E+03  0.34163734974E+03  0.89460816146E+02 0.  0.
         23    2    1    2    0    0  0.20264652325E+03 -0.24245346630E+02 -0.36680672697E+03  0.42958491369E+03  0.91337686133E+02 0.  0.
        -11    1    3    3    0    0 -0.34232356891E+02 -0.31994185209E+02 -0.13771190976E+03  0.14546495192E+03  0.00000000000E+00 0. -1.
         11    1    3    3    0    0 -0.70924412050E+02  0.57040795742E+02 -0.17378056584E+03  0.19617239783E+03  0.00000000000E+00 0.  1.
        -13    1    4    4    0    0  0.14103006149E+03 -0.32855277716E+02 -0.17070561027E+03  0.22385118470E+03  0.00000000000E+00 0.  1.
         13    1    4    4    0    0  0.61616461759E+02  0.86099310861E+01 -0.19610111670E+03  0.20573372899E+03  0.00000000000E+00 0. -1.
         21    1    1    2  503  502 -0.15015599080E+03 -0.14416328835E+02 -0.10358612782E+03  0.18298835479E+03  0.00000000000E+00 0.  1.
          2    1    1    2  501    0  0.52666236495E+02  0.13615064932E+02  0.51342930369E+01  0.54639394439E+02  0.00000000000E+00 0. -1.
<scales pt_clust_5="13000.00000" pt_clust_6="13000.00000" pt_clust_7="13000.00000" pt_clust_8="13000.00000" pt_clust_9="126.15208" pt_clust_10="54.39763"></scales>
<clustering>
<clus scale="   54.398">  1 10  2 -1</clus>
<clus scale="   89.461">  5  6 -1 -1</clus>
<clus scale="   91.338">  7  8 -1 -1</clus>
<clus scale="  126.152">  1  9  2 -1</clus>
<clus scale="  165.310">  2  5  1 -1</clus>
<clus scale="   54.398">  1  5  2 -1</clus>
</clustering>
</event>
<event>
10    2  0.3544405E-006  0.1601853E+03  0.7546771E-02  0.1188755E+00
          1   -1    0    0  502    0 -0.00000000000E+00  0.00000000000E+00  0.30831914066E+03  0.30831914066E+03  0.00000000000E+00 0. -1.
         21   -1    0    0  503  502  0.00000000000E+00 -0.00000000000E+00 -0.15712440903E+03  0.15712440903E+03  0.00000000000E+00 0. -1.
         23    2    1    2    0    0  0.10252066101E+03  0.78125029916E+02  0.17542663354E+03  0.23721839469E+03  0.94255274613E+02 0.  0.
         23    2    1    2    0    0 -0.12708489410E+03 -0.47944766260E+02 -0.31401115625E+02  0.16738507578E+03  0.92641581436E+02 0.  0.
        -13    1    4    4    0    0 -0.10892517820E+03 -0.36519986669E+02  0.15389228606E+02  0.11591044918E+03  0.00000000000E+00 0. -1.
         13    1    4    4    0    0 -0.18159715903E+02 -0.11424779591E+02 -0.46790344232E+02  0.51474626601E+02  0.00000000000E+00 0.  1.
        -13    1    3    3    0    0  0.16796572770E+01  0.53958024863E+02  0.78534263974E+02  0.95299109721E+02  0.00000000000E+00 0.  1.
         13    1    3    3    0    0  0.10084100373E+03  0.24167005053E+02  0.96892369565E+02  0.14191928497E+03  0.00000000000E+00 0. -1.
         21    1    1    2  503  501 -0.11743027912E+02 -0.19160957377E+02  0.27824552561E+01  0.22644713498E+02  0.00000000000E+00 0. -1.
          1    1    1    2  501    0  0.36307261007E+02 -0.11019306280E+02  0.43867584566E+01  0.38195365720E+02  0.00000000000E+00 0. -1.
<scales pt_clust_5="13000.00000" pt_clust_6="13000.00000" pt_clust_7="13000.00000" pt_clust_8="13000.00000" pt_clust_9="22.47312" pt_clust_10="37.37473"></scales>
<clustering>
<clus scale="   22.473">  2  9  1 -1</clus>
<clus scale="   37.375">  2 10  1 -1</clus>
<clus scale="   92.642">  5  6 -1 -1</clus>
<clus scale="   94.255">  7  8 -1 -1</clus>
<clus scale="  159.241">  2  5  1 -1</clus>
<clus scale="   22.473">  2  5  1 -1</clus>
</clustering>
</event>
<event>
10    2  0.3544405E-006  0.2755374E+03  0.7546771E-02  0.1127151E+00
         -2   -1    0    0    0  501 -0.00000000000E+00  0.00000000000E+00  0.24319460612E+03  0.24319460612E+03  0.00000000000E+00 0.  1.
         21   -1    0    0  503  502  0.00000000000E+00 -0.00000000000E+00 -0.86747291275E+03  0.86747291275E+03  0.00000000000E+00 0.  1.
         23    2    1    2    0    0 -0.40461280913E+02 -0.85107911206E+02 -0.54247369662E+02  0.14119734976E+03  0.90074650488E+02 0.  0.
         23    2    1    2    0    0  0.21468631363E+03  0.23968745199E+03 -0.24001503729E+03  0.41174425157E+03  0.91574137612E+02 0.  0.
        -11    1    3    3    0    0  0.13899483547E+02 -0.70204686006E+02 -0.16761564190E+02  0.73504038080E+02  0.00000000000E+00 0.  1.
         11    1    3    3    0    0 -0.54360764460E+02 -0.14903225201E+02 -0.37485805472E+02  0.67693311678E+02  0.00000000000E+00 0. -1.
        -11    1    4    4    0    0  0.50721055941E+02  0.12215000847E+03 -0.10666817121E+03  0.16991571097E+03  0.00000000000E+00 0. -1.
         11    1    4    4    0    0  0.16396525769E+03  0.11753744352E+03 -0.13334686607E+03  0.24182854060E+03  0.00000000000E+00 0.  1.
         21    1    1    2  503  501  0.22609068361E+02 -0.19288692538E+02  0.78818826557E+02  0.84235568804E+02  0.00000000000E+00 0.  1.
         -2    1    1    2    0  502 -0.19683410108E+03 -0.13529084824E+03 -0.40883472624E+03  0.47349034873E+03  0.00000000000E+00 0.  1.
<scales pt_clust_5="13000.00000" pt_clust_6="13000.00000" pt_clust_7="13000.00000" pt_clust_8="13000.00000" pt_clust_9="29.71908" pt_clust_10="259.87501"></scales>
<clustering>
<clus scale="   29.719">  1  9  2 -1</clus>
<clus scale="   90.075">  5  6 -1 -1</clus>
<clus scale="   91.574">  7  8 -1 -1</clus>
<clus scale="  132.094">  1  5  2 -1</clus>
<clus scale="  259.875">  2 10  1 -1</clus>
<clus scale="  259.875">  2  5  1 -1</clus>
</clustering>
</event>
<event>
10    2  0.3544405E-006  0.9437645E+02  0.7546771E-02  0.1293442E+00
         -3   -1    0    0    0  501 -0.00000000000E+00  0.00000000000E+00  0.15990842458E+03  0.15990842458E+03  0.00000000000E+00 0.  1.
         21   -1    0    0  503  502  0.00000000000E+00 -0.00000000000E+00 -0.30884558842E+03  0.30884558842E+03  0.00000000000E+00 0.  1.
         23    2    1    2    0    0  0.18634070352E+02 -0.14148935472E+01  0.11177016006E+03  0.14559337611E+03  0.91409146072E+02 0.  0.
         23    2    1    2    0    0 -0.37617014431E+01 -0.42718486140E+01 -0.78018610566E+02  0.12146746283E+03  0.92924925849E+02 0.  0.
        -13    1    3    3    0    0 -0.10909154550E+02  0.40163048669E+02  0.41597716199E+02  0.58842587676E+02  0.00000000000E+00 0. -1.
         13    1    3    3    0    0  0.29543224902E+02 -0.41577942216E+02  0.70172443863E+02  0.86750788436E+02  0.00000000000E+00 0.  1.
        -13    1    4    4    0    0 -0.55363054584E+01 -0.30251159603E+02  0.78480890414E+01  0.31739184568E+02  0.00000000000E+00 0.  1.
         13    1    4    4    0    0  0.17746040153E+01  0.25979310989E+02 -0.85866699607E+02  0.89728278264E+02  0.00000000000E+00 0. -1.
         21    1    1    2  503  501 -0.29622057324E+02 -0.17068153959E+02 -0.26736095065E+02  0.43400540769E+02  0.00000000000E+00 0.  1.
         -3    1    1    2    0  502  0.14749688416E+02  0.22754896120E+02 -0.15595261827E+03  0.15829263329E+03  0.00000000000E+00 0.  1.
<scales pt_clust_5="13000.00000" pt_clust_6="13000.00000" pt_clust_7="13000.00000" pt_clust_8="13000.00000" pt_clust_9="28.75000" pt_clust_10="27.11713"></scales>
<clustering>
<clus scale="   27.117">  2 10  1 -1</clus>
<clus scale="   28.750">  2  9  1 -1</clus>
<clus scale="   91.409">  5  6 -1 -1</clus>
<clus scale="   92.884">  1  5  2 -1</clus>
<clus scale="   92.925">  7  8 -1 -1</clus>
<clus scale="   27.117">  2  5  1 -1</clus>
</clustering>
</event>
<event>
10    2  0.3544405E-006  0.1127285E+03  0.7546771E-02  0.1258081E+00
         21   -1    0    0  501  502  0.00000000000E+00  0.00000000000E+00  0.91396773504E+02  0.91396773504E+02  0.00000000000E+00 0.  1.
          1   -1    0    0  503    0 -0.00000000000E+00 -0.00000000000E+00 -0.30900438827E+03  0.30900438827E+03  0.00000000000E+00 0. -1.
         23    2    1    2    0    0 -0.44655267670E+02  0.20963584447E+02 -0.10280190100E+03  0.14520247331E+03  0.89899736395E+02 0.  0.
         23    2    1    2    0    0  0.74866220336E+02  0.16563287172E+02 -0.12657006357E+03  0.17654512323E+03  0.96275158342E+02 0.  0.
        -11    1    4    4    0    0  0.49894857348E+02  0.41957040743E+02 -0.26579822679E+02  0.70401541399E+02  0.00000000000E+00 0.  1.
         11    1    4    4    0    0  0.24971362988E+02 -0.25393753571E+02 -0.99990240892E+02  0.10614358183E+03  0.00000000000E+00 0. -1.
        -11    1    3    3    0    0 -0.46978225929E+02 -0.61388628665E+01 -0.10761104786E+03  0.11757881174E+03  0.00000000000E+00 0.  1.
         11    1    3    3    0    0  0.23229582598E+01  0.27102447313E+02  0.48091468566E+01  0.27623661577E+02  0.00000000000E+00 0. -1.
         21    1    1    2  503  502 -0.27596410308E+02 -0.10542683490E+02 -0.20912608847E+02  0.36194574812E+02  0.00000000000E+00 0. -1.
          1    1    1    2  501    0 -0.26145423575E+01 -0.26984188129E+02  0.32676958652E+02  0.42458990420E+02  0.00000000000E+00 0. -1.
<scales pt_clust_5="13000.00000" pt_clust_6="13000.00000" pt_clust_7="13000.00000" pt_clust_8="13000.00000" pt_clust_9="31.44470" pt_clust_10="27.11056"></scales>
<clustering>
<clus scale="   27.111">  1 10  2 -1</clus>
<clus scale="   31.445">  1  9  2 -1</clus>
<clus scale="   89.900">  7  8 -1 -1</clus>
<clus scale="   96.275">  5  6 -1 -1</clus>
<clus scale="  107.335">  2  7  1 -1</clus>
<clus scale="   27.111">  1  5  2 -1</clus>
</clustering>
</event>
<event>
10    2  0.3544405E-006  0.9322338E+02  0.7546771E-02  0.1299011E+00
         21   -1    0    0  501  502  0.00000000000E+00  0.00000000000E+00  0.15608512544E+03  0.15608512544E+03  0.00000000000E+00 0.  1.
          3   -1    0    0  503    0 -0.00000000000E+00 -0.00000000000E+00 -0.11982685232E+03  0.11982685232E+03  0.00000000000E+00 0. -1.
         23    2    1    2    0    0 -0.17095840220E+02  0.14663272634E+02 -0.97119403566E+01  0.96110395117E+02  0.92927966442E+02 0.  0.
         23    2    1    2    0    0  0.14725402971E+01  0.27685494270E+02  0.39013576158E+02  0.98945215848E+02  0.86599316664E+02 0.  0.
        -11    1    3    3    0    0 -0.91755586100E+01 -0.24330631932E+02 -0.38880213016E+02  0.46774367876E+02  0.00000000000E+00 0. -1.
         11    1    3    3    0    0 -0.79202816096E+01  0.38993904565E+02  0.29168272660E+02  0.49336027242E+02  0.00000000000E+00 0.  1.
        -13    1    4    4    0    0 -0.37541690926E+02  0.62265411198E+01  0.38900484017E+02  0.54418710281E+02  0.00000000000E+00 0. -1.
         13    1    4    4    0    0  0.39014231223E+02  0.21458953150E+02  0.11309214089E+00  0.44526505567E+02  0.00000000000E+00 0.  1.
         21    1    1    2  503  502  0.23828968864E+02 -0.12817447897E+02 -0.24812663215E+02  0.36712055017E+02  0.00000000000E+00 0. -1.
          3    1    1    2  501    0 -0.82056689420E+01 -0.29531319006E+02  0.31769300535E+02  0.44144311769E+02  0.00000000000E+00 0. -1.
<scales pt_clust_5="13000.00000" pt_clust_6="13000.00000" pt_clust_7="13000.00000" pt_clust_8="13000.00000" pt_clust_9="27.05747" pt_clust_10="31.11896"></scales>
<clustering>
<clus scale="   27.057">  2  9  1 -1</clus>
<clus scale="   31.119">  1 10  2 -1</clus>
<clus scale="   86.599">  7  8 -1 -1</clus>
<clus scale="   86.916">  1  7  2 -1</clus>
<clus scale="   92.928">  5  6 -1 -1</clus>
<clus scale="   31.119">  1  5  2 -1</clus>
</clustering>
</event>
<event>
10    2  0.3544405E-006  0.1044003E+03  0.7546771E-02  0.1272664E+00
         -3   -1    0    0    0  501 -0.00000000000E+00  0.00000000000E+00  0.11200745786E+04  0.11200745786E+04  0.00000000000E+00 0.  1.
         21   -1    0    0  503  502  0.00000000000E+00 -0.00000000000E+00 -0.11611334388E+03  0.11611334388E+03  0.00000000000E+00 0.  1.
         23    2    1    2    0    0  0.30666242032E+02 -0.87625564129E+02  0.72297234317E+03  0.73461896007E+03  0.91418540933E+02 0.  0.
         23    2    1    2    0    0 -0.65367799908E+02 -0.49410006401E+02  0.63763984172E+02  0.13631368573E+03  0.88324839335E+02 0.  0.
        -13    1    3    3    0    0  0.10516653825E+02  0.18646722459E+02  0.93372169591E+02  0.95794897152E+02  0.00000000000E+00 0. -1.
         13    1    3    3    0    0  0.20149588208E+02 -0.10627228659E+03  0.62960017358E+03  0.63882406292E+03  0.00000000000E+00 0.  1.
        -13    1    4    4    0    0  0.21173088505E+02 -0.87674157307E+00  0.12994686631E+02  0.24858202535E+02  0.00000000000E+00 0. -1.
         13    1    4    4    0    0 -0.86540888414E+02 -0.48533264828E+02  0.50769297540E+02  0.11145548320E+03  0.00000000000E+00 0.  1.
         21    1    1    2  503  501  0.22822011851E+01  0.47322413357E+02  0.25741848906E+03  0.26174204430E+03  0.00000000000E+00 0. -1.
         -3    1    1    2    0  502  0.32419356691E+02  0.89713157173E+02 -0.40193581705E+02  0.10351323233E+03  0.00000000000E+00 0.  1.
<scales pt_clust_5="13000.00000" pt_clust_6="13000.00000" pt_clust_7="13000.00000" pt_clust_8="13000.00000" pt_clust_9="47.37741" pt_clust_10="97.05849"></scales>
<clustering>
<clus scale="   47.377">  1  9  2 -1</clus>
<clus scale="   88.325">  7  8 -1 -1</clus>
<clus scale="   91.419">  5  6 -1 -1</clus>
<clus scale="   97.058">  2 10  1 -1</clus>
<clus scale="  101.702">  2  7  1 -1</clus>
<clus scale="   97.058">  2  5  1 -1</clus>
</clustering>
</event>
<event>
10    2  0.3544405E-006  0.2824152E+03  0.7546771E-02  0.1094443E+00
         21   -1    0    0  501  502  0.00000000000E+00  0.00000000000E+00  0.52214450080E+03  0.52214450080E+03  0.00000000000E+00 0. -1.
          1   -1    0    0  503    0 -0.00000000000E+00 -0.00000000000E+00 -0.42437499131E+03  0.42437499131E+03  0.00000000000E+00 0. -1.
         23    2    1    2    0    0  0.75590741757E+01  0.27936492435E+03 -0.14756392054E+03  0.32922172368E+03  0.92249293429E+02 0.  0.
         23    2    1    2    0    0 -0.55155578645E+01 -0.25038984475E+03  0.62952106984E+02  0.27371787134E+03  0.90735933247E+02 0.  0.
        -11    1    4    4    0    0 -0.42156731051E+02 -0.17913098309E+03  0.27384321629E+02  0.18605106866E+03  0.00000000000E+00 0.  1.
         11    1    4    4    0    0  0.36641173186E+02 -0.71258861658E+02  0.35567785354E+02  0.87666802681E+02  0.00000000000E+00 0. -1.
        -11    1    3    3    0    0  0.24016692571E+02  0.65460787574E+02 -0.75818713793E+02  0.10300676479E+03  0.00000000000E+00 0.  1.
         11    1    3    3    0    0 -0.16457618396E+02  0.21390413678E+03 -0.71745206749E+02  0.22621495889E+03  0.00000000000E+00 0. -1.
         21    1    1    2  503  502 -0.26369396060E+02 -0.72001646818E+01 -0.77229501714E+02  0.81924253765E+02  0.00000000000E+00 0.  1.
          1    1    1    2  501    0  0.24325879748E+02 -0.21774914919E+02  0.25961082477E+03  0.26165564332E+03  0.00000000000E+00 0. -1.
<scales pt_clust_5="13000.00000" pt_clust_6="13000.00000" pt_clust_7="13000.00000" pt_clust_8="13000.00000" pt_clust_9="27.33473" pt_clust_10="32.60410"></scales>
<clustering>
<clus scale="   27.335">  2  9  1 -1</clus>
<clus scale="   32.604">  1 10  2 -1</clus>
<clus scale="   90.736">  5  6 -1 -1</clus>
<clus scale="   92.249">  7  8 -1 -1</clus>
<clus scale="  281.924">  1  5  2 -1</clus>
<clus scale="   32.604">  1  5  2 -1</clus>
</clustering>
</event>
<event>
10    2  0.3544405E-006  0.2508082E+03  0.7546771E-02  0.1126678E+00
         -1   -1    0    0    0  501 -0.00000000000E+00  0.00000000000E+00  0.13145678932E+03  0.13145678932E+03  0.00000000000E+00 0.  1.
         21   -1    0    0  503  502  0.00000000000E+00 -0.00000000000E+00 -0.11752561715E+04  0.11752561715E+04  0.00000000000E+00 0.  1.
         23    2    1    2    0    0 -0.78961842586E+02  0.12658834791E+03 -0.40898554081E+03  0.44553418794E+03  0.94720418172E+02 0.  0.
         23    2    1    2    0    0  0.15691513559E+03 -0.29681578864E+03 -0.39844725280E+03  0.53027409235E+03  0.98531353324E+02 0.  0.
        -11    1    4    4    0    0  0.16375360957E+03 -0.26803742324E+03 -0.38731143424E+03  0.49866767691E+03  0.00000000000E+00 0.  1.
         11    1    4    4    0    0 -0.68384739812E+01 -0.28778365403E+02 -0.11135818558E+02  0.31606415434E+02  0.00000000000E+00 0. -1.
        -13    1    3    3    0    0 -0.98586720451E+02  0.84826971638E+02 -0.28621479735E+03  0.31437854060E+03  0.00000000000E+00 0. -1.
         13    1    3    3    0    0  0.19624877865E+02  0.41761376271E+02 -0.12277074346E+03  0.13115564734E+03  0.00000000000E+00 0.  1.
         21    1    1    2  503  501  0.19812452099E+02  0.16167265084E+02  0.72071378393E+01  0.26567961049E+02  0.00000000000E+00 0. -1.
         -1    1    1    2    0  502 -0.97765745101E+02  0.15406017565E+03 -0.24357372645E+03  0.30433671953E+03  0.00000000000E+00 0.  1.
<scales pt_clust_5="13000.00000" pt_clust_6="13000.00000" pt_clust_7="13000.00000" pt_clust_8="13000.00000" pt_clust_9="25.57174" pt_clust_10="230.64324"></scales>
<clustering>
<clus scale="   25.572">  1  9  2 -1</clus>
<clus scale="   94.720">  7  8 -1 -1</clus>
<clus scale="   98.531">  5  6 -1 -1</clus>
<clus scale="  177.206">  1  7  2 -1</clus>
<clus scale="  230.643">  2 10  1 -1</clus>
<clus scale="  230.643">  2  5  1 -1</clus>
</clustering>
</event>
<event>
10    2  0.3544405E-006  0.9484847E+02  0.7546771E-02  0.1293800E+00
         21   -1    0    0  501  502  0.00000000000E+00  0.00000000000E+00  0.12714436439E+03  0.12714436439E+03  0.00000000000E+00 0. -1.
          1   -1    0    0  503    0 -0.00000000000E+00 -0.00000000000E+00 -0.71166819610E+03  0.71166819610E+03  0.00000000000E+00 0. -1.
         23    2    1    2    0    0  0.42810786527E+02 -0.21704806331E+02 -0.46747518924E+03  0.47901403394E+03  0.92830652789E+02 0.  0.
         23    2    1    2    0    0 -0.36302299817E+02  0.15928764472E+02  0.12639998597E+02  0.98054067791E+02  0.88787657567E+02 0.  0.
        -13    1    4    4    0    0  0.26166439453E+02 -0.12084038893E+01 -0.11918305436E+02  0.28778269546E+02  0.00000000000E+00 0.  1.
         13    1    4    4    0    0 -0.62468739270E+02  0.17137168361E+02  0.24558304033E+02  0.69275798245E+02  0.00000000000E+00 0. -1.
        -13    1    3    3    0    0  0.68384467945E+02 -0.33630652660E+02 -0.34936660908E+03  0.35758143659E+03  0.00000000000E+00 0.  1.
         13    1    3    3    0    0 -0.25573681418E+02  0.11925846329E+02 -0.11810858016E+03  0.12143259735E+03  0.00000000000E+00 0. -1.
         21    1    1    2  503  502 -0.46602533685E+02  0.53683838942E+02 -0.17212162571E+03  0.18622460832E+03  0.00000000000E+00 0. -1.
          1    1    1    2  501    0  0.40094046975E+02 -0.47907797083E+02  0.42432984638E+02  0.75519850433E+02  0.00000000000E+00 0. -1.
<scales pt_clust_5="13000.00000" pt_clust_6="13000.00000" pt_clust_7="13000.00000" pt_clust_8="13000.00000" pt_clust_9="64.62866" pt_clust_10="62.47151"></scales>
<clustering>
<clus scale="   62.472">  1 10  2 -1</clus>
<clus scale="   64.629">  2  9  1 -1</clus>
<clus scale="   88.788">  5  6 -1 -1</clus>
<clus scale="   90.895">  1  5  2 -1</clus>
<clus scale="   92.831">  7  8 -1 -1</clus>
<clus scale="   62.472">  1  5  2 -1</clus>
</clustering>
</event>
<event>
10    2  0.3544405E-006  0.9654806E+02  0.7546771E-02  0.1289273E+00
          1   -1    0    0  503    0 -0.00000000000E+00  0.00000000000E+00  0.40948200799E+03  0.40948200799E+03  0.00000000000E+00 0. -1.
         21   -1    0    0  501  502  0.00000000000E+00 -0.00000000000E+00 -0.10802815255E+03  0.10802815255E+03  0.00000000000E+00 0.  1.
         23    2    1    2    0    0  0.17655458235E+02  0.12958819330E+02  0.22975158663E+03  0.24860342930E+03  0.92402528622E+02 0.  0.
         23    2    1    2    0    0 -0.59983807765E+02  0.12655910485E+02  0.55526433098E+02  0.12187655121E+03  0.89512455551E+02 0.  0.
        -13    1    3    3    0    0 -0.26785464621E+02 -0.24007382863E+02  0.10785943771E+03  0.11369904947E+03  0.00000000000E+00 0.  1.
         13    1    3    3    0    0  0.44440922857E+02  0.36966202193E+02  0.12189214892E+03  0.13490437983E+03  0.00000000000E+00 0. -1.
        -13    1    4    4    0    0 -0.27894706154E+01 -0.31185447276E+02  0.34968603443E+02  0.46937367788E+02  0.00000000000E+00 0. -1.
         13    1    4    4    0    0 -0.57194337149E+02  0.43841357761E+02  0.20557829655E+02  0.74939183425E+02  0.00000000000E+00 0.  1.
         21    1    1    2  503  502  0.63830262472E+02 -0.23660202590E+02  0.64702226590E+02  0.93917440976E+02  0.00000000000E+00 0.  1.
          1    1    1    2  501    0 -0.21501912942E+02 -0.19545272250E+01 -0.48526390887E+02  0.53112739049E+02  0.00000000000E+00 0. -1.
<scales pt_clust_5="13000.00000" pt_clust_6="13000.00000" pt_clust_7="13000.00000" pt_clust_8="13000.00000" pt_clust_9="63.14446" pt_clust_10="21.59056"></scales>
<clustering>
<clus scale="   21.591">  2 10  1 -1</clus>
<clus scale="   63.144">  2  9  1 -1</clus>
<clus scale="   89.512">  7  8 -1 -1</clus>
<clus scale="   92.403">  5  6 -1 -1</clus>
<clus scale="   93.786">  2  7  1 -1</clus>
<clus scale="   21.591">  2  5  1 -1</clus>
</clustering>
</event>
<event>
10    2  0.3544405E-006  0.1096112E+03  0.7546771E-02  0.1263031E+00
         21   -1    0    0  501  502  0.00000000000E+00  0.00000000000E+00  0.31946056412E+03  0.31946056412E+03  0.00000000000E+00 0. -1.
          1   -1    0    0  503    0 -0.00000000000E+00 -0.00000000000E+00 -0.15075694425E+03  0.15075694425E+03  0.00000000000E+00 0. -1.
         23    2    1    2    0    0  0.91451620776E+02  0.10697753007E+02 -0.50995913521E+02  0.13629666472E+03  0.86593052581E+02 0.  0.
         23    2    1    2    0    0 -0.35305688141E+02 -0.19476489076E+02  0.47771818906E+02  0.11044307150E+03  0.91047790305E+02 0.  0.
        -11    1    3    3    0    0  0.41249856436E+02  0.24522059891E+02 -0.66463649199E+02  0.81977428248E+02  0.00000000000E+00 0. -1.
         11    1    3    3    0    0  0.50201764339E+02 -0.13824306884E+02  0.15467735678E+02  0.54319236469E+02  0.00000000000E+00 0.  1.
        -11    1    4    4    0    0 -0.60331393237E+02  0.25977946061E+00  0.50190809172E+02  0.78479690498E+02  0.00000000000E+00 0. -1.
         11    1    4    4    0    0  0.25025705096E+02 -0.19736268536E+02 -0.24189902657E+01  0.31963381004E+02  0.00000000000E+00 0.  1.
         21    1    1    2  503  502 -0.37377222955E+02  0.20104208850E+02 -0.71709925103E+01  0.43042527144E+02  0.00000000000E+00 0. -1.
          1    1    1    2  501    0 -0.18768709679E+02 -0.11325472781E+02  0.17909870699E+03  0.18043524501E+03  0.00000000000E+00 0. -1.
<scales pt_clust_5="13000.00000" pt_clust_6="13000.00000" pt_clust_7="13000.00000" pt_clust_8="13000.00000" pt_clust_9="43.94123" pt_clust_10="21.92101"></scales>
<clustering>
<clus scale="   21.921">  1 10  2 -1</clus>
<clus scale="   43.941">  2  9  1 -1</clus>
<clus scale="   86.593">  5  6 -1 -1</clus>
<clus scale="   91.048">  7  8 -1 -1</clus>
<clus scale="  105.940">  2  5  1 -1</clus>
<clus scale="   21.921">  1  5  2 -1</clus>
</clustering>
</event>
<event>
10    2  0.3544405E-006  0.1028340E+03  0.7546771E-02  0.1274641E+00
          1   -1    0    0  503    0 -0.00000000000E+00  0.00000000000E+00  0.61873966770E+02  0.61873966770E+02  0.00000000000E+00 0. -1.
         21   -1    0    0  501  502  0.00000000000E+00 -0.00000000000E+00 -0.56492933210E+03  0.56492933210E+03  0.00000000000E+00 0. -1.
         23    2    1    2    0    0 -0.26271984694E+02 -0.32448630670E+01 -0.64370542081E+02  0.11412282263E+03  0.90441725107E+02 0.  0.
         23    2    1    2    0    0  0.71991293900E+02 -0.12626129145E+02 -0.10567215654E+03  0.15687558605E+03  0.90006551412E+02 0.  0.
        -11    1    3    3    0    0  0.31610871448E+02 -0.78597951063E+01 -0.87796555024E+01  0.33735825521E+02  0.00000000000E+00 0. -1.
         11    1    3    3    0    0 -0.57882856143E+02  0.46149320393E+01 -0.55590886579E+02  0.80386997105E+02  0.00000000000E+00 0.  1.
        -13    1    4    4    0    0  0.70528378099E+02 -0.41119060854E+02 -0.97563859944E+02  0.12721531374E+03  0.00000000000E+00 0. -1.
         13    1    4    4    0    0  0.14629158013E+01  0.28492931709E+02 -0.81082965978E+01  0.29660272314E+02  0.00000000000E+00 0.  1.
         21    1    1    2  503  502 -0.37789769236E+02 -0.35565023936E+02 -0.66985771317E+02  0.84735064438E+02  0.00000000000E+00 0. -1.
          1    1    1    2  501    0 -0.79295399698E+01  0.51436016148E+02 -0.26602689539E+03  0.27106982575E+03  0.00000000000E+00 0. -1.
<scales pt_clust_5="13000.00000" pt_clust_6="13000.00000" pt_clust_7="13000.00000" pt_clust_8="13000.00000" pt_clust_9="51.89352" pt_clust_10="50.68617"></scales>
<clustering>
<clus scale="   51.894">  1  9  2 -1</clus>
<clus scale="   50.686">  2 10  1 -1</clus>
<clus scale="   90.007">  7  8 -1 -1</clus>
<clus scale="   90.442">  5  6 -1 -1</clus>
<clus scale="  102.451">  2  7  1 -1</clus>
<clus scale="   50.686">  2  5  1 -1</clus>
</clustering>
</event>
<event>
10    2  0.3544405E-006  0.1027025E+03  0.7546771E-02  0.1275520E+00
         21   -1    0    0  501  502  0.00000000000E+00  0.00000000000E+00  0.18681051690E+03  0.18681051690E+03  0.00000000000E+00 0.  1.
          2   -1    0    0  503    0 -0.00000000000E+00 -0.00000000000E+00 -0.30134890182E+03  0.30134890182E+03  0.00000000000E+00 0. -1.
         23    2    1    2    0    0  0.69533775409E+02 -0.19430913638E+02 -0.68112219904E+02  0.13626076964E+03  0.93355323980E+02 0.  0.
         23    2    1    2    0    0 -0.18834352869E+02 -0.13727877356E+02 -0.44800804301E+02  0.10461420263E+03  0.91617857765E+02 0.  0.
        -13    1    4    4    0    0 -0.17491541916E+01  0.33237589027E+02  0.54679530451E+01  0.33729740219E+02  0.00000000000E+00 0. -1.
         13    1    4    4    0    0 -0.17085198677E+02 -0.46965466383E+02 -0.50268757346E+02  0.70884462413E+02  0.00000000000E+00 0.  1.
        -13    1    3    3    0    0  0.20437227318E+02 -0.44190759136E+02  0.45666119157E-01  0.48687837689E+02  0.00000000000E+00 0.  1.
         13    1    3    3    0    0  0.49096548091E+02  0.24759845498E+02 -0.68157886023E+02  0.87572931952E+02  0.00000000000E+00 0. -1.
         21    1    1    2  503  502 -0.23517455417E+02  0.38897769492E+01 -0.12000389250E+03  0.12234841760E+03  0.00000000000E+00 0. -1.
          2    1    1    2  501    0 -0.27181967123E+02  0.29269014045E+02  0.11837853177E+03  0.12493602885E+03  0.00000000000E+00 0. -1.
<scales pt_clust_5="13000.00000" pt_clust_6="13000.00000" pt_clust_7="13000.00000" pt_clust_8="13000.00000" pt_clust_9="23.83697" pt_clust_10="40.28812"></scales>
<clustering>
<clus scale="   23.837">  2  9  1 -1</clus>
<clus scale="   40.288">  1 10  2 -1</clus>
<clus scale="   91.618">  5  6 -1 -1</clus>
<clus scale="   93.355">  7  8 -1 -1</clus>
<clus scale="  101.126">  1  5  2 -1</clus>
<clus scale="   40.288">  1  5  2 -1</clus>
</clustering>
</event>
<event>
10    2  0.3544405E-006  0.1406111E+03  0.7546771E-02  0.1212619E+00
          2   -1    0    0  503    0 -0.00000000000E+00  0.00000000000E+00  0.12700701309E+03  0.12700701309E+03  0.00000000000E+00 0. -1.
         21   -1    0    0  501  502  0.00000000000E+00 -0.00000000000E+00 -0.30166012164E+03  0.30166012164E+03  0.00000000000E+00 0. -1.
         23    2    1    2    0    0  0.96677353066E+02  0.86073154943E+01 -0.63037525086E+02  0.14747153964E+03  0.91397641971E+02 0.  0.
         23    2    1    2    0    0 -0.10936310410E+03  0.59977349532E+02 -0.39937729874E+02  0.15999556224E+03  0.91902049357E+02 0.  0.
        -11    1    4    4    0    0 -0.84605617007E+02  0.43406903934E+02  0.16182728900E+02  0.96458024306E+02  0.00000000000E+00 0. -1.
         11    1    4    4    0    0 -0.24757487089E+02  0.16570445598E+02 -0.56120458774E+02  0.63537537939E+02  0.00000000000E+00 0.  1.
        -11    1    3    3    0    0  0.15577543287E+02  0.34852796922E+02  0.48738693272E+01  0.38485476616E+02  0.00000000000E+00 0.  1.
         11    1    3    3    0    0  0.81099809779E+02 -0.26245481428E+02 -0.67911394413E+02  0.10898606302E+03  0.00000000000E+00 0. -1.
         21    1    1    2  503  502 -0.23195428974E+02 -0.12058534427E+02 -0.48229918374E+01  0.26583781298E+02  0.00000000000E+00 0.  1.
          2    1    1    2  501    0  0.35881180004E+02 -0.56526130599E+02 -0.66854861745E+02  0.94616251553E+02  0.00000000000E+00 0. -1.
<scales pt_clust_5="13000.00000" pt_clust_6="13000.00000" pt_clust_7="13000.00000" pt_clust_8="13000.00000" pt_clust_9="26.14261" pt_clust_10="66.75635"></scales>
<clustering>
<clus scale="   26.143">  1  9  2 -1</clus>
<clus scale="   66.756">  2 10  1 -1</clus>
<clus scale="   91.398">  7  8 -1 -1</clus>
<clus scale="   91.902">  5  6 -1 -1</clus>
<clus scale="  140.282">  1  7  2 -1</clus>
<clus scale="   66.756">  2  5  1 -1</clus>
</clustering>
</event>
<event>
10    2  0.3544405E-006  0.1031452E+03  0.7546771E-02  0.1275068E+00
          1   -1    0    0  503    0 -0.00000000000E+00  0.00000000000E+00  0.65643752079E+03  0.65643752079E+03  0.00000000000E+00 0. -1.
         21   -1    0    0  501  502  0.00000000000E+00 -0.00000000000E+00 -0.32606424591E+03  0.32606424591E+03  0.00000000000E+00 0. -1.
         23    2    1    2    0    0  0.78390548522E+02 -0.41652128867E+01  0.54697154132E+03  0.56050781518E+03  0.93961251409E+02 0.  0.
         23    2    1    2    0    0 -0.39760823306E+01  0.16843368557E+02 -0.13830665950E+03  0.16660823732E+03  0.91269186391E+02 0.  0.
        -11    1    4    4    0    0  0.23543847016E+02  0.25857938766E+02 -0.11919937246E+02  0.36946320974E+02  0.00000000000E+00 0.  1.
         11    1    4    4    0    0 -0.27519929347E+02 -0.90145702085E+01 -0.12638672226E+03  0.12966191634E+03  0.00000000000E+00 0. -1.
        -13    1    3    3    0    0  0.49417255622E+02 -0.45209293040E+02  0.38948313314E+03  0.39520002066E+03  0.00000000000E+00 0. -1.
         13    1    3    3    0    0  0.28973292900E+02  0.41044080153E+02  0.15748840819E+03  0.16530779452E+03  0.00000000000E+00 0.  1.
         21    1    1    2  503  502 -0.53553561849E+02 -0.34046278848E+02  0.75553879190E+02  0.98668747589E+02  0.00000000000E+00 0.  1.
          1    1    1    2  501    0 -0.20860904342E+02  0.21368123177E+02 -0.15384548613E+03  0.15671696660E+03  0.00000000000E+00 0. -1.
<scales pt_clust_5="13000.00000" pt_clust_6="13000.00000" pt_clust_7="13000.00000" pt_clust_8="13000.00000" pt_clust_9="63.90585" pt_clust_10="29.86259"></scales>
<clustering>
<clus scale="   29.863">  2 10  1 -1</clus>
<clus scale="   63.906">  1  9  2 -1</clus>
<clus scale="   91.269">  5  6 -1 -1</clus>
<clus scale="   93.961">  7  8 -1 -1</clus>
<clus scale="  100.699">  2  5  1 -1</clus>
<clus scale="   29.863">  2  5  1 -1</clus>
</clustering>
</event>
<event>
10    2  0.3544405E-006  0.9325512E+02  0.7546771E-02  0.1298391E+00
          2   -1    0    0  503    0 -0.00000000000E+00  0.00000000000E+00  0.29949449190E+03  0.29949449190E+03  0.00000000000E+00 0. -1.
         21   -1    0    0  501  502  0.00000000000E+00 -0.00000000000E+00 -0.30377369718E+03  0.30377369718E+03  0.00000000000E+00 0. -1.
         23    2    1    2    0    0  0.15679392356E+02 -0.23655305705E+02  0.21943404332E+02  0.92653624508E+02  0.85426953054E+02 0.  0.
         23    2    1    2    0    0  0.25182803386E+02 -0.64428580388E+02 -0.53821555732E+02  0.12634346518E+03  0.90998328419E+02 0.  0.
        -11    1    3    3    0    0  0.44363121837E+02  0.10325713726E+02  0.11079548962E+02  0.46877109000E+02  0.00000000000E+00 0.  1.
         11    1    3    3    0    0 -0.28683729481E+02 -0.33981019431E+02  0.10863855370E+02  0.45776515508E+02  0.00000000000E+00 0. -1.
        -11    1    4    4    0    0  0.28088652536E+02 -0.30930113600E+02 -0.75533194931E+02  0.86318641469E+02  0.00000000000E+00 0.  1.
         11    1    4    4    0    0 -0.29058491494E+01 -0.33498466788E+02  0.21711639199E+02  0.40024823711E+02  0.00000000000E+00 0. -1.
         21    1    1    2  503  502 -0.27146928331E+02  0.50097117675E+02  0.19960951810E+03  0.20758284282E+03  0.00000000000E+00 0. -1.
          2    1    1    2  501    0 -0.13715267410E+02  0.37986768419E+02 -0.17201057199E+03  0.17668825657E+03  0.00000000000E+00 0. -1.
<scales pt_clust_5="13000.00000" pt_clust_6="13000.00000" pt_clust_7="13000.00000" pt_clust_8="13000.00000" pt_clust_9="58.20997" pt_clust_10="40.38692"></scales>
<clustering>
<clus scale="   40.387">  2 10  1 -1</clus>
<clus scale="   58.210">  1  9  2 -1</clus>
<clus scale="   85.427">  5  6 -1 -1</clus>
<clus scale="   87.827">  1  5  2 -1</clus>
<clus scale="   90.998">  7  8 -1 -1</clus>
<clus scale="   40.387">  2  5  1 -1</clus>
</clustering>
</event>
<event>
10    2  0.3544405E-006  0.3894528E+03  0.7546771E-02  0.1080248E+00
         21   -1    0    0  503  502  0.00000000000E+00  0.00000000000E+00  0.95531707658E+03  0.95531707658E+03  0.00000000000E+00 0.  1.
         -3   -1    0    0    0  501 -0.00000000000E+00 -0.00000000000E+00 -0.26949557649E+03  0.26949557649E+03  0.00000000000E+00 0.  1.
         23    2    1    2    0    0  0.12539972178E+03  0.12935974695E+02  0.24516271305E+03  0.29178038458E+03  0.95596063173E+02 0.  0.
         23    2    1    2    0    0 -0.41603649443E+03  0.13098072049E+03  0.20051771628E+03  0.48877870463E+03  0.91950822317E+02 0.  0.
        -11    1    4    4    0    0 -0.36262816151E+03  0.11669653670E+03  0.20625627310E+03  0.43319616272E+03  0.00000000000E+00 0.  1.
         11    1    4    4    0    0 -0.53408332916E+02  0.14284183787E+02 -0.57385568214E+01  0.55582541915E+02  0.00000000000E+00 0. -1.
        -11    1    3    3    0    0  0.76823542632E+01 -0.23355270316E+02  0.91991181487E+02  0.95220085538E+02  0.00000000000E+00 0.  1.
         11    1    3    3    0    0  0.11771736752E+03  0.36291245011E+02  0.15317153156E+03  0.19656029905E+03  0.00000000000E+00 0. -1.
         21    1    1    2  503  501 -0.20609044920E+02  0.33242927843E+01 -0.51469622577E+01  0.21500578493E+02  0.00000000000E+00 0. -1.
         -3    1    1    2    0  502  0.31124581757E+03 -0.14724098797E+03  0.24528803302E+03  0.42275298536E+03  0.00000000000E+00 0.  1.
<scales pt_clust_5="13000.00000" pt_clust_6="13000.00000" pt_clust_7="13000.00000" pt_clust_8="13000.00000" pt_clust_9="20.87543" pt_clust_10="378.44221"></scales>
<clustering>
<clus scale="   20.875">  2  9  1 -1</clus>
<clus scale="   91.951">  5  6 -1 -1</clus>
<clus scale="   95.596">  7  8 -1 -1</clus>
<clus scale="  156.755">  2  7  1 -1</clus>
<clus scale="  378.442">  1 10  2 -1</clus>
<clus scale="  378.442">  1  5  2 -1</clus>
</clustering>
</event>
<event>
10    2  0.3544405E-006  0.1522468E+03  0.7546771E-02  0.1214531E+00
         21   -1    0    0  501  502  0.00000000000E+00  0.00000000000E+00  0.31746854325E+03  0.31746854325E+03  0.00000000000E+00 0.  1.
          2   -1    0    0  503    0 -0.00000000000E+00 -0.00000000000E+00 -0.47363380962E+03  0.47363380962E+03  0.00000000000E+00 0. -1.
         23    2    1    2    0    0  0.14053219906E+03 -0.26815526934E+02  0.30877856073E+02  0.17203079018E+03  0.90403425348E+02 0.  0.
         23    2    1    2    0    0  0.49251400059E+01  0.45338037256E+02 -0.46695240128E+02  0.11263581673E+03  0.91796444016E+02 0.  0.
        -11    1    4    4    0    0 -0.60920176547E+01  0.70696837851E+02 -0.18903947172E+02  0.73433744150E+02  0.00000000000E+00 0.  1.
         11    1    4    4    0    0  0.11017157661E+02 -0.25358800595E+02 -0.27791292956E+02  0.39202072582E+02  0.00000000000E+00 0. -1.
        -13    1    3    3    0    0  0.61479245081E+02  0.20061373882E+02 -0.19077855457E+02  0.67424927635E+02  0.00000000000E+00 0. -1.
         13    1    3    3    0    0  0.79052953981E+02 -0.46876900816E+02  0.49955711530E+02  0.10460586254E+03  0.00000000000E+00 0.  1.
         21    1    1    2  503  502 -0.11088629070E+03 -0.53241781204E+02 -0.30806182039E+03  0.33171153419E+03  0.00000000000E+00 0. -1.
          2    1    1    2  501    0 -0.34571048364E+02  0.34719270882E+02  0.16771393807E+03  0.17472421177E+03  0.00000000000E+00 0. -1.
<scales pt_clust_5="13000.00000" pt_clust_6="13000.00000" pt_clust_7="13000.00000" pt_clust_8="13000.00000" pt_clust_9="122.50022" pt_clust_10="48.99577"></scales>
<clustering>
<clus scale="   48.996">  1 10  2 -1</clus>
<clus scale="   90.403">  7  8 -1 -1</clus>
<clus scale="   91.796">  5  6 -1 -1</clus>
<clus scale="  106.119">  1  5  2 -1</clus>
<clus scale="  122.500">  2  9  1 -1</clus>
<clus scale="   48.996">  1  5  2 -1</clus>
</clustering>
</event>
<event>
10    2  0.3544405E-006  0.2348889E+03  0.7546771E-02  0.1123417E+00
         21   -1    0    0  501  502  0.00000000000E+00  0.00000000000E+00  0.12318378702E+03  0.12318378702E+03  0.00000000000E+00 0.  1.
          1   -1    0    0  503    0 -0.00000000000E+00 -0.00000000000E+00 -0.14012681993E+04  0.14012681993E+04  0.00000000000E+00 0. -1.
         23    2    1    2    0    0 -0.15763325523E+03 -0.13009892288E+02 -0.58963245541E+03  0.61725215222E+03  0.91193675738E+02 0.  0.
         23    2    1    2    0    0  0.22577104766E+03  0.13145260612E+03 -0.13767405865E+03  0.30830831361E+03  0.88586207713E+02 0.  0.
        -11    1    4    4    0    0  0.63082455586E+02  0.53644502440E+02 -0.88898276010E+02  0.12149087341E+03  0.00000000000E+00 0.  1.
         11    1    4    4    0    0  0.16268859207E+03  0.77808103685E+02 -0.48775782640E+02  0.18681744019E+03  0.00000000000E+00 0. -1.
        -13    1    3    3    0    0 -0.11963268807E+03  0.25784671858E+02 -0.47334815222E+03  0.48891236696E+03  0.00000000000E+00 0. -1.
         13    1    3    3    0    0 -0.38000567160E+02 -0.38794564145E+02 -0.11628430319E+03  0.12833978526E+03  0.00000000000E+00 0.  1.
         21    1    1    2  503  502 -0.51485378329E+02 -0.87687895744E+02 -0.55447589313E+03  0.56372282844E+03  0.00000000000E+00 0. -1.
          1    1    1    2  501    0 -0.16652414094E+02 -0.30754818093E+02  0.36979949570E+01  0.35168692011E+02  0.00000000000E+00 0. -1.
<scales pt_clust_5="13000.00000" pt_clust_6="13000.00000" pt_clust_7="13000.00000" pt_clust_8="13000.00000" pt_clust_9="103.24298" pt_clust_10="34.97373"></scales>
<clustering>
<clus scale="   34.974">  1 10  2 -1</clus>
<clus scale="   88.586">  5  6 -1 -1</clus>
<clus scale="   91.194">  7  8 -1 -1</clus>
<clus scale="  103.243">  2  9  1 -1</clus>
<clus scale="  233.889">  1  5  2 -1</clus>
<clus scale="   34.974">  1  5  2 -1</clus>
</clustering>
</event>
<event>
10    2  0.3544405E-006  0.1057584E+03  0.7546771E-02  0.1269271E+00
         21   -1    0    0  503  502  0.00000000000E+00  0.00000000000E+00  0.50867510498E+03  0.50867510498E+03  0.00000000000E+00 0. -1.
         -3   -1    0    0    0  501 -0.00000000000E+00 -0.00000000000E+00 -0.12357633139E+03  0.12357633139E+03  0.00000000000E+00 0.  1.
         23    2    1    2    0    0 -0.21454696427E+02 -0.51120600812E+02 -0.40365655937E+02  0.11495793135E+03  0.92262234828E+02 0.  0.
         23    2    1    2    0    0  0.63537552576E+02  0.57354515705E+02  0.22012854981E+03  0.25302620808E+03  0.90769612080E+02 0.  0.
        -11    1    3    3    0    0 -0.44538362345E+02 -0.49141097938E+02  0.23508421448E+01  0.66362939098E+02  0.00000000000E+00 0.  1.
         11    1    3    3    0    0  0.23083665918E+02 -0.19795028739E+01 -0.42716498082E+02  0.48594992255E+02  0.00000000000E+00 0. -1.
        -13    1    4    4    0    0  0.83345999946E+02  0.41611927524E+02  0.13357975196E+03  0.16285471548E+03  0.00000000000E+00 0. -1.
         13    1    4    4    0    0 -0.19808447370E+02  0.15742588181E+02  0.86548797851E+02  0.90171492609E+02  0.00000000000E+00 0.  1.
         21    1    1    2  503  501 -0.11285569146E+02  0.20818202118E+02 -0.22564618175E+02  0.32709686697E+02  0.00000000000E+00 0.  1.
         -3    1    1    2    0  502 -0.30797287003E+02 -0.27052117011E+02  0.22790049789E+03  0.23155761024E+03  0.00000000000E+00 0.  1.
<scales pt_clust_5="13000.00000" pt_clust_6="13000.00000" pt_clust_7="13000.00000" pt_clust_8="13000.00000" pt_clust_9="23.68041" pt_clust_10="40.89346"></scales>
<clustering>
<clus scale="   23.680">  2  9  1 -1</clus>
<clus scale="   40.893">  1 10  2 -1</clus>
<clus scale="   90.770">  7  8 -1 -1</clus>
<clus scale="   92.262">  5  6 -1 -1</clus>
<clus scale="  104.459">  1  7  2 -1</clus>
<clus scale="   40.893">  1  5  2 -1</clus>
</clustering>
</event>
<event>
10    2  0.3544405E-006  0.1556990E+03  0.7546771E-02  0.1193737E+00
         21   -1    0    0  503  502  0.00000000000E+00  0.00000000000E+00  0.15845909476E+03  0.15845909476E+03  0.00000000000E+00 0.  1.
         -3   -1    0    0    0  501 -0.00000000000E+00 -0.00000000000E+00 -0.86164201676E+03  0.86164201676E+03  0.00000000000E+00 0.  1.
         23    2    1    2    0    0 -0.57779954645E+01  0.14000874619E+03 -0.63689695640E+03  0.65847280094E+03  0.91174899310E+02 0.  0.
         23    2    1    2    0    0 -0.33541541974E+02 -0.17178451272E+03  0.10448728983E+02  0.19736737634E+03  0.90607678792E+02 0.  0.
        -13    1    3    3    0    0 -0.27559277903E+02  0.54328048905E+02 -0.12565289523E+03  0.13964132904E+03  0.00000000000E+00 0. -1.
         13    1    3    3    0    0  0.21781282438E+02  0.85680697288E+02 -0.51124406117E+03  0.51883147190E+03  0.00000000000E+00 0.  1.
        -13    1    4    4    0    0 -0.60313832564E+02 -0.73284617393E+02  0.82474260952E+01  0.95270213510E+02  0.00000000000E+00 0.  1.
         13    1    4    4    0    0  0.26772290590E+02 -0.98499895327E+02  0.22013028882E+01  0.10209716283E+03  0.00000000000E+00 0. -1.
         21    1    1    2  503  501  0.30786610836E+02 -0.25541782088E+02 -0.95345036878E+02  0.10339668320E+03  0.00000000000E+00 0.  1.
         -3    1    1    2    0  502  0.85329266023E+01  0.57317548614E+02  0.18610342295E+02  0.60864251050E+02  0.00000000000E+00 0.  1.
<scales pt_clust_5="13000.00000" pt_clust_6="13000.00000" pt_clust_7="13000.00000" pt_clust_8="13000.00000" pt_clust_9="40.00248" pt_clust_10="57.38250"></scales>
<clustering>
<clus scale="   40.002">  2  9  1 -1</clus>
<clus scale="   57.383">  1 10  2 -1</clus>
<clus scale="   90.608">  7  8 -1 -1</clus>
<clus scale="   91.175">  5  6 -1 -1</clus>
<clus scale="  155.368">  1  7  2 -1</clus>
<clus scale="   57.383">  1  5  2 -1</clus>
</clustering>
</event>
<event>
10    2  0.3544405E-006  0.1139370E+03  0.7546771E-02  0.1253601E+00
         21   -1    0    0  503  502  0.00000000000E+00  0.00000000000E+00  0.85608197267E+03  0.85608197267E+03  0.00000000000E+00 0.  1.
         -2   -1    0    0    0  501 -0.00000000000E+00 -0.00000000000E+00 -0.70938609085E+02  0.70938609085E+02  0.00000000000E+00 0.  1.
         23    2    1    2    0    0  0.65002593016E+02  0.45366839915E+01  0.16582378481E+03  0.19995734565E+03  0.90771657870E+02 0.  0.
         23    2    1    2    0    0 -0.10499793990E+03 -0.30630683647E+02  0.27695729954E+03  0.31117388086E+03  0.90338431443E+02 0.  0.
        -11    1    3    3    0    0 -0.21406328323E+02  0.96714957246E+00  0.15200908386E+02  0.26272302646E+02  0.00000000000E+00 0. -1.
         11    1    3    3    0    0  0.86408921339E+02  0.35695344190E+01  0.15062287642E+03  0.17368504301E+03  0.00000000000E+00 0.  1.
        -13    1    4    4    0    0 -0.58463520161E+02 -0.59868622688E+02  0.13359154765E+03  0.15763545532E+03  0.00000000000E+00 0.  1.
         13    1    4    4    0    0 -0.46534419738E+02  0.29237939041E+02  0.14336575189E+03  0.15353842554E+03  0.00000000000E+00 0. -1.
         21    1    1    2  503  501 -0.61013797556E+02  0.82891732563E+00  0.31985382699E+01  0.61103201579E+02  0.00000000000E+00 0. -1.
         -2    1    1    2    0  502  0.10100914444E+03  0.25265082330E+02  0.33916374097E+03  0.35478615367E+03  0.00000000000E+00 0.  1.
<scales pt_clust_5="13000.00000" pt_clust_6="13000.00000" pt_clust_7="13000.00000" pt_clust_8="13000.00000" pt_clust_9="61.01943" pt_clust_10="93.19175"></scales>
<clustering>
<clus scale="   61.019">  2  9  1 -1</clus>
<clus scale="   90.338">  7  8 -1 -1</clus>
<clus scale="   90.772">  5  6 -1 -1</clus>
<clus scale="   93.192">  1 10  2 -1</clus>
<clus scale="  113.592">  1  7  2 -1</clus>
<clus scale="   93.192">  1  5  2 -1</clus>
</clustering>
</event>
<event>
10    2  0.3544405E-006  0.1426300E+03  0.7546771E-02  0.1220925E+00
         21   -1    0    0  501  502  0.00000000000E+00  0.00000000000E+00  0.34892062745E+03  0.34892062745E+03  0.00000000000E+00 0. -1.
          1   -1    0    0  503    0 -0.00000000000E+00 -0.00000000000E+00 -0.96005345477E+03  0.96005345477E+03  0.00000000000E+00 0. -1.
         23    2    1    2    0    0 -0.13177134041E+02 -0.66297179019E+02 -0.18107173671E+03  0.21332802537E+03  0.90293520068E+02 0.  0.
         23    2    1    2    0    0  0.76678884486E+02  0.92847498941E+02 -0.34963733026E+03  0.38078192296E+03  0.90820156125E+02 0.  0.
        -11    1    3    3    0    0 -0.48793198916E+02 -0.57040374936E+02 -0.10814157753E+03  0.13163958912E+03  0.00000000000E+00 0.  1.
         11    1    3    3    0    0  0.35616064875E+02 -0.92568040827E+01 -0.72930159178E+02  0.81688436249E+02  0.00000000000E+00 0. -1.
        -11    1    4    4    0    0 -0.18369934349E+02  0.16018562799E+02 -0.98696038497E+02  0.10166098985E+03  0.00000000000E+00 0.  1.
         11    1    4    4    0    0  0.95048818836E+02  0.76828936142E+02 -0.25094129177E+03  0.27912093312E+03  0.00000000000E+00 0. -1.
         21    1    1    2  503  502  0.38968847508E+02 -0.12734817335E+03 -0.36909520413E+03  0.39238679647E+03  0.00000000000E+00 0. -1.
          1    1    1    2  501    0 -0.10247059795E+03  0.10079785343E+03  0.28867144377E+03  0.32247733742E+03  0.00000000000E+00 0. -1.
<scales pt_clust_5="13000.00000" pt_clust_6="13000.00000" pt_clust_7="13000.00000" pt_clust_8="13000.00000" pt_clust_9="142.62997" pt_clust_10="13000.00000"></scales>
<clustering>
<clus scale="   90.294">  5  6 -1 -1</clus>
<clus scale="   90.820">  7  8 -1 -1</clus>
<clus scale="  112.791">  2  5  1 -1</clus>
<clus scale="  130.133">  2  7  1 -1</clus>
<clus scale="  142.630">  2  9  1 -1</clus>
<clus scale="  142.630">  1  5  2 -1</clus>
</clustering>
</event>
<event>
10    2  0.3544405E-006  0.2319606E+03  0.7546771E-02  0.1125490E+00
         21   -1    0    0  501  502  0.00000000000E+00  0.00000000000E+00  0.29328663930E+03  0.29328663930E+03  0.00000000000E+00 0.  1.
          1   -1    0    0  503    0 -0.00000000000E+00 -0.00000000000E+00 -0.76936995612E+03  0.76936995612E+03  0.00000000000E+00 0. -1.
         23    2    1    2    0    0 -0.17934209611E+03 -0.10100348662E+03 -0.38229542165E+03  0.44371294062E+03  0.91466346356E+02 0.  0.
         23    2    1    2    0    0  0.33944868606E+03  0.97378818425E+02  0.41641906003E+02  0.36796543000E+03  0.94638599896E+02 0.  0.
        -13    1    4    4    0    0  0.17809285811E+03  0.47747225228E+02  0.69149374316E+02  0.19692257259E+03  0.00000000000E+00 0.  1.
         13    1    4    4    0    0  0.16135582795E+03  0.49631593197E+02 -0.27507468313E+02  0.17104285741E+03  0.00000000000E+00 0. -1.
        -13    1    3    3    0    0 -0.43625142749E+01 -0.36200923945E+02 -0.42018524602E+02  0.55633576507E+02  0.00000000000E+00 0.  1.
         13    1    3    3    0    0 -0.17497958183E+03 -0.64802562676E+02 -0.34027689704E+03  0.38807936411E+03  0.00000000000E+00 0. -1.
         21    1    1    2  503  502  0.22494029605E+02  0.17002184653E+02 -0.17030683826E+02  0.32940853699E+02  0.00000000000E+00 0.  1.
          1    1    1    2  501    0 -0.18260061956E+03 -0.13377516457E+02 -0.11839911735E+03  0.21803737111E+03  0.00000000000E+00 0. -1.
<scales pt_clust_5="13000.00000" pt_clust_6="13000.00000" pt_clust_7="13000.00000" pt_clust_8="13000.00000" pt_clust_9="28.19673" pt_clust_10="177.77335"></scales>
<clustering>
<clus scale="   28.197">  2  9  1 -1</clus>
<clus scale="   91.466">  7  8 -1 -1</clus>
<clus scale="   94.639">  5  6 -1 -1</clus>
<clus scale="  177.773">  1 10  2 -1</clus>
<clus scale="  230.685">  2  7  1 -1</clus>
<clus scale="  177.773">  1  5  2 -1</clus>
</clustering>
</event>
<event>
10    2  0.3544405E-006  0.1675367E+03  0.7546771E-02  0.1180744E+00
         -2   -1    0    0    0  501 -0.00000000000E+00  0.00000000000E+00  0.46881342422E+02  0.46881342422E+02  0.00000000000E+00 0.  1.
         21   -1    0    0  503  502  0.00000000000E+00 -0.00000000000E+00 -0.14329160182E+04  0.14329160182E+04  0.00000000000E+00 0. -1.
         23    2    1    2    0    0  0.63635925646E+02  0.17794235112E+03 -0.36302075542E+03  0.41957410886E+03  0.92441076386E+02 0.  0.
         23    2    1    2    0    0 -0.65997118602E+02 -0.67565207849E+02 -0.40084857338E+03  0.42162387432E+03  0.90368333176E+02 0.  0.
        -11    1    4    4    0    0  0.21118976574E+02 -0.61792561560E+01 -0.10186732427E+03  0.10421682269E+03  0.00000000000E+00 0.  1.
         11    1    4    4    0    0 -0.87116095176E+02 -0.61385951693E+02 -0.29898124911E+03  0.31740705163E+03  0.00000000000E+00 0. -1.
        -13    1    3    3    0    0  0.48743997065E+02  0.15711911813E+03 -0.22233300067E+03  0.27657613368E+03  0.00000000000E+00 0.  1.
         13    1    3    3    0    0  0.14891928581E+02  0.20823232983E+02 -0.14068775475E+03  0.14299797518E+03  0.00000000000E+00 0. -1.
         21    1    1    2  503  501  0.16037154302E+02 -0.13893120083E+02 -0.21965077200E+02  0.30539707270E+02  0.00000000000E+00 0. -1.
         -2    1    1    2    0  502 -0.13675961347E+02 -0.96484023185E+02 -0.60020026978E+03  0.60805967017E+03  0.00000000000E+00 0.  1.
<scales pt_clust_5="13000.00000" pt_clust_6="13000.00000" pt_clust_7="13000.00000" pt_clust_8="13000.00000" pt_clust_9="21.21813" pt_clust_10="98.52361"></scales>
<clustering>
<clus scale="   21.218">  1  9  2 -1</clus>
<clus scale="   90.368">  5  6 -1 -1</clus>
<clus scale="   92.441">  7  8 -1 -1</clus>
<clus scale="   98.524">  2 10  1 -1</clus>
<clus scale="  166.402">  2  5  1 -1</clus>
<clus scale="   98.524">  2  5  1 -1</clus>
</clustering>
</event>
<event>
10    2  0.3544405E-006  0.1325467E+03  0.7546771E-02  0.1249152E+00
         21   -1    0    0  501  502  0.00000000000E+00  0.00000000000E+00  0.53684678843E+02  0.53684678843E+02  0.00000000000E+00 0. -1.
          2   -1    0    0  503    0 -0.00000000000E+00 -0.00000000000E+00 -0.53444631593E+03  0.53444631593E+03  0.00000000000E+00 0. -1.
         23    2    1    2    0    0 -0.28649992719E+02 -0.64175549486E+01 -0.21263780774E+03  0.22566789216E+03  0.69635861296E+02 0.  0.
         23    2    1    2    0    0  0.36319499483E+02  0.51747595236E+02 -0.13031881302E+03  0.19282598438E+03  0.12728687116E+03 0.  0.
        -13    1    4    4    0    0 -0.35038812641E+02 -0.16504064937E+02 -0.16377161424E+02  0.42051325389E+02  0.00000000000E+00 0.  1.
         13    1    4    4    0    0  0.71358312124E+02  0.68251660173E+02 -0.11394165159E+03  0.15077465899E+03  0.00000000000E+00 0. -1.
        -13    1    3    3    0    0 -0.10625227297E+02 -0.37024945661E+02 -0.87863198722E+02  0.95935831398E+02  0.00000000000E+00 0.  1.
         13    1    3    3    0    0 -0.18024765421E+02  0.30607390713E+02 -0.12477460902E+03  0.12973206077E+03  0.00000000000E+00 0. -1.
         21    1    1    2  503  502 -0.17673092890E+02  0.19264221715E+02 -0.73221239894E+02  0.77748301732E+02  0.00000000000E+00 0. -1.
          2    1    1    2  501    0  0.10003586125E+02 -0.64594262003E+02 -0.64583776440E+02  0.91888816503E+02  0.00000000000E+00 0. -1.
<scales pt_clust_5="13000.00000" pt_clust_6="13000.00000" pt_clust_7="13000.00000" pt_clust_8="13000.00000" pt_clust_9="26.14285" pt_clust_10="61.70770"></scales>
<clustering>
<clus scale="   26.143">  2  9  1 -1</clus>
<clus scale="   61.708">  1 10  2 -1</clus>
<clus scale="   69.636">  7  8 -1 -1</clus>
<clus scale="   78.841">  2  7  1 -1</clus>
<clus scale="  127.287">  5  6 -1 -1</clus>
<clus scale="   61.708">  1  5  2 -1</clus>
</clustering>
</event>
<event>
10    2  0.3544405E-006  0.9229946E+02  0.7546771E-02  0.1299531E+00
         21   -1    0    0  501  502  0.00000000000E+00  0.00000000000E+00  0.62479772274E+02  0.62479772274E+02  0.00000000000E+00 0. -1.
          2   -1    0    0  503    0 -0.00000000000E+00 -0.00000000000E+00 -0.86526253685E+03  0.86526253685E+03  0.00000000000E+00 0. -1.
         23    2    1    2    0    0  0.11057211568E+02 -0.34150577133E+02 -0.39589419042E+03  0.40701655105E+03  0.87417040529E+02 0.  0.
         23    2    1    2    0    0  0.10011806249E+02 -0.25768763389E+01 -0.31728323154E+03  0.33025623898E+03  0.91069521889E+02 0.  0.
        -13    1    3    3    0    0 -0.37096219259E+02 -0.62067178894E+01 -0.19251505053E+03  0.19615477948E+03  0.00000000000E+00 0.  1.
         13    1    3    3    0    0  0.48153430827E+02 -0.27943859243E+02 -0.20337913989E+03  0.21086177158E+03  0.00000000000E+00 0. -1.
        -13    1    4    4    0    0 -0.25111117398E+02 -0.26990165503E+02 -0.68190654271E+02  0.77517756552E+02  0.00000000000E+00 0.  1.
         13    1    4    4    0    0  0.35122923646E+02  0.24413289164E+02 -0.24909257726E+03  0.25273848243E+03  0.00000000000E+00 0. -1.
         21    1    1    2  503  502  0.33365332017E+01  0.26558717559E+02 -0.13516715281E+03  0.13779207935E+03  0.00000000000E+00 0. -1.
          2    1    1    2  501    0 -0.24405551018E+02  0.10168735912E+02  0.45561810187E+02  0.52677439745E+02  0.00000000000E+00 0. -1.
<scales pt_clust_5="13000.00000" pt_clust_6="13000.00000" pt_clust_7="13000.00000" pt_clust_8="13000.00000" pt_clust_9="27.57366" pt_clust_10="26.43925"></scales>
<clustering>
<clus scale="   26.439">  1 10  2 -1</clus>
<clus scale="   27.574">  2  9  1 -1</clus>
<clus scale="   87.417">  5  6 -1 -1</clus>
<clus scale="   88.698">  2  5  1 -1</clus>
<clus scale="   91.070">  7  8 -1 -1</clus>
<clus scale="   26.439">  1  5  2 -1</clus>
</clustering>
</event>
<event>
10    2  0.3544405E-006  0.2771854E+03  0.7546771E-02  0.1097410E+00
         21   -1    0    0  501  502  0.00000000000E+00  0.00000000000E+00  0.28516764890E+03  0.28516764890E+03  0.00000000000E+00 0. -1.
          2   -1    0    0  503    0 -0.00000000000E+00 -0.00000000000E+00 -0.46964457088E+03  0.46964457088E+03  0.00000000000E+00 0. -1.
         23    2    1    2    0    0 -0.17220121154E+03 -0.18794405657E+03 -0.20032239625E+03  0.33627952914E+03  0.89323197537E+02 0.  0.
         23    2    1    2    0    0  0.17589458730E+03  0.19573119606E+03 -0.16497174652E+02  0.27963069975E+03  0.93121235596E+02 0.  0.
        -13    1    4    4    0    0  0.51433282814E+02  0.11794893839E+03  0.14922672184E+02  0.12953771958E+03  0.00000000000E+00 0. -1.
         13    1    4    4    0    0  0.12446130448E+03  0.77782257674E+02 -0.31419846836E+02  0.15009298017E+03  0.00000000000E+00 0.  1.
        -13    1    3    3    0    0 -0.85229447822E+02 -0.99521868406E+02 -0.47297422234E+02  0.13930436898E+03  0.00000000000E+00 0.  1.
         13    1    3    3    0    0 -0.86971763720E+02 -0.88422188164E+02 -0.15302497402E+03  0.19697516016E+03  0.00000000000E+00 0. -1.
         21    1    1    2  503  502 -0.23916565364E+02  0.67740375865E+01 -0.48395232331E+02  0.54405773558E+02  0.00000000000E+00 0. -1.
          2    1    1    2  501    0  0.20223189611E+02 -0.14561177078E+02  0.80737881249E+02  0.84496217339E+02  0.00000000000E+00 0. -1.
<scales pt_clust_5="13000.00000" pt_clust_6="13000.00000" pt_clust_7="13000.00000" pt_clust_8="13000.00000" pt_clust_9="24.85739" pt_clust_10="24.81502"></scales>
<clustering>
<clus scale="   24.857">  2  9  1 -1</clus>
<clus scale="   24.815">  1 10  2 -1</clus>
<clus scale="   89.323">  7  8 -1 -1</clus>
<clus scale="   93.121">  5  6 -1 -1</clus>
<clus scale="  275.933">  2  7  1 -1</clus>
<clus scale="   24.815">  1  5  2 -1</clus>
</clustering>
</event>
<event>
10    2  0.3544405E-006  0.9320793E+02  0.7546771E-02  0.1296579E+00
         -1   -1    0    0    0  501 -0.00000000000E+00  0.00000000000E+00  0.29757091096E+03  0.29757091096E+03  0.00000000000E+00 0.  1.
         21   -1    0    0  503  502  0.00000000000E+00 -0.00000000000E+00 -0.18462008904E+03  0.18462008904E+03  0.00000000000E+00 0.  1.
         23    2    1    2    0    0  0.22074025026E+02  0.28941745646E+02  0.10049739015E+03  0.14099876071E+03  0.91956717384E+02 0.  0.
         23    2    1    2    0    0  0.39506530624E+01  0.35486184982E+01  0.78893793602E+02  0.11956003156E+03  0.89678147422E+02 0.  0.
        -11    1    4    4    0    0 -0.68526940594E+01  0.34196814385E+02  0.79760031066E+02  0.87051961986E+02  0.00000000000E+00 0.  1.
         11    1    4    4    0    0  0.10803347122E+02 -0.30648195887E+02 -0.86623746345E+00  0.32508069575E+02  0.00000000000E+00 0. -1.
        -13    1    3    3    0    0 -0.18952937585E+02  0.39214803614E+02  0.15805730171E+02  0.46333959164E+02  0.00000000000E+00 0. -1.
         13    1    3    3    0    0  0.41026962612E+02 -0.10273057968E+02  0.84691659978E+02  0.94664801543E+02  0.00000000000E+00 0.  1.
         21    1    1    2  503  501 -0.21654756441E+02 -0.26629111303E+01  0.74435425420E+02  0.77567081482E+02  0.00000000000E+00 0. -1.
         -1    1    1    2    0  502 -0.43699216474E+01 -0.29827453014E+02 -0.14087578725E+03  0.14406512625E+03  0.00000000000E+00 0.  1.
<scales pt_clust_5="13000.00000" pt_clust_6="13000.00000" pt_clust_7="13000.00000" pt_clust_8="13000.00000" pt_clust_9="21.81787" pt_clust_10="30.18780"></scales>
<clustering>
<clus scale="   21.818">  1  9  2 -1</clus>
<clus scale="   30.188">  2 10  1 -1</clus>
<clus scale="   89.678">  5  6 -1 -1</clus>
<clus scale="   90.961">  2  5  1 -1</clus>
<clus scale="   91.957">  7  8 -1 -1</clus>
<clus scale="   30.188">  2  5  1 -1</clus>
</clustering>
</event>
<event>
10    2  0.3544405E-006  0.1372607E+03  0.7546771E-02  0.1217928E+00
         21   -1    0    0  501  502  0.00000000000E+00  0.00000000000E+00  0.35868433893E+03  0.35868433893E+03  0.00000000000E+00 0. -1.
          2   -1    0    0  503    0 -0.00000000000E+00 -0.00000000000E+00 -0.40277260469E+03  0.40277260469E+03  0.00000000000E+00 0. -1.
         23    2    1    2    0    0 -0.13964776487E+03  0.15573451016E+01 -0.18745762062E+03  0.24953318370E+03  0.87307082660E+02 0.  0.
         23    2    1    2    0    0  0.70236361754E+02 -0.72464215546E+00 -0.79849744415E+02  0.14002343731E+03  0.91087373956E+02 0.  0.
        -11    1    4    4    0    0  0.12989856632E+02 -0.41681198301E+02 -0.21869553404E+02  0.48829663456E+02  0.00000000000E+00 0.  1.
         11    1    4    4    0    0  0.57246505122E+02  0.40956556146E+02 -0.57980191012E+02  0.91193773854E+02  0.00000000000E+00 0. -1.
        -13    1    3    3    0    0 -0.70686098670E+02 -0.65740056686E+01 -0.15966950314E+03  0.17474007076E+03  0.00000000000E+00 0. -1.
         13    1    3    3    0    0 -0.68961666198E+02  0.81313507702E+01 -0.27788117476E+02  0.74793112939E+02  0.00000000000E+00 0.  1.
         21    1    1    2  503  502  0.28865538211E+02  0.56354572602E+01 -0.69944084959E+02  0.75875903260E+02  0.00000000000E+00 0. -1.
          2    1    1    2  501    0  0.40545864903E+02 -0.64681602064E+01  0.29316318423E+03  0.29602441934E+03  0.00000000000E+00 0. -1.
<scales pt_clust_5="13000.00000" pt_clust_6="13000.00000" pt_clust_7="13000.00000" pt_clust_8="13000.00000" pt_clust_9="29.41050" pt_clust_10="41.17835"></scales>
<clustering>
<clus scale="   29.411">  2  9  1 -1</clus>
<clus scale="   41.178">  1 10  2 -1</clus>
<clus scale="   87.307">  7  8 -1 -1</clus>
<clus scale="   91.087">  5  6 -1 -1</clus>
<clus scale="  134.782">  2  7  1 -1</clus>
<clus scale="   41.178">  1  5  2 -1</clus>
</clustering>
</event>
<event>
10    2  0.3544405E-006  0.1004773E+03  0.7546771E-02  0.1282287E+00
         -1   -1    0    0    0  501 -0.00000000000E+00  0.00000000000E+00  0.24106381184E+03  0.24106381184E+03  0.00000000000E+00 0.  1.
         21   -1    0    0  503  502  0.00000000000E+00 -0.00000000000E+00 -0.28571716352E+03  0.28571716352E+03  0.00000000000E+00 0.  1.
         23    2    1    2    0    0  0.22381448127E+02 -0.32978343911E+02  0.10709863427E+03  0.15009707789E+03  0.97316570747E+02 0.  0.
         23    2    1    2    0    0 -0.23529662606E+02 -0.45603041627E+02 -0.22471237372E+03  0.24802098697E+03  0.91572248220E+02 0.  0.
        -13    1    4    4    0    0  0.17397049032E+02  0.10794412306E+02 -0.12322263986E+03  0.12491195149E+03  0.00000000000E+00 0. -1.
         13    1    4    4    0    0 -0.40926711637E+02 -0.56397453933E+02 -0.10148973386E+03  0.12310903547E+03  0.00000000000E+00 0.  1.
        -13    1    3    3    0    0 -0.16538701362E+02 -0.12396544788E+02  0.10391982693E+03  0.10595533679E+03  0.00000000000E+00 0.  1.
         13    1    3    3    0    0  0.38920149489E+02 -0.20581799123E+02  0.31788073410E+01  0.44141741102E+02  0.00000000000E+00 0. -1.
         21    1    1    2  503  501 -0.22773910872E+02  0.50183850372E+01  0.36093716190E+02  0.42971985679E+02  0.00000000000E+00 0.  1.
         -1    1    1    2    0  502  0.23922125351E+02  0.73563000501E+02  0.36866671574E+02  0.85690924823E+02  0.00000000000E+00 0.  1.
<scales pt_clust_5="13000.00000" pt_clust_6="13000.00000" pt_clust_7="13000.00000" pt_clust_8="13000.00000" pt_clust_9="23.32027" pt_clust_10="76.98871"></scales>
<clustering>
<clus scale="   23.320">  1  9  2 -1</clus>
<clus scale="   76.989">  2 10  1 -1</clus>
<clus scale="   91.572">  5  6 -1 -1</clus>
<clus scale="   94.924">  2  5  1 -1</clus>
<clus scale="   97.317">  7  8 -1 -1</clus>
<clus scale="   76.989">  2  5  1 -1</clus>
</clustering>
</event>
<event>
10    2  0.3544405E-006  0.1040451E+03  0.7546771E-02  0.1273398E+00
         21   -1    0    0  501  502  0.00000000000E+00  0.00000000000E+00  0.19899302513E+03  0.19899302513E+03  0.00000000000E+00 0.  1.
          2   -1    0    0  503    0 -0.00000000000E+00 -0.00000000000E+00 -0.16440023978E+03  0.16440023978E+03  0.00000000000E+00 0. -1.
         23    2    1    2    0    0 -0.31145663516E+02  0.33896805711E+01 -0.57501721918E+02  0.11287446057E+03  0.91938313747E+02 0.  0.
         23    2    1    2    0    0  0.69310797680E+02  0.17423395143E+02  0.13150033852E+03  0.17404029424E+03  0.88826367790E+02 0.  0.
        -11    1    3    3    0    0 -0.20285922769E+02  0.25624552939E+02  0.15223979554E+02  0.36054208206E+02  0.00000000000E+00 0.  1.
         11    1    3    3    0    0 -0.10859740747E+02 -0.22234872368E+02 -0.72725701472E+02  0.76820252361E+02  0.00000000000E+00 0. -1.
        -13    1    4    4    0    0  0.49343548293E+01  0.35523526086E+02  0.85937792457E+02  0.93121280788E+02  0.00000000000E+00 0.  1.
         13    1    4    4    0    0  0.64376442851E+02 -0.18100130943E+02  0.45562546064E+02  0.80919013452E+02  0.00000000000E+00 0. -1.
         21    1    1    2  503  502 -0.13249328624E+02 -0.34612574280E+02 -0.22512337187E+02  0.43363352417E+02  0.00000000000E+00 0. -1.
          2    1    1    2  501    0 -0.24915805541E+02  0.13799498566E+02 -0.16893494065E+02  0.33115157679E+02  0.00000000000E+00 0. -1.
<scales pt_clust_5="13000.00000" pt_clust_6="13000.00000" pt_clust_7="13000.00000" pt_clust_8="13000.00000" pt_clust_9="36.87656" pt_clust_10="28.48200"></scales>
<clustering>
<clus scale="   28.482">  1 10  2 -1</clus>
<clus scale="   36.877">  2  9  1 -1</clus>
<clus scale="   88.826">  7  8 -1 -1</clus>
<clus scale="   91.938">  5  6 -1 -1</clus>
<clus scale="  101.306">  1  7  2 -1</clus>
<clus scale="   28.482">  1  5  2 -1</clus>
</clustering>
</event>
<event>
10    2  0.3544405E-006  0.9505961E+02  0.7546771E-02  0.1291545E+00
         21   -1    0    0  501  502  0.00000000000E+00  0.00000000000E+00  0.11692953035E+03  0.11692953035E+03  0.00000000000E+00 0. -1.
          3   -1    0    0  503    0 -0.00000000000E+00 -0.00000000000E+00 -0.24634946410E+03  0.24634946410E+03  0.00000000000E+00 0. -1.
         23    2    1    2    0    0 -0.25207655634E+02 -0.41867791954E+01 -0.95068045665E+02  0.13361142388E+03  0.90338941013E+02 0.  0.
         23    2    1    2    0    0 -0.53859333411E+01 -0.65272176352E+02 -0.17985670833E+02  0.11227573631E+03  0.89402971561E+02 0.  0.
        -11    1    3    3    0    0  0.22199942635E+02  0.28619884339E+02 -0.37663675398E+02  0.52254068522E+02  0.00000000000E+00 0.  1.
         11    1    3    3    0    0 -0.47407598270E+02 -0.32806663534E+02 -0.57404370266E+02  0.81357355363E+02  0.00000000000E+00 0. -1.
        -13    1    4    4    0    0 -0.31403385039E+02 -0.74922037112E+02 -0.43408263562E+01  0.81353100804E+02  0.00000000000E+00 0. -1.
         13    1    4    4    0    0  0.26017451698E+02  0.96498607604E+01 -0.13644844477E+02  0.30922635501E+02  0.00000000000E+00 0.  1.
         21    1    1    2  503  502 -0.18642949366E+02  0.11841506871E+02 -0.33086047215E+02  0.39780238390E+02  0.00000000000E+00 0. -1.
          3    1    1    2  501    0  0.49236538342E+02  0.57617448676E+02  0.16719829963E+02  0.77611595872E+02  0.00000000000E+00 0. -1.
<scales pt_clust_5="13000.00000" pt_clust_6="13000.00000" pt_clust_7="13000.00000" pt_clust_8="13000.00000" pt_clust_9="22.08576" pt_clust_10="75.40501"></scales>
<clustering>
<clus scale="   22.086">  2  9  1 -1</clus>
<clus scale="   75.405">  1 10  2 -1</clus>
<clus scale="   89.403">  7  8 -1 -1</clus>
<clus scale="   90.339">  5  6 -1 -1</clus>
<clus scale="   94.171">  1  7  2 -1</clus>
<clus scale="   75.405">  1  5  2 -1</clus>
</clustering>
</event>
<event>
10    2  0.3544405E-006  0.9489744E+02  0.7546771E-02  0.1291922E+00
         -2   -1    0    0    0  501 -0.00000000000E+00  0.00000000000E+00  0.12604641709E+03  0.12604641709E+03  0.00000000000E+00 0.  1.
         21   -1    0    0  503  502  0.00000000000E+00 -0.00000000000E+00 -0.52034223598E+03  0.52034223598E+03  0.00000000000E+00 0.  1.
         23    2    1    2    0    0  0.47462429444E+02 -0.47063708070E+01 -0.91152017651E+02  0.13705795775E+03  0.90561367732E+02 0.  0.
         23    2    1    2    0    0 -0.15787132481E+01 -0.44255096240E+01 -0.12434375233E+03  0.15445524654E+03  0.91503972421E+02 0.  0.
        -13    1    3    3    0    0  0.50784274860E+02 -0.40845707321E+02 -0.66972432048E+02  0.93449029070E+02  0.00000000000E+00 0.  1.
         13    1    3    3    0    0 -0.33218454164E+01  0.36139336514E+02 -0.24179585602E+02  0.43608928679E+02  0.00000000000E+00 0. -1.
        -13    1    4    4    0    0  0.41058503684E+02 -0.10725290320E+02 -0.34070571247E+02  0.54420918793E+02  0.00000000000E+00 0.  1.
         13    1    4    4    0    0 -0.42637216932E+02  0.62997806962E+01 -0.90273181084E+02  0.10003432775E+03  0.00000000000E+00 0. -1.
         21    1    1    2  503  501 -0.16366402190E+02 -0.16697685236E+02  0.85009387283E+02  0.88166137146E+02  0.00000000000E+00 0.  1.
         -2    1    1    2    0  502 -0.29517314005E+02  0.25829565667E+02 -0.26380943620E+03  0.26670931164E+03  0.00000000000E+00 0.  1.
<scales pt_clust_5="13000.00000" pt_clust_6="13000.00000" pt_clust_7="13000.00000" pt_clust_8="13000.00000" pt_clust_9="23.38101" pt_clust_10="39.28082"></scales>
<clustering>
<clus scale="   23.381">  1  9  2 -1</clus>
<clus scale="   39.281">  2 10  1 -1</clus>
<clus scale="   90.561">  5  6 -1 -1</clus>
<clus scale="   91.504">  7  8 -1 -1</clus>
<clus scale="   93.989">  1  5  2 -1</clus>
<clus scale="   39.281">  2  5  1 -1</clus>
</clustering>
</event>
<event>
10    2  0.3544405E-006  0.1080394E+03  0.7546771E-02  0.1265103E+00
         -1   -1    0    0    0  501 -0.00000000000E+00  0.00000000000E+00  0.59385315249E+02  0.59385315249E+02  0.00000000000E+00 0.  1.
         21   -1    0    0  503  502  0.00000000000E+00 -0.00000000000E+00 -0.94494547464E+03  0.94494547464E+03  0.00000000000E+00 0.  1.
         23    2    1    2    0    0  0.89959362990E+02  0.50844809044E+00 -0.16300251679E+03  0.20691324029E+03  0.90279139455E+02 0.  0.
         23    2    1    2    0    0 -0.29643472716E+02  0.41205206110E+02 -0.20845379763E+03  0.23359013221E+03  0.92383762838E+02 0.  0.
        -11    1    3    3    0    0 -0.13118226602E+02  0.15545459288E+02 -0.12490723765E+02  0.23869800038E+02  0.00000000000E+00 0. -1.
         11    1    3    3    0    0  0.10307758959E+03 -0.15037011197E+02 -0.15051179302E+03  0.18304344025E+03  0.00000000000E+00 0.  1.
        -13    1    4    4    0    0 -0.13393621777E+01  0.66908129683E+02 -0.12469791963E+03  0.14152053868E+03  0.00000000000E+00 0.  1.
         13    1    4    4    0    0 -0.28304110538E+02 -0.25702923573E+02 -0.83755878005E+02  0.92069593536E+02  0.00000000000E+00 0. -1.
         21    1    1    2  503  501 -0.49231211145E+02  0.24620274663E+02 -0.10854721366E+02  0.56104322928E+02  0.00000000000E+00 0.  1.
         -1    1    1    2    0  502 -0.11084679129E+02 -0.66333928863E+02 -0.50324912361E+03  0.50772309446E+03  0.00000000000E+00 0.  1.
<scales pt_clust_5="13000.00000" pt_clust_6="13000.00000" pt_clust_7="13000.00000" pt_clust_8="13000.00000" pt_clust_9="55.04426" pt_clust_10="66.34705"></scales>
<clustering>
<clus scale="   55.044">  1  9  2 -1</clus>
<clus scale="   66.347">  2 10  1 -1</clus>
<clus scale="   90.279">  5  6 -1 -1</clus>
<clus scale="   92.384">  7  8 -1 -1</clus>
<clus scale="  106.245">  1  5  2 -1</clus>
<clus scale="   66.347">  2  5  1 -1</clus>
</clustering>
</event>
<event>
10    2  0.3544405E-006  0.1023104E+03  0.7546771E-02  0.1278196E+00
         21   -1    0    0  501  502  0.00000000000E+00  0.00000000000E+00  0.15473465920E+03  0.15473465920E+03  0.00000000000E+00 0. -1.
          1   -1    0    0  503    0 -0.00000000000E+00 -0.00000000000E+00 -0.34877627199E+03  0.34877627199E+03  0.00000000000E+00 0. -1.
         23    2    1    2    0    0  0.93196865366E+01  0.38362284358E+02 -0.20785067017E+03  0.22835505946E+03  0.85939575707E+02 0.  0.
         23    2    1    2    0    0 -0.29647635797E+02 -0.43105822404E+01 -0.27496692883E+02  0.10030463742E+03  0.91691813919E+02 0.  0.
        -11    1    3    3    0    0  0.47336679516E+02  0.19585013159E+02 -0.12954817664E+03  0.13930923889E+03  0.00000000000E+00 0.  1.
         11    1    3    3    0    0 -0.38016992979E+02  0.18777271199E+02 -0.78302493531E+02  0.89045820576E+02  0.00000000000E+00 0. -1.
        -13    1    4    4    0    0 -0.15785169367E+01  0.41742065734E+02 -0.58050912238E+01  0.42173342903E+02  0.00000000000E+00 0.  1.
         13    1    4    4    0    0 -0.28069118861E+02 -0.46052647975E+02 -0.21691601660E+02  0.58131294512E+02  0.00000000000E+00 0. -1.
         21    1    1    2  503  502 -0.24324410622E+01  0.35004792783E+02 -0.48145859945E+02  0.59575801439E+02  0.00000000000E+00 0. -1.
          1    1    1    2  501    0  0.22760390323E+02 -0.69056494901E+02  0.89451610209E+02  0.11527543288E+03  0.00000000000E+00 0. -1.
<scales pt_clust_5="13000.00000" pt_clust_6="13000.00000" pt_clust_7="13000.00000" pt_clust_8="13000.00000" pt_clust_9="35.08920" pt_clust_10="71.22274"></scales>
<clustering>
<clus scale="   35.089">  2  9  1 -1</clus>
<clus scale="   71.223">  1 10  2 -1</clus>
<clus scale="   85.940">  5  6 -1 -1</clus>
<clus scale="   91.692">  7  8 -1 -1</clus>
<clus scale="   97.189">  2  5  1 -1</clus>
<clus scale="   71.223">  1  5  2 -1</clus>
</clustering>
</event>
<event>
10    2  0.3544405E-006  0.1964699E+03  0.7546771E-02  0.1176776E+00
         21   -1    0    0  503  502  0.00000000000E+00  0.00000000000E+00  0.19545973319E+03  0.19545973319E+03  0.00000000000E+00 0. -1.
         -1   -1    0    0    0  501 -0.00000000000E+00 -0.00000000000E+00 -0.10261925665E+04  0.10261925665E+04  0.00000000000E+00 0.  1.
         23    2    1    2    0    0 -0.12704919209E+02 -0.14647587470E+03 -0.43980108019E+02  0.18012297159E+03  0.94305027180E+02 0.  0.
         23    2    1    2    0    0  0.24203121344E+02 -0.68628534189E+02  0.18362910980E+00  0.11873885126E+03  0.93825445861E+02 0.  0.
        -11    1    3    3    0    0  0.24577300997E+02 -0.13856523794E+02 -0.30744390199E+02  0.41728461566E+02  0.00000000000E+00 0.  1.
         11    1    3    3    0    0 -0.37282220206E+02 -0.13261935091E+03 -0.13235717820E+02  0.13839451002E+03  0.00000000000E+00 0. -1.
        -13    1    4    4    0    0  0.93538232511E+01 -0.90365196878E+02  0.82089228481E+01  0.91218140907E+02  0.00000000000E+00 0. -1.
         13    1    4    4    0    0  0.14849298093E+02  0.21736662689E+02 -0.80252937383E+01  0.27520710352E+02  0.00000000000E+00 0.  1.
         21    1    1    2  503  501 -0.44005502308E+02  0.17127010063E+03 -0.83288497110E+03  0.85145011991E+03  0.00000000000E+00 0.  1.
         -1    1    1    2    0  502  0.32507300173E+02  0.43834308262E+02  0.45948616722E+02  0.71340356910E+02  0.00000000000E+00 0.  1.
<scales pt_clust_5="13000.00000" pt_clust_6="13000.00000" pt_clust_7="13000.00000" pt_clust_8="13000.00000" pt_clust_9="172.35713" pt_clust_10="54.57262"></scales>
<clustering>
<clus scale="   54.573">  1 10  2 -1</clus>
<clus scale="   93.825">  7  8 -1 -1</clus>
<clus scale="   94.305">  5  6 -1 -1</clus>
<clus scale="  112.829">  1  7  2 -1</clus>
<clus scale="  172.357">  2  9  1 -1</clus>
<clus scale="   54.573">  1  5  2 -1</clus>
</clustering>
</event>
<event>
10    2  0.3544405E-006  0.9452842E+02  0.7546771E-02  0.1294483E+00
         21   -1    0    0  501  502  0.00000000000E+00  0.00000000000E+00  0.43054167606E+03  0.43054167606E+03  0.00000000000E+00 0. -1.
          3   -1    0    0  503    0 -0.00000000000E+00 -0.00000000000E+00 -0.16920171953E+03  0.16920171953E+03  0.00000000000E+00 0. -1.
         23    2    1    2    0    0 -0.71973426281E+01 -0.28445467004E+02 -0.32602148901E+01  0.95971996993E+02  0.91318392845E+02 0.  0.
         23    2    1    2    0    0 -0.37733559470E+02  0.71468203849E+01  0.22870227235E+03  0.24779580200E+03  0.87310546680E+02 0.  0.
        -11    1    3    3    0    0 -0.49240708610E+02 -0.17159572245E+02  0.16015865332E+01  0.52169563765E+02  0.00000000000E+00 0. -1.
         11    1    3    3    0    0  0.42043365982E+02 -0.11285894759E+02 -0.48618014233E+01  0.43802433228E+02  0.00000000000E+00 0.  1.
        -11    1    4    4    0    0 -0.34053198970E+02 -0.34791277073E+02  0.15978941014E+03  0.16704103961E+03  0.00000000000E+00 0. -1.
         11    1    4    4    0    0 -0.36803605005E+01  0.41938097458E+02  0.68912862203E+02  0.80754762391E+02  0.00000000000E+00 0.  1.
         21    1    1    2  503  502 -0.32757237474E+02  0.13843622626E+02 -0.96190244196E+02  0.10255362291E+03  0.00000000000E+00 0. -1.
          3    1    1    2  501    0  0.77688139572E+02  0.74550239932E+01  0.13208814327E+03  0.15342197367E+03  0.00000000000E+00 0. -1.
<scales pt_clust_5="13000.00000" pt_clust_6="13000.00000" pt_clust_7="13000.00000" pt_clust_8="13000.00000" pt_clust_9="35.56237" pt_clust_10="73.31155"></scales>
<clustering>
<clus scale="   35.562">  2  9  1 -1</clus>
<clus scale="   73.312">  1 10  2 -1</clus>
<clus scale="   87.311">  7  8 -1 -1</clus>
<clus scale="   90.663">  1  7  2 -1</clus>
<clus scale="   91.318">  5  6 -1 -1</clus>
<clus scale="   73.312">  1  5  2 -1</clus>
</clustering>
</event>
<event>
10    2  0.3544405E-006  0.9814452E+02  0.7546771E-02  0.1289857E+00
         21   -1    0    0  501  502  0.00000000000E+00  0.00000000000E+00  0.23478496962E+02  0.23478496962E+02  0.00000000000E+00 0. -1.
          2   -1    0    0  503    0 -0.00000000000E+00 -0.00000000000E+00 -0.74783179018E+03  0.74783179018E+03  0.00000000000E+00 0. -1.
         23    2    1    2    0    0  0.35919621504E+02 -0.38172063844E+01 -0.31715201811E+03  0.33304774065E+03  0.95029493775E+02 0.  0.
         23    2    1    2    0    0  0.20379409665E+01 -0.40297241922E+02 -0.22184045524E+03  0.24091146888E+03  0.84835884761E+02 0.  0.
        -11    1    3    3    0    0  0.23718300527E+02 -0.40750231320E+02 -0.25786522698E+03  0.26214044789E+03  0.00000000000E+00 0.  1.
         11    1    3    3    0    0  0.12201320977E+02  0.36933024936E+02 -0.59286791126E+02  0.70907292760E+02  0.00000000000E+00 0. -1.
        -11    1    4    4    0    0 -0.19514139926E+02 -0.60887077769E+02 -0.15841537362E+03  0.17083169640E+03  0.00000000000E+00 0. -1.
         11    1    4    4    0    0  0.21552080892E+02  0.20589835848E+02 -0.63425081626E+02  0.70079772476E+02  0.00000000000E+00 0.  1.
         21    1    1    2  503  502 -0.21089316160E+02  0.17767418555E+02 -0.13704117534E+03  0.13978814026E+03  0.00000000000E+00 0. -1.
          2    1    1    2  501    0 -0.16868246310E+02  0.26347029751E+02 -0.48319644518E+02  0.57562937353E+02  0.00000000000E+00 0. -1.
<scales pt_clust_5="13000.00000" pt_clust_6="13000.00000" pt_clust_7="13000.00000" pt_clust_8="13000.00000" pt_clust_9="27.57608" pt_clust_10="33.57950"></scales>
<clustering>
<clus scale="   27.576">  2  9  1 -1</clus>
<clus scale="   33.580">  1 10  2 -1</clus>
<clus scale="   84.836">  7  8 -1 -1</clus>
<clus scale="   88.311">  1  7  2 -1</clus>
<clus scale="   95.029">  5  6 -1 -1</clus>
<clus scale="   33.580">  1  5  2 -1</clus>
</clustering>
</event>
<event>
10    2  0.3544405E-006  0.9273117E+02  0.7546771E-02  0.1296997E+00
         -1   -1    0    0    0  501 -0.00000000000E+00  0.00000000000E+00  0.25977091490E+03  0.25977091490E+03  0.00000000000E+00 0.  1.
         21   -1    0    0  503  502  0.00000000000E+00 -0.00000000000E+00 -0.12577177919E+03  0.12577177919E+03  0.00000000000E+00 0. -1.
         23    2    1    2    0    0 -0.21274966080E+02 -0.68645180970E+01  0.11066827217E+03  0.14556612206E+03  0.91881900491E+02 0.  0.
         23    2    1    2    0    0  0.17638695016E+02  0.39707701012E+02 -0.58808656619E+02  0.11657917505E+03  0.90798793385E+02 0.  0.
        -13    1    3    3    0    0 -0.45250282886E+02  0.26057152653E+02  0.48630398789E+02  0.71354600357E+02  0.00000000000E+00 0.  1.
         13    1    3    3    0    0  0.23975316806E+02 -0.32921670750E+02  0.62037873378E+02  0.74211521708E+02  0.00000000000E+00 0. -1.
        -13    1    4    4    0    0  0.47357144330E+02  0.48287764573E+02 -0.50912147864E+02  0.84654912005E+02  0.00000000000E+00 0. -1.
         13    1    4    4    0    0 -0.29718449315E+02 -0.85800635602E+01 -0.78965087552E+01  0.31924263044E+02  0.00000000000E+00 0.  1.
         21    1    1    2  503  501  0.31532538678E+02  0.14879992146E+01  0.71117512164E+02  0.77808840587E+02  0.00000000000E+00 0. -1.
         -1    1    1    2    0  502 -0.27896267613E+02 -0.34331182130E+02  0.11022008003E+02  0.45588556389E+02  0.00000000000E+00 0.  1.
<scales pt_clust_5="13000.00000" pt_clust_6="13000.00000" pt_clust_7="13000.00000" pt_clust_8="13000.00000" pt_clust_9="31.56763" pt_clust_10="41.17951"></scales>
<clustering>
<clus scale="   31.568">  1  9  2 -1</clus>
<clus scale="   41.180">  2 10  1 -1</clus>
<clus scale="   90.799">  7  8 -1 -1</clus>
<clus scale="   91.658">  2  7  1 -1</clus>
<clus scale="   91.882">  5  6 -1 -1</clus>
<clus scale="   41.180">  2  5  1 -1</clus>
</clustering>
</event>
<event>
10    2  0.3544405E-006  0.1303416E+03  0.7546771E-02  0.1237047E+00
         21   -1    0    0  501  502  0.00000000000E+00  0.00000000000E+00  0.46835798216E+02  0.46835798216E+02  0.00000000000E+00 0. -1.
          1   -1    0    0  503    0 -0.00000000000E+00 -0.00000000000E+00 -0.87359858948E+03  0.87359858948E+03  0.00000000000E+00 0. -1.
         23    2    1    2    0    0 -0.60151347740E+02  0.24736337155E+02 -0.34456913140E+03  0.36479400849E+03  0.10058186368E+03 0.  0.
         23    2    1    2    0    0  0.97281827399E+02  0.37209867276E+02 -0.95919271203E+02  0.15616684626E+03  0.65872977155E+02 0.  0.
        -11    1    4    4    0    0  0.72945142507E+02  0.25681183215E+02 -0.10254281319E+03  0.12843498559E+03  0.00000000000E+00 0. -1.
         11    1    4    4    0    0  0.24336684892E+02  0.11528684061E+02  0.66235419917E+01  0.27731860670E+02  0.00000000000E+00 0.  1.
        -11    1    3    3    0    0 -0.35392601323E+01 -0.22679764768E+02 -0.15880675506E+02  0.27912254419E+02  0.00000000000E+00 0.  1.
         11    1    3    3    0    0 -0.56612087608E+02  0.47416101923E+02 -0.32868845589E+03  0.33688175407E+03  0.00000000000E+00 0. -1.
         21    1    1    2  503  502 -0.39343596063E+02 -0.49876997265E-01 -0.13013776331E+03  0.13595498695E+03  0.00000000000E+00 0. -1.
          1    1    1    2  501    0  0.22131164036E+01 -0.61896327433E+02 -0.25613662536E+03  0.26351854599E+03  0.00000000000E+00 0. -1.
<scales pt_clust_5="13000.00000" pt_clust_6="13000.00000" pt_clust_7="13000.00000" pt_clust_8="13000.00000" pt_clust_9="39.34363" pt_clust_10="62.98947"></scales>
<clustering>
<clus scale="   39.344">  2  9  1 -1</clus>
<clus scale="   62.989">  1 10  2 -1</clus>
<clus scale="   65.873">  5  6 -1 -1</clus>
<clus scale="  100.582">  7  8 -1 -1</clus>
<clus scale="  105.884">  1  5  2 -1</clus>
<clus scale="   62.989">  1  5  2 -1</clus>
</clustering>
</event>
<event>
10    2  0.3544405E-006  0.9619972E+02  0.7546771E-02  0.1288511E+00
         -1   -1    0    0    0  501 -0.00000000000E+00  0.00000000000E+00  0.20226468308E+03  0.20226468308E+03  0.00000000000E+00 0.  1.
         21   -1    0    0  503  502  0.00000000000E+00 -0.00000000000E+00 -0.16935499527E+03  0.16935499527E+03  0.00000000000E+00 0. -1.
         23    2    1    2    0    0  0.45560824200E+02 -0.15666586824E+02  0.81565400599E+02  0.13118972901E+03  0.90755714859E+02 0.  0.
         23    2    1    2    0    0 -0.26814682647E+02 -0.11205489052E+02 -0.10431367553E+03  0.14130665737E+03  0.90783469449E+02 0.  0.
        -11    1    3    3    0    0  0.56266244819E+02 -0.42946467055E+02  0.43245564927E+02  0.82948587839E+02  0.00000000000E+00 0.  1.
         11    1    3    3    0    0 -0.10705420620E+02  0.27279880231E+02  0.38319835672E+02  0.48241141176E+02  0.00000000000E+00 0. -1.
        -13    1    4    4    0    0  0.15512657603E+02 -0.27134762070E+02 -0.43096734737E+01  0.31551721727E+02  0.00000000000E+00 0.  1.
         13    1    4    4    0    0 -0.42327340250E+02  0.15929273018E+02 -0.10000400205E+03  0.10975493564E+03  0.00000000000E+00 0. -1.
         21    1    1    2  503  501 -0.20514692154E+02 -0.12502995598E+01  0.65985619245E+02  0.69112356278E+02  0.00000000000E+00 0. -1.
         -1    1    1    2    0  502  0.17685506010E+01  0.28122375436E+02 -0.10327656505E+02  0.30010935678E+02  0.00000000000E+00 0.  1.
<scales pt_clust_5="13000.00000" pt_clust_6="13000.00000" pt_clust_7="13000.00000" pt_clust_8="13000.00000" pt_clust_9="20.55276" pt_clust_10="28.03233"></scales>
<clustering>
<clus scale="   20.553">  1  9  2 -1</clus>
<clus scale="   28.032">  2 10  1 -1</clus>
<clus scale="   90.756">  5  6 -1 -1</clus>
<clus scale="   90.783">  7  8 -1 -1</clus>
<clus scale="   96.174">  1  5  2 -1</clus>
<clus scale="   28.032">  2  5  1 -1</clus>
</clustering>
</event>
<event>
10    2  0.3544405E-006  0.1288171E+03  0.7546771E-02  0.1229253E+00
         -1   -1    0    0    0  501 -0.00000000000E+00  0.00000000000E+00  0.11765735576E+04  0.11765735576E+04  0.00000000000E+00 0.  1.
         21   -1    0    0  503  502  0.00000000000E+00 -0.00000000000E+00 -0.29365778622E+02  0.29365778622E+02  0.00000000000E+00 0.  1.
         23    2    1    2    0    0 -0.67641578561E+02  0.96152460205E+02  0.61354252214E+03  0.63144462256E+03  0.92017422982E+02 0.  0.
         23    2    1    2    0    0  0.32259048208E+02 -0.55863917109E+02  0.32156299857E+03  0.34060234038E+03  0.91900863970E+02 0.  0.
        -11    1    4    4    0    0  0.49150299456E+02 -0.68305054495E+02  0.29492493277E+03  0.30669536739E+03  0.00000000000E+00 0. -1.
         11    1    4    4    0    0 -0.16891251249E+02  0.12441137385E+02  0.26638065794E+02  0.33906972991E+02  0.00000000000E+00 0.  1.
        -13    1    3    3    0    0  0.12428782523E+02  0.59264108538E+02  0.27756345333E+03  0.28409185103E+03  0.00000000000E+00 0.  1.
         13    1    3    3    0    0 -0.80070361084E+02  0.36888351667E+02  0.33597906881E+03  0.34735277153E+03  0.00000000000E+00 0. -1.
         21    1    1    2  503  501 -0.50925202935E+01 -0.26335967142E+02  0.17558316306E+03  0.17762028060E+03  0.00000000000E+00 0.  1.
         -1    1    1    2    0  502  0.40475050647E+02 -0.13952575953E+02  0.36519095216E+02  0.56272092693E+02  0.00000000000E+00 0.  1.
<scales pt_clust_5="13000.00000" pt_clust_6="13000.00000" pt_clust_7="13000.00000" pt_clust_8="13000.00000" pt_clust_9="26.82381" pt_clust_10="43.00493"></scales>
<clustering>
<clus scale="   26.824">  1  9  2 -1</clus>
<clus scale="   43.005">  2 10  1 -1</clus>
<clus scale="   91.901">  5  6 -1 -1</clus>
<clus scale="   92.017">  7  8 -1 -1</clus>
<clus scale="  128.734">  2  5  1 -1</clus>
<clus scale="   43.005">  2  5  1 -1</clus>
</clustering>
</event>
<event>
10    2  0.3544405E-006  0.3042549E+03  0.7546771E-02  0.1083307E+00
          1   -1    0    0  503    0 -0.00000000000E+00  0.00000000000E+00  0.39898975318E+03  0.39898975318E+03  0.00000000000E+00 0. -1.
         21   -1    0    0  501  502  0.00000000000E+00 -0.00000000000E+00 -0.44640281083E+03  0.44640281083E+03  0.00000000000E+00 0.  1.
         23    2    1    2    0    0  0.24651012764E+03 -0.12668670816E+02  0.14728117152E+03  0.30070785159E+03  0.88350044005E+02 0.  0.
         23    2    1    2    0    0 -0.35075995797E+03  0.55333521792E+01 -0.21974436864E+03  0.42428463078E+03  0.93095081837E+02 0.  0.
        -11    1    3    3    0    0  0.13781309758E+03  0.25459483999E+02  0.46513203347E+02  0.14766215925E+03  0.00000000000E+00 0.  1.
         11    1    3    3    0    0  0.10869703006E+03 -0.38128154815E+02  0.10076796818E+03  0.15304569234E+03  0.00000000000E+00 0. -1.
        -11    1    4    4    0    0 -0.25732399552E+03 -0.36982895127E+02 -0.14937922271E+03  0.29982916032E+03  0.00000000000E+00 0.  1.
         11    1    4    4    0    0 -0.93435962452E+02  0.42516247307E+02 -0.70365145935E+02  0.12445547046E+03  0.00000000000E+00 0. -1.
         21    1    1    2  503  502  0.42406012271E+02  0.16244105306E+02  0.34696933395E+02  0.57149085915E+02  0.00000000000E+00 0. -1.
          1    1    1    2  501    0  0.61843818058E+02 -0.91087866695E+01 -0.96467939250E+01  0.63250995721E+02  0.00000000000E+00 0. -1.
<scales pt_clust_5="13000.00000" pt_clust_6="13000.00000" pt_clust_7="13000.00000" pt_clust_8="13000.00000" pt_clust_9="45.41080" pt_clust_10="65.53788"></scales>
<clustering>
<clus scale="   45.411">  1  9  2 -1</clus>
<clus scale="   65.538">  2 10  1 -1</clus>
<clus scale="   88.350">  5  6 -1 -1</clus>
<clus scale="   93.095">  7  8 -1 -1</clus>
<clus scale="  302.837">  1  5  2 -1</clus>
<clus scale="   65.538">  2  5  1 -1</clus>
</clustering>
</event>
<event>
10    2  0.3544405E-006  0.1177516E+03  0.7546771E-02  0.1246884E+00
         21   -1    0    0  501  502  0.00000000000E+00  0.00000000000E+00  0.86818594680E+03  0.86818594680E+03  0.00000000000E+00 0. -1.
          1   -1    0    0  503    0 -0.00000000000E+00 -0.00000000000E+00 -0.34772957414E+03  0.34772957414E+03  0.00000000000E+00 0. -1.
         23    2    1    2    0    0  0.92938938261E+02  0.69192959691E+02  0.21113814358E+02  0.14884142531E+03  0.91009146874E+02 0.  0.
         23    2    1    2    0    0 -0.45811077628E+02 -0.21759394335E+02  0.10347622572E+03  0.14678171338E+03  0.90914333401E+02 0.  0.
        -11    1    3    3    0    0  0.10791191735E+03  0.42214422204E+02  0.11116011383E+02  0.11640706618E+03  0.00000000000E+00 0. -1.
         11    1    3    3    0    0 -0.14972979086E+02  0.26978537487E+02  0.99978029748E+01  0.32434359127E+02  0.00000000000E+00 0.  1.
        -11    1    4    4    0    0 -0.12943193241E+02 -0.21054575166E+02  0.11044439864E+03  0.11317590989E+03  0.00000000000E+00 0.  1.
         11    1    4    4    0    0 -0.32867884387E+02 -0.70481916932E+00 -0.69681729287E+01  0.33605803489E+02  0.00000000000E+00 0. -1.
         21    1    1    2  503  502 -0.10270612195E+03  0.33539396624E+02 -0.24719451826E+03  0.26977503307E+03  0.00000000000E+00 0. -1.
          1    1    1    2  501    0  0.55578261313E+02 -0.80972961980E+02  0.64306085085E+03  0.65051734919E+03  0.00000000000E+00 0. -1.
<scales pt_clust_5="13000.00000" pt_clust_6="13000.00000" pt_clust_7="13000.00000" pt_clust_8="13000.00000" pt_clust_9="104.11219" pt_clust_10="98.21183"></scales>
<clustering>
<clus scale="   90.914">  7  8 -1 -1</clus>
<clus scale="   91.009">  5  6 -1 -1</clus>
<clus scale="   98.212">  1 10  2 -1</clus>
<clus scale="  104.112">  2  9  1 -1</clus>
<clus scale="  117.678">  1  7  2 -1</clus>
<clus scale="   98.212">  1  5  2 -1</clus>
</clustering>
</event>
<event>
10    2  0.3544405E-006  0.1504380E+03  0.7546771E-02  0.1200142E+00
          1   -1    0    0  503    0 -0.00000000000E+00  0.00000000000E+00  0.52098284815E+03  0.52098284815E+03  0.00000000000E+00 0. -1.
         21   -1    0    0  501  502  0.00000000000E+00 -0.00000000000E+00 -0.13431709781E+03  0.13431709781E+03  0.00000000000E+00 0.  1.
         23    2    1    2    0    0  0.95953978884E+02 -0.13479285933E+03  0.23458562922E+03  0.30085302725E+03  0.90032469596E+02 0.  0.
         23    2    1    2    0    0 -0.77578253527E+02  0.69049805734E+02 -0.51425074660E+01  0.13827774349E+03  0.91148383805E+02 0.  0.
        -11    1    4    4    0    0  0.97389967071E+01  0.28389320748E+02  0.23132229413E+02  0.37893292639E+02  0.00000000000E+00 0. -1.
         11    1    4    4    0    0 -0.87317250234E+02  0.40660484986E+02 -0.28274736879E+02  0.10038445085E+03  0.00000000000E+00 0.  1.
        -13    1    3    3    0    0  0.72760534555E+02 -0.59782243977E+02  0.66346507965E+02  0.11519492698E+03  0.00000000000E+00 0.  1.
         13    1    3    3    0    0  0.23193444329E+02 -0.75010615352E+02  0.16823912125E+03  0.18565810027E+03  0.00000000000E+00 0. -1.
         21    1    1    2  503  502  0.23188605908E+01  0.78175685507E+02  0.17123844121E+03  0.18825360201E+03  0.00000000000E+00 0. -1.
          1    1    1    2  501    0 -0.20694585948E+02 -0.12432631912E+02 -0.14015812633E+02  0.27915573209E+02  0.00000000000E+00 0. -1.
<scales pt_clust_5="13000.00000" pt_clust_6="13000.00000" pt_clust_7="13000.00000" pt_clust_8="13000.00000" pt_clust_9="77.24635" pt_clust_10="24.14200"></scales>
<clustering>
<clus scale="   24.142">  2 10  1 -1</clus>
<clus scale="   77.246">  1  9  2 -1</clus>
<clus scale="   90.032">  7  8 -1 -1</clus>
<clus scale="   91.148">  5  6 -1 -1</clus>
<clus scale="  149.764">  1  7  2 -1</clus>
<clus scale="   24.142">  2  5  1 -1</clus>
</clustering>
</event>
<event>
10    2  0.3544405E-006  0.1511137E+03  0.7546771E-02  0.1215059E+00
         21   -1    0    0  501  502  0.00000000000E+00  0.00000000000E+00  0.10446443652E+03  0.10446443652E+03  0.00000000000E+00 0.  1.
          1   -1    0    0  503    0 -0.00000000000E+00 -0.00000000000E+00 -0.44909711936E+03  0.44909711936E+03  0.00000000000E+00 0. -1.
         23    2    1    2    0    0  0.45031628943E+02  0.52311761725E+02 -0.15376211341E+03  0.19140088942E+03  0.90703610355E+02 0.  0.
         23    2    1    2    0    0  0.50249199510E+02 -0.11014753721E+03 -0.69195890487E+02  0.16768193288E+03  0.93121948797E+02 0.  0.
        -13    1    4    4    0    0  0.20217434421E+02 -0.11029423431E+03 -0.26058552389E+02  0.11511998492E+03  0.00000000000E+00 0.  1.
         13    1    4    4    0    0  0.30031765089E+02  0.14669709745E+00 -0.43137338098E+02  0.52561947953E+02  0.00000000000E+00 0. -1.
        -13    1    3    3    0    0 -0.22833938081E+02  0.25003542672E+02 -0.82920236158E+02  0.89567468642E+02  0.00000000000E+00 0.  1.
         13    1    3    3    0    0  0.67865567024E+02  0.27308219053E+02 -0.70841877252E+02  0.10183342078E+03  0.00000000000E+00 0. -1.
         21    1    1    2  503  502 -0.10468703929E+02 -0.28009475034E+02 -0.34232247938E+02  0.45452956477E+02  0.00000000000E+00 0. -1.
          1    1    1    2  501    0 -0.84812124524E+02  0.85845250518E+02 -0.87442431005E+02  0.14902577711E+03  0.00000000000E+00 0. -1.
<scales pt_clust_5="13000.00000" pt_clust_6="13000.00000" pt_clust_7="13000.00000" pt_clust_8="13000.00000" pt_clust_9="29.90191" pt_clust_10="119.01116"></scales>
<clustering>
<clus scale="   29.902">  2  9  1 -1</clus>
<clus scale="   90.704">  7  8 -1 -1</clus>
<clus scale="   93.122">  5  6 -1 -1</clus>
<clus scale="  107.318">  2  7  1 -1</clus>
<clus scale="  119.011">  1 10  2 -1</clus>
<clus scale="  119.011">  1  5  2 -1</clus>
</clustering>
</event>
<event>
10    2  0.3544405E-006  0.1294530E+03  0.7546771E-02  0.1239988E+00
         21   -1    0    0  501  502  0.00000000000E+00  0.00000000000E+00  0.15869318682E+03  0.15869318682E+03  0.00000000000E+00 0. -1.
          1   -1    0    0  503    0 -0.00000000000E+00 -0.00000000000E+00 -0.46475906690E+03  0.46475906690E+03  0.00000000000E+00 0. -1.
         23    2    1    2    0    0 -0.39743707643E+02 -0.49514223945E+02 -0.12000854611E+03  0.16333658885E+03  0.90805117954E+02 0.  0.
         23    2    1    2    0    0 -0.31102173058E+02 -0.81508271419E+02  0.12275165137E+02  0.12481195963E+03  0.88410418557E+02 0.  0.
        -11    1    4    4    0    0 -0.45423818588E+01 -0.90327391887E+02 -0.71832426653E+01  0.90726346412E+02  0.00000000000E+00 0.  1.
         11    1    4    4    0    0 -0.26559791199E+02  0.88191204683E+01  0.19458407802E+02  0.34085613220E+02  0.00000000000E+00 0. -1.
        -13    1    3    3    0    0 -0.29423950181E+02 -0.74468981371E+02 -0.69343214670E+02  0.10592393238E+03  0.00000000000E+00 0.  1.
         13    1    3    3    0    0 -0.10319757462E+02  0.24954757426E+02 -0.50665331444E+02  0.57412656467E+02  0.00000000000E+00 0. -1.
         21    1    1    2  503  502 -0.72494535624E+01  0.61281300103E+02 -0.21990700978E+03  0.22840106232E+03  0.00000000000E+00 0. -1.
          1    1    1    2  501    0  0.78095334263E+02  0.69741195261E+02  0.21574510685E+02  0.10690264291E+03  0.00000000000E+00 0. -1.
<scales pt_clust_5="13000.00000" pt_clust_6="13000.00000" pt_clust_7="13000.00000" pt_clust_8="13000.00000" pt_clust_9="61.70861" pt_clust_10="94.56046"></scales>
<clustering>
<clus scale="   61.709">  2  9  1 -1</clus>
<clus scale="   88.410">  5  6 -1 -1</clus>
<clus scale="   90.805">  7  8 -1 -1</clus>
<clus scale="  101.799">  2  7  1 -1</clus>
<clus scale="   94.560">  1 10  2 -1</clus>
<clus scale="   94.560">  1  5  2 -1</clus>
</clustering>
</event>
<event>
10    2  0.3544405E-006  0.1340615E+03  0.7546771E-02  0.1221736E+00
          1   -1    0    0  503    0 -0.00000000000E+00  0.00000000000E+00  0.33163216219E+03  0.33163216219E+03  0.00000000000E+00 0. -1.
         21   -1    0    0  501  502  0.00000000000E+00 -0.00000000000E+00 -0.20279233014E+03  0.20279233014E+03  0.00000000000E+00 0. -1.
         23    2    1    2    0    0  0.73982159359E+02 -0.13733352545E+02  0.94682504787E+02  0.15137748645E+03  0.91040660239E+02 0.  0.
         23    2    1    2    0    0 -0.13454188497E+03  0.70854196190E+02  0.99920591837E+02  0.20311419564E+03  0.90274115167E+02 0.  0.
        -13    1    3    3    0    0  0.38916999756E+02  0.23124629117E+02  0.15967176078E+01  0.45297139523E+02  0.00000000000E+00 0. -1.
         13    1    3    3    0    0  0.35065159603E+02 -0.36857981663E+02  0.93085787179E+02  0.10608034693E+03  0.00000000000E+00 0.  1.
        -13    1    4    4    0    0 -0.10905522918E+03  0.89650257308E+02  0.63346535690E+02  0.15473524237E+03  0.00000000000E+00 0. -1.
         13    1    4    4    0    0 -0.25486655793E+02 -0.18796061117E+02  0.36574056147E+02  0.48378953276E+02  0.00000000000E+00 0.  1.
         21    1    1    2  503  502 -0.10061405661E+02  0.25024113829E+02  0.26371941813E+02  0.37721578332E+02  0.00000000000E+00 0. -1.
          1    1    1    2  501    0  0.70621131275E+02 -0.82144957474E+02 -0.92135206390E+02  0.14221123190E+03  0.00000000000E+00 0. -1.
<scales pt_clust_5="13000.00000" pt_clust_6="13000.00000" pt_clust_7="13000.00000" pt_clust_8="13000.00000" pt_clust_9="26.97106" pt_clust_10="106.19724"></scales>
<clustering>
<clus scale="   26.971">  1  9  2 -1</clus>
<clus scale="   90.274">  7  8 -1 -1</clus>
<clus scale="   91.041">  5  6 -1 -1</clus>
<clus scale="  106.197">  2 10  1 -1</clus>
<clus scale="  133.542">  2  7  1 -1</clus>
<clus scale="  106.197">  2  5  1 -1</clus>
</clustering>
</event>
<event>
10    2  0.3544405E-006  0.1298563E+03  0.7546771E-02  0.1230472E+00
          4   -1    0    0  503    0 -0.00000000000E+00  0.00000000000E+00  0.11963150096E+03  0.11963150096E+03  0.00000000000E+00 0. -1.
         21   -1    0    0  501  502  0.00000000000E+00 -0.00000000000E+00 -0.29270554483E+03  0.29270554483E+03  0.00000000000E+00 0. -1.
         23    2    1    2    0    0 -0.25109800884E+02  0.10617463100E+03 -0.56244395006E+02  0.15279572027E+03  0.90992009502E+02 0.  0.
         23    2    1    2    0    0 -0.37322210995E+02 -0.80117242858E+02 -0.59963085700E+02  0.13357071605E+03  0.80211249226E+02 0.  0.
        -13    1    3    3    0    0  0.25797348116E+02  0.15927188186E+02 -0.36270246232E+02  0.47272711527E+02  0.00000000000E+00 0.  1.
         13    1    3    3    0    0 -0.50907149001E+02  0.90247442816E+02 -0.19974148774E+02  0.10552300874E+03  0.00000000000E+00 0. -1.
        -13    1    4    4    0    0  0.11580317108E+02 -0.48455379142E+02 -0.56329582493E+02  0.75200062340E+02  0.00000000000E+00 0. -1.
         13    1    4    4    0    0 -0.48902528103E+02 -0.31661863716E+02 -0.36335032073E+01  0.58370653708E+02  0.00000000000E+00 0.  1.
         21    1    1    2  503  502  0.34486824001E+02 -0.14729773629E+02  0.20639608894E+02  0.42805381860E+02  0.00000000000E+00 0. -1.
          4    1    1    2  501    0  0.27945187878E+02 -0.11327614515E+02 -0.77506172064E+02  0.83165227614E+02  0.00000000000E+00 0. -1.
<scales pt_clust_5="13000.00000" pt_clust_6="13000.00000" pt_clust_7="13000.00000" pt_clust_8="13000.00000" pt_clust_9="39.07413" pt_clust_10="30.15375"></scales>
<clustering>
<clus scale="   30.154">  2 10  1 -1</clus>
<clus scale="   39.074">  1  9  2 -1</clus>
<clus scale="   80.211">  7  8 -1 -1</clus>
<clus scale="   90.992">  5  6 -1 -1</clus>
<clus scale="  122.544">  2  7  1 -1</clus>
<clus scale="   30.154">  2  5  1 -1</clus>
</clustering>
</event>
<event>
10    2  0.3544405E-006  0.9572285E+02  0.7546771E-02  0.1290226E+00
         21   -1    0    0  503  502  0.00000000000E+00  0.00000000000E+00  0.54820775117E+03  0.54820775117E+03  0.00000000000E+00 0. -1.
         -3   -1    0    0    0  501 -0.00000000000E+00 -0.00000000000E+00 -0.15186282906E+03  0.15186282906E+03  0.00000000000E+00 0.  1.
         23    2    1    2    0    0 -0.30188837867E+01 -0.10546387098E+02 -0.38075124123E+02  0.10066776355E+03  0.92541577692E+02 0.  0.
         23    2    1    2    0    0 -0.32726172215E+02 -0.31740353863E+02  0.19310151022E+03  0.21841174355E+03  0.91307415155E+02 0.  0.
        -13    1    4    4    0    0  0.12702501602E+02 -0.50139877883E+02  0.11657723326E+03  0.12753670928E+03  0.00000000000E+00 0. -1.
         13    1    4    4    0    0 -0.45428673817E+02  0.18399524021E+02  0.76524276959E+02  0.90875034267E+02  0.00000000000E+00 0.  1.
        -13    1    3    3    0    0  0.22944432182E+02 -0.33092820289E+02  0.10065085785E+02  0.41507682117E+02  0.00000000000E+00 0. -1.
         13    1    3    3    0    0 -0.25963315969E+02  0.22546433191E+02 -0.48140209908E+02  0.59160081437E+02  0.00000000000E+00 0.  1.
         21    1    1    2  503  501 -0.73971592517E+01  0.41865946401E+02 -0.61693053796E+02  0.74923349629E+02  0.00000000000E+00 0.  1.
         -3    1    1    2    0  502  0.43142215253E+02  0.42079456019E+00  0.30301158981E+03  0.30606772349E+03  0.00000000000E+00 0.  1.
<scales pt_clust_5="13000.00000" pt_clust_6="13000.00000" pt_clust_7="13000.00000" pt_clust_8="13000.00000" pt_clust_9="42.51441" pt_clust_10="43.02330"></scales>
<clustering>
<clus scale="   42.514">  2  9  1 -1</clus>
<clus scale="   43.023">  1 10  2 -1</clus>
<clus scale="   91.307">  5  6 -1 -1</clus>
<clus scale="   92.542">  7  8 -1 -1</clus>
<clus scale="   94.530">  1  5  2 -1</clus>
<clus scale="   43.023">  1  5  2 -1</clus>
</clustering>
</event>
<event>
10    2  0.3544405E-006  0.1388874E+03  0.7546771E-02  0.1226185E+00
         21   -1    0    0  503  502  0.00000000000E+00  0.00000000000E+00  0.10471275427E+03  0.10471275427E+03  0.00000000000E+00 0. -1.
         -1   -1    0    0    0  501 -0.00000000000E+00 -0.00000000000E+00 -0.54675768073E+03  0.54675768073E+03  0.00000000000E+00 0.  1.
         23    2    1    2    0    0  0.43862943049E+02 -0.73955369195E+02 -0.13952982535E+03  0.18588116865E+03  0.87691973926E+02 0.  0.
         23    2    1    2    0    0 -0.83926251494E+02  0.65605420661E+01 -0.68182688553E+02  0.14099916263E+03  0.90250919343E+02 0.  0.
        -13    1    3    3    0    0  0.20427193403E+02 -0.67276926709E+02 -0.14478349934E+03  0.16095252958E+03  0.00000000000E+00 0. -1.
         13    1    3    3    0    0  0.23435749646E+02 -0.66784424854E+01  0.52536739883E+01  0.24928639070E+02  0.00000000000E+00 0.  1.
        -13    1    4    4    0    0 -0.18674814368E+02  0.85337016144E+01 -0.72717460825E+02  0.75560584061E+02  0.00000000000E+00 0.  1.
         13    1    4    4    0    0 -0.65251437126E+02 -0.19731595483E+01  0.45347722714E+01  0.65438578569E+02  0.00000000000E+00 0. -1.
         21    1    1    2  503  501 -0.17959724351E+02  0.13083383657E+03 -0.17864710194E+03  0.22215947317E+03  0.00000000000E+00 0.  1.
         -1    1    1    2    0  502  0.58023032797E+02 -0.63439009441E+02 -0.55685310620E+02  0.10243063054E+03  0.00000000000E+00 0.  1.
<scales pt_clust_5="13000.00000" pt_clust_6="13000.00000" pt_clust_7="13000.00000" pt_clust_8="13000.00000" pt_clust_9="107.70254" pt_clust_10="85.97197"></scales>
<clustering>
<clus scale="   85.972">  1 10  2 -1</clus>
<clus scale="   87.692">  5  6 -1 -1</clus>
<clus scale="   90.251">  7  8 -1 -1</clus>
<clus scale="  109.457">  1  7  2 -1</clus>
<clus scale="  107.703">  1  9  2 -1</clus>
<clus scale="   85.972">  1  5  2 -1</clus>
</clustering>
</event>
<event>
10    2  0.3544405E-006  0.1672326E+03  0.7546771E-02  0.1181025E+00
          2   -1    0    0  503    0 -0.00000000000E+00  0.00000000000E+00  0.17626861484E+03  0.17626861484E+03  0.00000000000E+00 0. -1.
         21   -1    0    0  501  502  0.00000000000E+00 -0.00000000000E+00 -0.42344920553E+03  0.42344920553E+03  0.00000000000E+00 0. -1.
         23    2    1    2    0    0 -0.85191698655E+02 -0.13839133214E+03  0.13830441361E+02  0.18653465254E+03  0.90521318810E+02 0.  0.
         23    2    1    2    0    0  0.48253329818E+02  0.10898595101E+03 -0.10780176562E+03  0.18532729966E+03  0.92296619501E+02 0.  0.
        -13    1    4    4    0    0  0.20662626951E+02  0.77006387848E+02 -0.12000273082E+02  0.80628372648E+02  0.00000000000E+00 0. -1.
         13    1    4    4    0    0  0.27590702866E+02  0.31979563164E+02 -0.95801492533E+02  0.10469892701E+03  0.00000000000E+00 0.  1.
        -13    1    3    3    0    0 -0.88977988772E+02 -0.64476173106E+02  0.22030755322E+02  0.11206968174E+03  0.00000000000E+00 0.  1.
         13    1    3    3    0    0  0.37862901176E+01 -0.73915159035E+02 -0.82003139607E+01  0.74464970806E+02  0.00000000000E+00 0. -1.
         21    1    1    2  503  502  0.14233460925E+02  0.17174466347E+02  0.33020670710E+02  0.39848693809E+02  0.00000000000E+00 0.  1.
          2    1    1    2  501    0  0.22704907912E+02  0.12230914782E+02 -0.18622993715E+03  0.18800717436E+03  0.00000000000E+00 0. -1.
<scales pt_clust_5="13000.00000" pt_clust_6="13000.00000" pt_clust_7="13000.00000" pt_clust_8="13000.00000" pt_clust_9="22.30591" pt_clust_10="25.92114"></scales>
<clustering>
<clus scale="   22.306">  1  9  2 -1</clus>
<clus scale="   25.921">  2 10  1 -1</clus>
<clus scale="   90.521">  7  8 -1 -1</clus>
<clus scale="   92.297">  5  6 -1 -1</clus>
<clus scale="  166.259">  1  7  2 -1</clus>
<clus scale="   25.921">  2  5  1 -1</clus>
</clustering>
</event>
<event>
10    2  0.3544405E-006  0.1881681E+03  0.7546771E-02  0.1165533E+00
         21   -1    0    0  501  502  0.00000000000E+00  0.00000000000E+00  0.80318636302E+02  0.80318636302E+02  0.00000000000E+00 0.  1.
          4   -1    0    0  503    0 -0.00000000000E+00 -0.00000000000E+00 -0.11103507665E+04  0.11103507665E+04  0.00000000000E+00 0. -1.
         23    2    1    2    0    0 -0.10890973260E+03  0.73594686413E+02 -0.50697323816E+03  0.53170232140E+03  0.91695074285E+02 0.  0.
         23    2    1    2    0    0  0.14408931237E+03 -0.47327605956E+01 -0.31467331254E+03  0.36886199909E+03  0.12749804619E+03 0.  0.
        -11    1    3    3    0    0 -0.17946640534E+02 -0.20308474309E+02 -0.12722323978E+03  0.13007793347E+03  0.00000000000E+00 0. -1.
         11    1    3    3    0    0 -0.90963092070E+02  0.93903160722E+02 -0.37974999838E+03  0.40162438793E+03  0.00000000000E+00 0.  1.
        -13    1    4    4    0    0  0.90463535106E+02 -0.44072933844E+02 -0.27155329277E+03  0.28959845561E+03  0.00000000000E+00 0. -1.
         13    1    4    4    0    0  0.53625777268E+02  0.39340173248E+02 -0.43120019772E+02  0.79263543473E+02  0.00000000000E+00 0.  1.
         21    1    1    2  503  502 -0.52642188327E+02 -0.45393207428E+02 -0.23832026780E+03  0.24825046489E+03  0.00000000000E+00 0. -1.
          4    1    1    2  501    0  0.17462608557E+02 -0.23468718389E+02  0.29934688272E+02  0.41854617456E+02  0.00000000000E+00 0. -1.
<scales pt_clust_5="13000.00000" pt_clust_6="13000.00000" pt_clust_7="13000.00000" pt_clust_8="13000.00000" pt_clust_9="69.82177" pt_clust_10="29.25275"></scales>
<clustering>
<clus scale="   29.253">  1 10  2 -1</clus>
<clus scale="   69.822">  2  9  1 -1</clus>
<clus scale="   91.695">  5  6 -1 -1</clus>
<clus scale="  127.498">  7  8 -1 -1</clus>
<clus scale="  166.010">  2  5  1 -1</clus>
<clus scale="   29.253">  1  5  2 -1</clus>
</clustering>
</event>
<event>
10    2  0.3544405E-006  0.1573948E+03  0.7546771E-02  0.1208475E+00
         -1   -1    0    0    0  501 -0.00000000000E+00  0.00000000000E+00  0.17623600853E+03  0.17623600853E+03  0.00000000000E+00 0.  1.
         21   -1    0    0  503  502  0.00000000000E+00 -0.00000000000E+00 -0.46035578929E+03  0.46035578929E+03  0.00000000000E+00 0.  1.
         23    2    1    2    0    0  0.41870867469E+02  0.45916292300E+02 -0.15196844125E+03  0.18575521281E+03  0.86885651905E+02 0.  0.
         23    2    1    2    0    0  0.93931099707E+02  0.20072971054E+02  0.84535143358E+02  0.15756804481E+03  0.91953915763E+02 0.  0.
        -11    1    4    4    0    0  0.89103186965E+02 -0.12469349799E+02  0.86236168679E+02  0.12462559689E+03  0.00000000000E+00 0.  1.
         11    1    4    4    0    0  0.48279127424E+01  0.32542320853E+02 -0.17010253206E+01  0.32942447922E+02  0.00000000000E+00 0. -1.
        -13    1    3    3    0    0  0.63308873567E+02  0.21156119354E+02 -0.13054135144E+03  0.14661732263E+03  0.00000000000E+00 0.  1.
         13    1    3    3    0    0 -0.21438006099E+02  0.24760172945E+02 -0.21427089808E+02  0.39137890176E+02  0.00000000000E+00 0. -1.
         21    1    1    2  503  501 -0.47656296968E+02  0.37924700067E+02 -0.76273908049E+02  0.97606939123E+02  0.00000000000E+00 0. -1.
         -1    1    1    2    0  502 -0.88145670208E+02 -0.10391396342E+03 -0.14041257481E+03  0.19566160108E+03  0.00000000000E+00 0.  1.
<scales pt_clust_5="13000.00000" pt_clust_6="13000.00000" pt_clust_7="13000.00000" pt_clust_8="13000.00000" pt_clust_9="60.90489" pt_clust_10="127.74032"></scales>
<clustering>
<clus scale="   60.905">  2  9  1 -1</clus>
<clus scale="   86.886">  7  8 -1 -1</clus>
<clus scale="   91.954">  5  6 -1 -1</clus>
<clus scale="  109.267">  1  7  2 -1</clus>
<clus scale="  127.740">  2 10  1 -1</clus>
<clus scale="   60.905">  2  5  1 -1</clus>
</clustering>
</event>
<event>
10    2  0.3544405E-006  0.1125054E+03  0.7546771E-02  0.1257334E+00
         -3   -1    0    0    0  501 -0.00000000000E+00  0.00000000000E+00  0.58593142521E+03  0.58593142521E+03  0.00000000000E+00 0.  1.
         21   -1    0    0  503  502  0.00000000000E+00 -0.00000000000E+00 -0.54076563711E+02  0.54076563711E+02  0.00000000000E+00 0. -1.
         23    2    1    2    0    0  0.47471511671E+02  0.15173293205E+01  0.37164371225E+03  0.38587089151E+03  0.92311696735E+02 0.  0.
         23    2    1    2    0    0 -0.53529462448E+02 -0.21991141090E+02  0.10544915261E+03  0.15375403772E+03  0.95769341089E+02 0.  0.
        -13    1    3    3    0    0  0.72909347276E+02  0.10013446349E+02  0.31052885857E+03  0.31913040286E+03  0.00000000000E+00 0.  1.
         13    1    3    3    0    0 -0.25437835604E+02 -0.84961170283E+01  0.61114853682E+02  0.66740488651E+02  0.00000000000E+00 0. -1.
        -13    1    4    4    0    0 -0.33029286007E+01  0.26103548507E+02 -0.13096807660E+01  0.26344256409E+02  0.00000000000E+00 0.  1.
         13    1    4    4    0    0 -0.50226533847E+02 -0.48094689598E+02  0.10675883338E+03  0.12740978131E+03  0.00000000000E+00 0. -1.
         21    1    1    2  503  501  0.23913327402E+02 -0.18942602031E+02  0.47578433677E+02  0.56518817665E+02  0.00000000000E+00 0.  1.
         -3    1    1    2    0  502 -0.17855376626E+02  0.39416413801E+02  0.71835629612E+01  0.43864242022E+02  0.00000000000E+00 0.  1.
<scales pt_clust_5="13000.00000" pt_clust_6="13000.00000" pt_clust_7="13000.00000" pt_clust_8="13000.00000" pt_clust_9="30.50687" pt_clust_10="41.98068"></scales>
<clustering>
<clus scale="   30.507">  1  9  2 -1</clus>
<clus scale="   41.981">  2 10  1 -1</clus>
<clus scale="   92.312">  5  6 -1 -1</clus>
<clus scale="   95.769">  7  8 -1 -1</clus>
<clus scale="  109.577">  1  5  2 -1</clus>
<clus scale="   41.981">  2  5  1 -1</clus>
</clustering>
</event>
<event>
10    2  0.3544405E-006  0.1100420E+03  0.7546771E-02  0.1263136E+00
         -4   -1    0    0    0  501 -0.00000000000E+00  0.00000000000E+00  0.30713685906E+03  0.30713685906E+03  0.00000000000E+00 0. -1.
         21   -1    0    0  503  502  0.00000000000E+00 -0.00000000000E+00 -0.13659084516E+03  0.13659084516E+03  0.00000000000E+00 0. -1.
         23    2    1    2    0    0  0.82687903552E+02  0.11578457617E+00  0.15186234084E+03  0.19416097223E+03  0.88312002425E+02 0.  0.
         23    2    1    2    0    0 -0.41675437859E+02 -0.29064925655E+02  0.71440560663E+02  0.11955072494E+03  0.81283516795E+02 0.  0.
        -11    1    3    3    0    0  0.34593661051E+02  0.24725156514E+02  0.11931893847E+02  0.44163614439E+02  0.00000000000E+00 0. -1.
         11    1    3    3    0    0  0.48094242500E+02 -0.24609371938E+02  0.13993044699E+03  0.14999735779E+03  0.00000000000E+00 0.  1.
        -11    1    4    4    0    0  0.24740711990E+02 -0.10052270474E+02  0.17912720963E+02  0.32156127624E+02  0.00000000000E+00 0.  1.
         11    1    4    4    0    0 -0.66416149848E+02 -0.19012655181E+02  0.53527839700E+02  0.87394597319E+02  0.00000000000E+00 0. -1.
         21    1    1    2  503  501  0.24014417143E+02 -0.45575849065E+01  0.16330658401E+02  0.29396500041E+02  0.00000000000E+00 0. -1.
         -4    1    1    2    0  502 -0.65026882836E+02  0.33506725986E+02 -0.69087546003E+02  0.10061950701E+03  0.00000000000E+00 0. -1.
<scales pt_clust_5="13000.00000" pt_clust_6="13000.00000" pt_clust_7="13000.00000" pt_clust_8="13000.00000" pt_clust_9="24.44307" pt_clust_10="71.85320"></scales>
<clustering>
<clus scale="   24.443">  1  9  2 -1</clus>
<clus scale="   71.853">  2 10  1 -1</clus>
<clus scale="   81.284">  7  8 -1 -1</clus>
<clus scale="   88.312">  5  6 -1 -1</clus>
<clus scale="  104.486">  2  7  1 -1</clus>
<clus scale="   71.853">  2  5  1 -1</clus>
</clustering>
</event>
<event>
10    2  0.3544405E-006  0.9200942E+02  0.7546771E-02  0.1299431E+00
          1   -1    0    0  503    0 -0.00000000000E+00  0.00000000000E+00  0.13021588223E+03  0.13021588223E+03  0.00000000000E+00 0. -1.
         21   -1    0    0  501  502  0.00000000000E+00 -0.00000000000E+00 -0.20608473096E+03  0.20608473096E+03  0.00000000000E+00 0. -1.
         23    2    1    2    0    0 -0.35891593014E+02 -0.19374366166E+02  0.27683895496E+02  0.10347539475E+03  0.90979045579E+02 0.  0.
         23    2    1    2    0    0 -0.64293221654E+01 -0.18957442760E+02  0.52338377683E+01  0.91029857713E+02  0.88647172081E+02 0.  0.
        -11    1    4    4    0    0 -0.20229856660E+02  0.30305524660E+02 -0.97538452092E+01  0.37720146099E+02  0.00000000000E+00 0.  1.
         11    1    4    4    0    0  0.13800534495E+02 -0.49262967419E+02  0.14987682978E+02  0.53309711614E+02  0.00000000000E+00 0. -1.
        -13    1    3    3    0    0 -0.35269026486E+02  0.22006034185E+02 -0.14836856764E+02  0.44139575082E+02  0.00000000000E+00 0.  1.
         13    1    3    3    0    0 -0.62256652796E+00 -0.41380400351E+02  0.42520752261E+02  0.59335819663E+02  0.00000000000E+00 0. -1.
         21    1    1    2  503  502  0.22911913025E+02  0.88224783123E+01  0.28387316458E+01  0.24715385479E+02  0.00000000000E+00 0.  1.
          1    1    1    2  501    0  0.19409002154E+02  0.29509330613E+02 -0.11162531365E+03  0.11707997525E+03  0.00000000000E+00 0. -1.
<scales pt_clust_5="13000.00000" pt_clust_6="13000.00000" pt_clust_7="13000.00000" pt_clust_8="13000.00000" pt_clust_9="24.55182" pt_clust_10="35.78923"></scales>
<clustering>
<clus scale="   24.552">  1  9  2 -1</clus>
<clus scale="   35.789">  2 10  1 -1</clus>
<clus scale="   88.647">  5  6 -1 -1</clus>
<clus scale="   89.704">  2  5  1 -1</clus>
<clus scale="   90.979">  7  8 -1 -1</clus>
<clus scale="   35.789">  2  5  1 -1</clus>
</clustering>
</event>
<event>
10    2  0.3544405E-006  0.1386999E+03  0.7546771E-02  0.1233202E+00
          2   -1    0    0  503    0 -0.00000000000E+00  0.00000000000E+00  0.70995535038E+03  0.70995535038E+03  0.00000000000E+00 0. -1.
         21   -1    0    0  501  502  0.00000000000E+00 -0.00000000000E+00 -0.20998097247E+03  0.20998097247E+03  0.00000000000E+00 0. -1.
         23    2    1    2    0    0  0.18702892583E+02  0.20716081150E+02  0.41941813301E+03  0.43047730639E+03  0.92844961133E+02 0.  0.
         23    2    1    2    0    0  0.11910777650E+03 -0.39099024639E+02  0.12549029485E+03  0.20012185868E+03  0.92658232609E+02 0.  0.
        -11    1    4    4    0    0  0.71632651871E+02 -0.34153761235E+02  0.12986188457E+03  0.15219009588E+03  0.00000000000E+00 0. -1.
         11    1    4    4    0    0  0.47475124625E+02 -0.49452634043E+01 -0.43715897197E+01  0.47931762798E+02  0.00000000000E+00 0.  1.
        -11    1    3    3    0    0  0.55429915873E+02  0.23214233498E+02  0.26623956834E+03  0.27293750926E+03  0.00000000000E+00 0. -1.
         11    1    3    3    0    0 -0.36727023290E+02 -0.24981523481E+01  0.15317856468E+03  0.15753979713E+03  0.00000000000E+00 0.  1.
         21    1    1    2  503  502 -0.65230626584E+02  0.70370016718E+02  0.87341852923E+02  0.12975196788E+03  0.00000000000E+00 0. -1.
          2    1    1    2  501    0 -0.72580042495E+02 -0.51987073229E+02 -0.13227590288E+03  0.15958518990E+03  0.00000000000E+00 0. -1.
<scales pt_clust_5="13000.00000" pt_clust_6="13000.00000" pt_clust_7="13000.00000" pt_clust_8="13000.00000" pt_clust_9="103.20912" pt_clust_10="89.27776"></scales>
<clustering>
<clus scale="   89.278">  2 10  1 -1</clus>
<clus scale="   92.658">  5  6 -1 -1</clus>
<clus scale="   92.845">  7  8 -1 -1</clus>
<clus scale="   95.070">  1  7  2 -1</clus>
<clus scale="  103.209">  1  9  2 -1</clus>
<clus scale="   89.278">  2  5  1 -1</clus>
</clustering>
</event>
<event>
10    2  0.3544405E-006  0.9583092E+02  0.7546771E-02  0.1289865E+00
         21   -1    0    0  503  502  0.00000000000E+00  0.00000000000E+00  0.12939108662E+03  0.12939108662E+03  0.00000000000E+00 0. -1.
         -2   -1    0    0    0  501 -0.00000000000E+00 -0.00000000000E+00 -0.40764046567E+03  0.40764046567E+03  0.00000000000E+00 0.  1.
         23    2    1    2    0    0 -0.11626890295E+01 -0.14208845526E+01 -0.12078839272E+03  0.15099232218E+03  0.90584075760E+02 0.  0.
         23    2    1    2    0    0 -0.32695480393E+02  0.43779819430E+02  0.77557380493E+02  0.13045719226E+03  0.89544763748E+02 0.  0.
        -13    1    4    4    0    0 -0.24446412846E+02  0.70736189875E+02  0.44741133522E+02  0.87195210235E+02  0.00000000000E+00 0. -1.
         13    1    4    4    0    0 -0.82490675474E+01 -0.26956370446E+02  0.32816246971E+02  0.43261982020E+02  0.00000000000E+00 0.  1.
        -13    1    3    3    0    0 -0.66507597903E+01 -0.36439915873E+02 -0.15961245257E+02  0.40334370267E+02  0.00000000000E+00 0.  1.
         13    1    3    3    0    0  0.54880707608E+01  0.35019031321E+02 -0.10482714747E+03  0.11065795191E+03  0.00000000000E+00 0. -1.
         21    1    1    2  503  501  0.27349269548E+02 -0.22912180127E+02 -0.23214956639E+03  0.23487522585E+03  0.00000000000E+00 0.  1.
         -2    1    1    2    0  502  0.65088998750E+01 -0.19446754750E+02 -0.28688004280E+01  0.20706812014E+02  0.00000000000E+00 0.  1.
<scales pt_clust_5="13000.00000" pt_clust_6="13000.00000" pt_clust_7="13000.00000" pt_clust_8="13000.00000" pt_clust_9="35.87635" pt_clust_10="20.50712"></scales>
<clustering>
<clus scale="   20.507">  1 10  2 -1</clus>
<clus scale="   35.876">  2  9  1 -1</clus>
<clus scale="   89.545">  5  6 -1 -1</clus>
<clus scale="   90.584">  7  8 -1 -1</clus>
<clus scale="   94.849">  1  5  2 -1</clus>
<clus scale="   20.507">  1  5  2 -1</clus>
</clustering>
</event>
<event>
10    2  0.3544405E-006  0.1065517E+03  0.7546771E-02  0.1271253E+00
          1   -1    0    0  503    0 -0.00000000000E+00  0.00000000000E+00  0.33208272200E+03  0.33208272200E+03  0.00000000000E+00 0. -1.
         21   -1    0    0  501  502  0.00000000000E+00 -0.00000000000E+00 -0.11960315419E+03  0.11960315419E+03  0.00000000000E+00 0. -1.
         23    2    1    2    0    0  0.40516162409E+02  0.50928795989E+02  0.13553403669E+03  0.17602672489E+03  0.91545786874E+02 0.  0.
         23    2    1    2    0    0 -0.25608242242E+02  0.87801656134E+01  0.54285297183E+02  0.11726056202E+03  0.10035074756E+03 0.  0.
        -11    1    3    3    0    0  0.56880867289E+02  0.65678464572E+01  0.41312395472E+02  0.70606541413E+02  0.00000000000E+00 0.  1.
         11    1    3    3    0    0 -0.16364704880E+02  0.44360949531E+02  0.94221641221E+02  0.10542018347E+03  0.00000000000E+00 0. -1.
        -13    1    4    4    0    0 -0.20773335659E+02 -0.45036512789E+02  0.21479849423E+02  0.54048153436E+02  0.00000000000E+00 0.  1.
         13    1    4    4    0    0 -0.48349065829E+01  0.53816678403E+02  0.32805447761E+02  0.63212408582E+02  0.00000000000E+00 0. -1.
         21    1    1    2  503  502 -0.20882814049E+02 -0.31177953256E+02  0.83164392410E+02  0.91238549182E+02  0.00000000000E+00 0.  1.
          1    1    1    2  501    0  0.59748938818E+01 -0.28531008346E+02 -0.60504158476E+02  0.67160040106E+02  0.00000000000E+00 0. -1.
<scales pt_clust_5="13000.00000" pt_clust_6="13000.00000" pt_clust_7="13000.00000" pt_clust_8="13000.00000" pt_clust_9="39.02982" pt_clust_10="29.14992"></scales>
<clustering>
<clus scale="   29.150">  2 10  1 -1</clus>
<clus scale="   39.030">  1  9  2 -1</clus>
<clus scale="   91.546">  5  6 -1 -1</clus>
<clus scale="   98.304">  1  5  2 -1</clus>
<clus scale="  100.351">  7  8 -1 -1</clus>
<clus scale="   29.150">  2  5  1 -1</clus>
</clustering>
</event>
<event>
10    2  0.3761876E-006  0.1000884E+03  0.7546771E-02  0.1280326E+00
          1   -1    0    0  503    0 -0.00000000000E+00  0.00000000000E+00  0.65371487551E+03  0.65371487551E+03  0.00000000000E+00 0. -1.
         21   -1    0    0  501  502  0.00000000000E+00 -0.00000000000E+00 -0.48581456712E+02  0.48581456712E+02  0.00000000000E+00 0.  1.
         23    2    1    2    0    0 -0.43151397661E+02  0.34064521064E+01  0.39532309655E+03  0.40780875539E+03  0.90299408997E+02 0.  0.
         23    2    1    2    0    0  0.56258741664E+02  0.23919975421E+02  0.36200109458E+02  0.11525371769E+03  0.90751089686E+02 0.  0.
        -11    1    3    3    0    0 -0.67708296107E+02 -0.13954252295E+02  0.24846904417E+03  0.25790696080E+03  0.00000000000E+00 0. -1.
         11    1    3    3    0    0  0.24556898446E+02  0.17360704401E+02  0.14685405238E+03  0.14990179459E+03  0.00000000000E+00 0.  1.
        -13    1    4    4    0    0  0.24140719038E+02  0.45695976240E+02  0.52039156427E+02  0.73341464138E+02  0.00000000000E+00 0. -1.
         13    1    4    4    0    0  0.32118022627E+02 -0.21776000819E+02 -0.15839046969E+02  0.41912253554E+02  0.00000000000E+00 0.  1.
         21    1    1    2  503  502  0.83587984930E+01 -0.20053203296E+02  0.77519631288E+02  0.80506482408E+02  0.00000000000E+00 0. -1.
          1    1    1    2  501    0 -0.21466142496E+02 -0.72732242311E+01  0.96090581503E+02  0.98727376740E+02  0.00000000000E+00 0. -1.
<scales pt_clust_5="13000.00000" pt_clust_6="13000.00000" pt_clust_7="13000.00000" pt_clust_8="13000.00000" pt_clust_9="21.72557" pt_clust_10="22.71282"></scales>
<clustering>
<clus scale="   21.726">  1  9  2 -1</clus>
<clus scale="   22.713">  2 10  1 -1</clus>
<clus scale="   90.299">  5  6 -1 -1</clus>
<clus scale="   90.751">  7  8 -1 -1</clus>
<clus scale="   99.679">  1  5  2 -1</clus>
<clus scale="   22.713">  2  5  1 -1</clus>
</clustering>
</event>
<event>
10    2  0.3544405E-006  0.1373349E+03  0.7546771E-02  0.1217248E+00
          3   -1    0    0  503    0 -0.00000000000E+00  0.00000000000E+00  0.17271621123E+03  0.17271621123E+03  0.00000000000E+00 0. -1.
         21   -1    0    0  501  502  0.00000000000E+00 -0.00000000000E+00 -0.24472772829E+03  0.24472772829E+03  0.00000000000E+00 0. -1.
         23    2    1    2    0    0  0.94688364454E+02  0.47238806825E+02  0.54861990308E+02  0.14915669122E+03  0.89668775625E+02 0.  0.
         23    2    1    2    0    0 -0.10658688306E+03 -0.68005867499E+02 -0.96728917756E+02  0.18332923743E+03  0.90926146461E+02 0.  0.
        -13    1    4    4    0    0 -0.42487491367E+02  0.11638324689E+02 -0.60554865798E+02  0.74883438062E+02  0.00000000000E+00 0.  1.
         13    1    4    4    0    0 -0.64099391692E+02 -0.79644192188E+02 -0.36174051958E+02  0.10844579936E+03  0.00000000000E+00 0. -1.
        -13    1    3    3    0    0  0.66790459940E+02  0.53294413995E+02  0.75424823227E+02  0.11397440090E+03  0.00000000000E+00 0. -1.
         13    1    3    3    0    0  0.27897904514E+02 -0.60556071700E+01 -0.20562832918E+02  0.35182290319E+02  0.00000000000E+00 0.  1.
         21    1    1    2  503  502 -0.95556325662E+01 -0.23105789445E+02  0.40633295999E+01  0.25331763994E+02  0.00000000000E+00 0.  1.
          3    1    1    2  501    0  0.21454151171E+02  0.43872850119E+02 -0.34207919216E+02  0.59626246881E+02  0.00000000000E+00 0. -1.
<scales pt_clust_5="13000.00000" pt_clust_6="13000.00000" pt_clust_7="13000.00000" pt_clust_8="13000.00000" pt_clust_9="25.00375" pt_clust_10="46.83067"></scales>
<clustering>
<clus scale="   25.004">  1  9  2 -1</clus>
<clus scale="   46.831">  2 10  1 -1</clus>
<clus scale="   89.669">  7  8 -1 -1</clus>
<clus scale="   90.926">  5  6 -1 -1</clus>
<clus scale="  136.506">  1  7  2 -1</clus>
<clus scale="   46.831">  2  5  1 -1</clus>
</clustering>
</event>
<event>
10    2  0.3544405E-006  0.1097264E+03  0.7546771E-02  0.1261856E+00
         21   -1    0    0  503  502  0.00000000000E+00  0.00000000000E+00  0.39794800757E+03  0.39794800757E+03  0.00000000000E+00 0. -1.
         -1   -1    0    0    0  501 -0.00000000000E+00 -0.00000000000E+00 -0.28133904088E+03  0.28133904088E+03  0.00000000000E+00 0.  1.
         23    2    1    2    0    0 -0.74479876820E+02 -0.98617953836E+01 -0.14616010992E+03  0.18722700017E+03  0.89703203973E+02 0.  0.
         23    2    1    2    0    0  0.10975822813E+03  0.99717079159E+01  0.34304737656E+03  0.37180143615E+03  0.91697883081E+02 0.  0.
        -11    1    4    4    0    0  0.65865123836E+02 -0.26104095986E+02  0.10228558354E+03  0.12442660072E+03  0.00000000000E+00 0.  1.
         11    1    4    4    0    0  0.43893104293E+02  0.36075803902E+02  0.24076179301E+03  0.24737483543E+03  0.00000000000E+00 0. -1.
        -13    1    3    3    0    0 -0.40274179508E+02  0.39005274293E+02 -0.56990231794E+02  0.79945653275E+02  0.00000000000E+00 0.  1.
         13    1    3    3    0    0 -0.34205697312E+02 -0.48867069677E+02 -0.89169878126E+02  0.10728134690E+03  0.00000000000E+00 0. -1.
         21    1    1    2  503  501  0.26692381774E+02 -0.15233022127E+01 -0.31935443522E+02  0.41649444743E+02  0.00000000000E+00 0. -1.
         -1    1    1    2    0  502 -0.61970733082E+02  0.14133896805E+01 -0.48342856427E+02  0.78609167383E+02  0.00000000000E+00 0.  1.
<scales pt_clust_5="13000.00000" pt_clust_6="13000.00000" pt_clust_7="13000.00000" pt_clust_8="13000.00000" pt_clust_9="26.73581" pt_clust_10="55.05174"></scales>
<clustering>
<clus scale="   26.736">  2  9  1 -1</clus>
<clus scale="   55.052">  1 10  2 -1</clus>
<clus scale="   89.703">  7  8 -1 -1</clus>
<clus scale="   91.698">  5  6 -1 -1</clus>
<clus scale="  108.065">  2  7  1 -1</clus>
<clus scale="   55.052">  1  5  2 -1</clus>
</clustering>
</event>
<event>
10    2  0.3544405E-006  0.2222417E+03  0.7546771E-02  0.1132359E+00
          2   -1    0    0  503    0 -0.00000000000E+00  0.00000000000E+00  0.67986869655E+03  0.67986869655E+03  0.00000000000E+00 0. -1.
         21   -1    0    0  501  502  0.00000000000E+00 -0.00000000000E+00 -0.15775649280E+03  0.15775649280E+03  0.00000000000E+00 0.  1.
         23    2    1    2    0    0  0.19383836117E+03  0.79616686886E+02  0.37137841067E+03  0.43707166871E+03  0.95904080105E+02 0.  0.
         23    2    1    2    0    0 -0.17050560654E+03 -0.81612196582E+02  0.17346981513E+03  0.27330299442E+03  0.94180876516E+02 0.  0.
        -11    1    3    3    0    0  0.99047863072E+02 -0.85323334452E+01  0.18713177563E+03  0.21189993238E+03  0.00000000000E+00 0. -1.
         11    1    3    3    0    0  0.94790498098E+02  0.88149020331E+02  0.18424663504E+03  0.22517173632E+03  0.00000000000E+00 0.  1.
        -11    1    4    4    0    0 -0.14703683265E+03 -0.34861112546E+02  0.15827693130E+03  0.21883033223E+03  0.00000000000E+00 0.  1.
         11    1    4    4    0    0 -0.23468773898E+02 -0.46751084036E+02  0.15192883839E+02  0.54472662191E+02  0.00000000000E+00 0. -1.
         21    1    1    2  503  502 -0.13104864422E+02  0.20896077845E+02  0.47650750223E+02  0.53656104384E+02  0.00000000000E+00 0. -1.
          2    1    1    2  501    0 -0.10227890204E+02 -0.18900568149E+02 -0.70386772278E+02  0.73594421841E+02  0.00000000000E+00 0. -1.
<scales pt_clust_5="13000.00000" pt_clust_6="13000.00000" pt_clust_7="13000.00000" pt_clust_8="13000.00000" pt_clust_9="24.30392" pt_clust_10="21.49049"></scales>
<clustering>
<clus scale="   21.490">  2 10  1 -1</clus>
<clus scale="   24.304">  1  9  2 -1</clus>
<clus scale="   94.181">  7  8 -1 -1</clus>
<clus scale="   95.904">  5  6 -1 -1</clus>
<clus scale="  221.504">  2  7  1 -1</clus>
<clus scale="   21.490">  2  5  1 -1</clus>
</clustering>
</event>
<event>
10    2  0.3544405E-006  0.1057963E+03  0.7546771E-02  0.1268902E+00
         -3   -1    0    0    0  501 -0.00000000000E+00  0.00000000000E+00  0.57825404982E+03  0.57825404982E+03  0.00000000000E+00 0.  1.
         21   -1    0    0  503  502  0.00000000000E+00 -0.00000000000E+00 -0.57900377360E+02  0.57900377360E+02  0.00000000000E+00 0.  1.
         23    2    1    2    0    0  0.47332229832E+02  0.26835351713E+02  0.25759445633E+03  0.27865114533E+03  0.91274754342E+02 0.  0.
         23    2    1    2    0    0 -0.47987606444E+02 -0.44859842750E+02  0.15547765351E+03  0.19226992368E+03  0.92082609365E+02 0.  0.
        -11    1    4    4    0    0  0.37274204623E+01 -0.58396555163E+02  0.67581077518E+02  0.89393810505E+02  0.00000000000E+00 0.  1.
         11    1    4    4    0    0 -0.51715026906E+02  0.13536712413E+02  0.87896575992E+02  0.10287611317E+03  0.00000000000E+00 0. -1.
        -11    1    3    3    0    0 -0.54812237356E+01  0.39228914420E+02  0.17782695281E+03  0.18218500675E+03  0.00000000000E+00 0. -1.
         11    1    3    3    0    0  0.52813453567E+02 -0.12393562707E+02  0.79767503522E+02  0.96466138579E+02  0.00000000000E+00 0.  1.
         21    1    1    2  503  501 -0.15070866469E+02 -0.15956992899E+02  0.12276693243E+03  0.12471357720E+03  0.00000000000E+00 0.  1.
         -3    1    1    2    0  502  0.15726243081E+02  0.33981483936E+02 -0.15485369810E+02  0.40519780973E+02  0.00000000000E+00 0.  1.
<scales pt_clust_5="13000.00000" pt_clust_6="13000.00000" pt_clust_7="13000.00000" pt_clust_8="13000.00000" pt_clust_9="21.94896" pt_clust_10="36.87141"></scales>
<clustering>
<clus scale="   21.949">  1  9  2 -1</clus>
<clus scale="   36.871">  2 10  1 -1</clus>
<clus scale="   91.275">  7  8 -1 -1</clus>
<clus scale="   92.083">  5  6 -1 -1</clus>
<clus scale="  105.094">  1  7  2 -1</clus>
<clus scale="   36.871">  2  5  1 -1</clus>
</clustering>
</event>
<event>
10    2  0.3544405E-006  0.1792114E+03  0.7546771E-02  0.1168889E+00
         21   -1    0    0  501  502  0.00000000000E+00  0.00000000000E+00  0.30015599264E+03  0.30015599264E+03  0.00000000000E+00 0. -1.
          2   -1    0    0  503    0 -0.00000000000E+00 -0.00000000000E+00 -0.90928514846E+03  0.90928514846E+03  0.00000000000E+00 0. -1.
         23    2    1    2    0    0  0.94672583492E+02 -0.10393953672E+03 -0.75370729144E+03  0.77219732079E+03  0.91911347036E+02 0.  0.
         23    2    1    2    0    0 -0.14454033487E+03  0.20152695979E+02  0.20692718957E+03  0.26850768784E+03  0.89327918834E+02 0.  0.
        -11    1    4    4    0    0 -0.65318618157E+02  0.52405851282E+02  0.82820042824E+02  0.11777968679E+03  0.00000000000E+00 0. -1.
         11    1    4    4    0    0 -0.79221716711E+02 -0.32253155303E+02  0.12410714675E+03  0.15072800105E+03  0.00000000000E+00 0.  1.
        -13    1    3    3    0    0  0.86884661318E+02 -0.33986551317E+02 -0.51283198446E+03  0.52124914804E+03  0.00000000000E+00 0. -1.
         13    1    3    3    0    0  0.77879221745E+01 -0.69952985399E+02 -0.24087530697E+03  0.25094817275E+03  0.00000000000E+00 0.  1.
         21    1    1    2  503  502  0.32256800791E+02  0.12003231071E+02 -0.84776063103E+02  0.91496227401E+02  0.00000000000E+00 0. -1.
          2    1    1    2  501    0  0.17610950585E+02  0.71783609666E+02  0.22427009139E+02  0.77239905076E+02  0.00000000000E+00 0. -1.
<scales pt_clust_5="13000.00000" pt_clust_6="13000.00000" pt_clust_7="13000.00000" pt_clust_8="13000.00000" pt_clust_9="34.41771" pt_clust_10="74.56398"></scales>
<clustering>
<clus scale="   34.418">  2  9  1 -1</clus>
<clus scale="   74.564">  1 10  2 -1</clus>
<clus scale="   89.328">  5  6 -1 -1</clus>
<clus scale="   91.911">  7  8 -1 -1</clus>
<clus scale="  177.900">  1  5  2 -1</clus>
<clus scale="   74.564">  1  5  2 -1</clus>
</clustering>
</event>
<event>
10    2  0.3544405E-006  0.9391561E+02  0.7546771E-02  0.1296082E+00
         21   -1    0    0  503  502  0.00000000000E+00  0.00000000000E+00  0.19897607720E+03  0.19897607720E+03  0.00000000000E+00 0. -1.
         -3   -1    0    0    0  501 -0.00000000000E+00 -0.00000000000E+00 -0.13287390059E+03  0.13287390059E+03  0.00000000000E+00 0.  1.
         23    2    1    2    0    0 -0.61190346843E+01  0.28234929039E+01 -0.29337493395E+02  0.90444115580E+02  0.85287952412E+02 0.  0.
         23    2    1    2    0    0 -0.59715216155E+02  0.29091352144E+02  0.10091827925E+03  0.15045610220E+03  0.89667863764E+02 0.  0.
        -11    1    4    4    0    0  0.16163050779E+02  0.17494122350E+02  0.57569849983E+02  0.62302296542E+02  0.00000000000E+00 0.  1.
         11    1    4    4    0    0 -0.75878266934E+02  0.11597229794E+02  0.43348429267E+02  0.88153805656E+02  0.00000000000E+00 0. -1.
        -11    1    3    3    0    0  0.40645962259E+00 -0.39426011273E+02 -0.15542812954E+01  0.39458729892E+02  0.00000000000E+00 0.  1.
         11    1    3    3    0    0 -0.65254943069E+01  0.42249504177E+02 -0.27783212100E+02  0.50985385688E+02  0.00000000000E+00 0. -1.
         21    1    1    2  503  501  0.25493769765E+02 -0.33055257509E+02 -0.22183419482E+02  0.47272470273E+02  0.00000000000E+00 0.  1.
         -3    1    1    2    0  502  0.40340481074E+02  0.11404124614E+01  0.16704810244E+02  0.43677289742E+02  0.00000000000E+00 0.  1.
<scales pt_clust_5="13000.00000" pt_clust_6="13000.00000" pt_clust_7="13000.00000" pt_clust_8="13000.00000" pt_clust_9="43.57576" pt_clust_10="40.35660"></scales>
<clustering>
<clus scale="   40.357">  1 10  2 -1</clus>
<clus scale="   43.576">  2  9  1 -1</clus>
<clus scale="   85.288">  7  8 -1 -1</clus>
<clus scale="   89.668">  5  6 -1 -1</clus>
<clus scale="   89.743">  2  7  1 -1</clus>
<clus scale="   40.357">  1  5  2 -1</clus>
</clustering>
</event>
<event>
10    2  0.3544405E-006  0.2083951E+03  0.7546771E-02  0.1142849E+00
         21   -1    0    0  501  502  0.00000000000E+00  0.00000000000E+00  0.10138968126E+03  0.10138968126E+03  0.00000000000E+00 0.  1.
          2   -1    0    0  503    0 -0.00000000000E+00 -0.00000000000E+00 -0.65055891420E+03  0.65055891420E+03  0.00000000000E+00 0. -1.
         23    2    1    2    0    0  0.10697308227E+03  0.16994391001E+03 -0.22815493853E+03  0.31745359969E+03  0.91640270098E+02 0.  0.
         23    2    1    2    0    0 -0.10716860699E+03 -0.13864120978E+03 -0.18901529706E+03  0.27357673194E+03  0.91711233578E+02 0.  0.
        -11    1    3    3    0    0  0.34103862891E+02 -0.18165763436E+01 -0.35262809184E+02  0.49090112296E+02  0.00000000000E+00 0. -1.
         11    1    3    3    0    0  0.72869219378E+02  0.17176048635E+03 -0.19289212934E+03  0.26836348739E+03  0.00000000000E+00 0.  1.
        -13    1    4    4    0    0 -0.33086696587E+02 -0.37455885192E+02 -0.40950720243E+01  0.50144216431E+02  0.00000000000E+00 0.  1.
         13    1    4    4    0    0 -0.74081910400E+02 -0.10118532459E+03 -0.18492022503E+03  0.22343251551E+03  0.00000000000E+00 0. -1.
         21    1    1    2  503  502 -0.20947923739E+02 -0.10878468965E+02 -0.12925578897E+03  0.13139336200E+03  0.00000000000E+00 0.  1.
          2    1    1    2  501    0  0.21143448457E+02 -0.20424231255E+02 -0.27432083854E+01  0.29524901817E+02  0.00000000000E+00 0. -1.
<scales pt_clust_5="13000.00000" pt_clust_6="13000.00000" pt_clust_7="13000.00000" pt_clust_8="13000.00000" pt_clust_9="23.60416" pt_clust_10="29.17258"></scales>
<clustering>
<clus scale="   23.604">  2  9  1 -1</clus>
<clus scale="   29.173">  1 10  2 -1</clus>
<clus scale="   91.640">  5  6 -1 -1</clus>
<clus scale="   91.711">  7  8 -1 -1</clus>
<clus scale="  208.364">  2  5  1 -1</clus>
<clus scale="   29.173">  1  5  2 -1</clus>
</clustering>
</event>
<event>
10    2  0.3544405E-006  0.2523115E+03  0.7546771E-02  0.1131460E+00
         21   -1    0    0  501  502  0.00000000000E+00  0.00000000000E+00  0.47204495534E+03  0.47204495534E+03  0.00000000000E+00 0. -1.
          1   -1    0    0  503    0 -0.00000000000E+00 -0.00000000000E+00 -0.51023151413E+03  0.51023151413E+03  0.00000000000E+00 0. -1.
         23    2    1    2    0    0 -0.93354068296E+02 -0.29915603948E+02 -0.18029702478E+03  0.22449046636E+03  0.90989158242E+02 0.  0.
         23    2    1    2    0    0 -0.19347430971E+03  0.10398922122E+03  0.24572954275E+03  0.34156149427E+03  0.89639162972E+02 0.  0.
        -11    1    4    4    0    0 -0.91457452842E+02  0.91581650678E+02  0.17117159599E+03  0.21459585200E+03  0.00000000000E+00 0.  1.
         11    1    4    4    0    0 -0.10201685686E+03  0.12407570545E+02  0.74557946759E+02  0.12696564227E+03  0.00000000000E+00 0. -1.
        -13    1    3    3    0    0 -0.70122193082E+02 -0.61685665151E+02 -0.13882003648E+03  0.16731182198E+03  0.00000000000E+00 0.  1.
         13    1    3    3    0    0 -0.23231875215E+02  0.31770061202E+02 -0.41476988299E+02  0.57178644380E+02  0.00000000000E+00 0. -1.
         21    1    1    2  503  502 -0.44275278974E+02 -0.56168755392E+02 -0.19612895376E+02  0.74161277467E+02  0.00000000000E+00 0.  1.
          1    1    1    2  501    0  0.33110365698E+03 -0.17904861883E+02 -0.84006181387E+02  0.34206323137E+03  0.00000000000E+00 0. -1.
<scales pt_clust_5="13000.00000" pt_clust_6="13000.00000" pt_clust_7="13000.00000" pt_clust_8="13000.00000" pt_clust_9="71.52083" pt_clust_10="235.85156"></scales>
<clustering>
<clus scale="   71.521">  2  9  1 -1</clus>
<clus scale="   89.639">  5  6 -1 -1</clus>
<clus scale="   90.989">  7  8 -1 -1</clus>
<clus scale="  154.738">  2  7  1 -1</clus>
<clus scale="  235.852">  1 10  2 -1</clus>
<clus scale="  235.852">  1  5  2 -1</clus>
</clustering>
</event>
<event>
10    2  0.3544405E-006  0.1490764E+03  0.7546771E-02  0.1214304E+00
         21   -1    0    0  503  502  0.00000000000E+00  0.00000000000E+00  0.51082187306E+03  0.51082187306E+03  0.00000000000E+00 0.  1.
         -1   -1    0    0    0  501 -0.00000000000E+00 -0.00000000000E+00 -0.27865208980E+03  0.27865208980E+03  0.00000000000E+00 0.  1.
         23    2    1    2    0    0  0.48596830475E+02 -0.32773683161E+02 -0.89696798385E+02  0.14210908556E+03  0.93347256620E+02 0.  0.
         23    2    1    2    0    0 -0.17261691494E+03 -0.17160534711E+02 -0.43375626968E+02  0.20164792195E+03  0.93216715986E+02 0.  0.
        -11    1    4    4    0    0 -0.14702800392E+03 -0.42244481383E+02 -0.11027152847E+02  0.15337349264E+03  0.00000000000E+00 0. -1.
         11    1    4    4    0    0 -0.25588911016E+02  0.25083946672E+02 -0.32348474121E+02  0.48274429314E+02  0.00000000000E+00 0.  1.
        -11    1    3    3    0    0 -0.24570069339E+02 -0.19305935171E+02 -0.46675664868E+02  0.56169610387E+02  0.00000000000E+00 0. -1.
         11    1    3    3    0    0  0.73166899813E+02 -0.13467747990E+02 -0.43021133517E+02  0.85939475175E+02  0.00000000000E+00 0.  1.
         21    1    1    2  503  501  0.19302466725E+02  0.73297199484E+01 -0.28992208838E+02  0.35592951402E+02  0.00000000000E+00 0.  1.
         -1    1    1    2    0  502  0.10471761774E+03  0.42604497924E+02  0.39423441745E+03  0.41012400395E+03  0.00000000000E+00 0.  1.
<scales pt_clust_5="13000.00000" pt_clust_6="13000.00000" pt_clust_7="13000.00000" pt_clust_8="13000.00000" pt_clust_9="20.64728" pt_clust_10="116.33751"></scales>
<clustering>
<clus scale="   20.647">  2  9  1 -1</clus>
<clus scale="   93.217">  5  6 -1 -1</clus>
<clus scale="   93.347">  7  8 -1 -1</clus>
<clus scale="  113.580">  2  7  1 -1</clus>
<clus scale="  116.338">  1 10  2 -1</clus>
<clus scale="  116.338">  1  5  2 -1</clus>
</clustering>
</event>
<event>
10    2  0.3544405E-006  0.1364890E+03  0.7546771E-02  0.1237002E+00
         21   -1    0    0  501  502  0.00000000000E+00  0.00000000000E+00  0.38316986077E+02  0.38316986077E+02  0.00000000000E+00 0. -1.
          2   -1    0    0  503    0 -0.00000000000E+00 -0.00000000000E+00 -0.12238602849E+04  0.12238602849E+04  0.00000000000E+00 0. -1.
         23    2    1    2    0    0  0.12743844486E+02  0.40469090404E+02 -0.37924601696E+03  0.39156623637E+03  0.87729260967E+02 0.  0.
         23    2    1    2    0    0  0.79373116188E+02 -0.42371566889E+02 -0.17224395279E+03  0.21674991316E+03  0.96005751550E+02 0.  0.
        -11    1    3    3    0    0  0.16808148234E+02  0.63127690197E+02 -0.33868712060E+03  0.34492982588E+03  0.00000000000E+00 0. -1.
         11    1    3    3    0    0 -0.40643037479E+01 -0.22658599792E+02 -0.40558896358E+02  0.46636410489E+02  0.00000000000E+00 0.  1.
        -11    1    4    4    0    0  0.69667414301E+02  0.16757354718E+02 -0.94470147673E+02  0.11857051216E+03  0.00000000000E+00 0. -1.
         11    1    4    4    0    0  0.97057018876E+01 -0.59128921607E+02 -0.77773805114E+02  0.98179401004E+02  0.00000000000E+00 0.  1.
         21    1    1    2  503  502  0.95798572070E+01 -0.42541804912E+02 -0.26210231489E+03  0.26570510402E+03  0.00000000000E+00 0. -1.
          2    1    1    2  501    0 -0.10169681788E+03  0.44444281398E+02 -0.37195101420E+03  0.38815601745E+03  0.00000000000E+00 0. -1.
<scales pt_clust_5="13000.00000" pt_clust_6="13000.00000" pt_clust_7="13000.00000" pt_clust_8="13000.00000" pt_clust_9="43.60710" pt_clust_10="97.01629"></scales>
<clustering>
<clus scale="   43.607">  2  9  1 -1</clus>
<clus scale="   87.729">  5  6 -1 -1</clus>
<clus scale="   92.297">  2  5  1 -1</clus>
<clus scale="   96.006">  7  8 -1 -1</clus>
<clus scale="   97.016">  1 10  2 -1</clus>
<clus scale="   97.016">  1  5  2 -1</clus>
</clustering>
</event>
<event>
10    2  0.3544405E-006  0.1025415E+03  0.7546771E-02  0.1277591E+00
         -3   -1    0    0    0  501 -0.00000000000E+00  0.00000000000E+00  0.27656293804E+03  0.27656293804E+03  0.00000000000E+00 0.  1.
         21   -1    0    0  503  502  0.00000000000E+00 -0.00000000000E+00 -0.14145329751E+03  0.14145329751E+03  0.00000000000E+00 0. -1.
         23    2    1    2    0    0 -0.86526205880E+02 -0.18703889443E+02  0.10906030058E+03  0.16387246351E+03  0.84400327910E+02 0.  0.
         23    2    1    2    0    0  0.24821543186E+02 -0.35659156775E+02 -0.42130180233E+01  0.10003568883E+03  0.90009472003E+02 0.  0.
        -11    1    4    4    0    0 -0.93567177275E+01 -0.55563244278E+02  0.11447287131E+02  0.57496631762E+02  0.00000000000E+00 0.  1.
         11    1    4    4    0    0  0.34178260914E+02  0.19904087503E+02 -0.15660305154E+02  0.42539057065E+02  0.00000000000E+00 0. -1.
        -11    1    3    3    0    0 -0.13986743224E+02  0.28826381505E+02  0.48378464642E+02  0.58026417241E+02  0.00000000000E+00 0. -1.
         11    1    3    3    0    0 -0.72539462656E+02 -0.47530270948E+02  0.60681835935E+02  0.10584604627E+03  0.00000000000E+00 0.  1.
         21    1    1    2  503  501  0.45939409551E+02  0.30371422201E+02  0.79737808870E+02  0.96907021417E+02  0.00000000000E+00 0. -1.
         -3    1    1    2    0  502  0.15765253143E+02  0.23991624017E+02 -0.49475450891E+02  0.57201061795E+02  0.00000000000E+00 0.  1.
<scales pt_clust_5="13000.00000" pt_clust_6="13000.00000" pt_clust_7="13000.00000" pt_clust_8="13000.00000" pt_clust_9="57.65218" pt_clust_10="28.70786"></scales>
<clustering>
<clus scale="   28.708">  2 10  1 -1</clus>
<clus scale="   57.652">  1  9  2 -1</clus>
<clus scale="   84.400">  7  8 -1 -1</clus>
<clus scale="   90.009">  5  6 -1 -1</clus>
<clus scale="   97.655">  1  7  2 -1</clus>
<clus scale="   28.708">  2  5  1 -1</clus>
</clustering>
</event>
<event>
10    2  0.3544405E-006  0.1786220E+03  0.7546771E-02  0.1169212E+00
          1   -1    0    0  503    0 -0.00000000000E+00  0.00000000000E+00  0.12035171188E+04  0.12035171188E+04  0.00000000000E+00 0. -1.
         21   -1    0    0  501  502  0.00000000000E+00 -0.00000000000E+00 -0.52282208205E+02  0.52282208205E+02  0.00000000000E+00 0. -1.
         23    2    1    2    0    0  0.29856016331E+02 -0.13952253809E+03  0.60686637012E+03  0.63004956166E+03  0.91201637195E+02 0.  0.
         23    2    1    2    0    0 -0.95615753992E+02  0.15766768447E+03  0.31076279853E+03  0.37281842853E+03  0.91752888597E+02 0.  0.
        -11    1    3    3    0    0 -0.27228621133E+02 -0.22430782956E+02  0.82137394069E+02  0.89392893102E+02  0.00000000000E+00 0.  1.
         11    1    3    3    0    0  0.57084637464E+02 -0.11709175514E+03  0.52472897605E+03  0.54065666856E+03  0.00000000000E+00 0. -1.
        -13    1    4    4    0    0 -0.84318884020E+02  0.50746377908E+02  0.15185445776E+03  0.18095481594E+03  0.00000000000E+00 0.  1.
         13    1    4    4    0    0 -0.11296869972E+02  0.10692130656E+03  0.15890834077E+03  0.19186361258E+03  0.00000000000E+00 0. -1.
         21    1    1    2  503  502  0.23112090209E+02  0.64055239222E+01  0.17396347726E+03  0.17560891455E+03  0.00000000000E+00 0. -1.
          1    1    1    2  501    0  0.42647647452E+02 -0.24550670296E+02  0.59642264658E+02  0.77322422225E+02  0.00000000000E+00 0. -1.
<scales pt_clust_5="13000.00000" pt_clust_6="13000.00000" pt_clust_7="13000.00000" pt_clust_8="13000.00000" pt_clust_9="23.98332" pt_clust_10="50.34284"></scales>
<clustering>
<clus scale="   23.983">  1  9  2 -1</clus>
<clus scale="   50.343">  2 10  1 -1</clus>
<clus scale="   91.202">  5  6 -1 -1</clus>
<clus scale="   91.753">  7  8 -1 -1</clus>
<clus scale="  178.339">  1  5  2 -1</clus>
<clus scale="   50.343">  2  5  1 -1</clus>
</clustering>
</event>
<event>
10    2  0.3544405E-006  0.1081038E+03  0.7546771E-02  0.1264963E+00
         21   -1    0    0  503  502  0.00000000000E+00  0.00000000000E+00  0.17783241182E+03  0.17783241182E+03  0.00000000000E+00 0. -1.
         -3   -1    0    0    0  501 -0.00000000000E+00 -0.00000000000E+00 -0.31879627288E+03  0.31879627288E+03  0.00000000000E+00 0.  1.
         23    2    1    2    0    0 -0.12559311667E+02  0.93656457945E+01 -0.18525352326E+03  0.20768672451E+03  0.92571356404E+02 0.  0.
         23    2    1    2    0    0  0.32870966361E+02  0.51212173198E+02  0.54608303753E+02  0.12502795236E+03  0.94587181583E+02 0.  0.
        -11    1    4    4    0    0  0.36262500356E+02 -0.14486967155E+02 -0.73845148125E+00  0.39056196180E+02  0.00000000000E+00 0.  1.
         11    1    4    4    0    0 -0.33915339954E+01  0.65699140353E+02  0.55346755234E+02  0.85971756181E+02  0.00000000000E+00 0. -1.
        -13    1    3    3    0    0  0.35810119941E+02 -0.84209747956E+01 -0.44156212882E+02  0.57472155369E+02  0.00000000000E+00 0.  1.
         13    1    3    3    0    0 -0.48369431608E+02  0.17786620590E+02 -0.14109731038E+03  0.15021456914E+03  0.00000000000E+00 0. -1.
         21    1    1    2  503  501 -0.36654368341E+02 -0.48175914289E+02 -0.74812332195E+02  0.96235889794E+02  0.00000000000E+00 0.  1.
         -3    1    1    2    0  502  0.16342713647E+02 -0.12401904703E+02  0.64493690641E+02  0.67678118045E+02  0.00000000000E+00 0.  1.
<scales pt_clust_5="13000.00000" pt_clust_6="13000.00000" pt_clust_7="13000.00000" pt_clust_8="13000.00000" pt_clust_9="60.56426" pt_clust_10="20.51564"></scales>
<clustering>
<clus scale="   20.516">  1 10  2 -1</clus>
<clus scale="   60.564">  2  9  1 -1</clus>
<clus scale="   92.571">  7  8 -1 -1</clus>
<clus scale="   94.587">  5  6 -1 -1</clus>
<clus scale="  106.344">  2  7  1 -1</clus>
<clus scale="   20.516">  1  5  2 -1</clus>
</clustering>
</event>
<event>
10    2  0.3544405E-006  0.1100119E+03  0.7546771E-02  0.1262051E+00
         21   -1    0    0  503  502  0.00000000000E+00  0.00000000000E+00  0.36336296214E+03  0.36336296214E+03  0.00000000000E+00 0. -1.
         -3   -1    0    0    0  501 -0.00000000000E+00 -0.00000000000E+00 -0.85180559045E+02  0.85180559045E+02  0.00000000000E+00 0.  1.
         23    2    1    2    0    0 -0.53004132305E+02 -0.96741878556E+01  0.59511978028E+02  0.12414654018E+03  0.94697729421E+02 0.  0.
         23    2    1    2    0    0  0.51958121637E+02 -0.28442677126E+02  0.11194414340E+03  0.15593148686E+03  0.90964306556E+02 0.  0.
        -11    1    3    3    0    0 -0.21375968202E+02 -0.27391307790E+02 -0.17592359247E+02  0.38944920887E+02  0.00000000000E+00 0.  1.
         11    1    3    3    0    0 -0.31628164102E+02  0.17717119934E+02  0.77104337275E+02  0.85201619291E+02  0.00000000000E+00 0. -1.
        -13    1    4    4    0    0  0.69886532881E+02 -0.45033720649E+02  0.77164270153E+02  0.11343054290E+03  0.00000000000E+00 0.  1.
         13    1    4    4    0    0 -0.17928411243E+02  0.16591043523E+02  0.34779873245E+02  0.42500943964E+02  0.00000000000E+00 0. -1.
         21    1    1    2  503  501 -0.16820422636E+02  0.29040355057E+02 -0.20728169528E+02  0.39445225965E+02  0.00000000000E+00 0. -1.
         -3    1    1    2    0  502  0.17866433303E+02  0.90765099247E+01  0.12745445120E+03  0.12902026818E+03  0.00000000000E+00 0.  1.
<scales pt_clust_5="13000.00000" pt_clust_6="13000.00000" pt_clust_7="13000.00000" pt_clust_8="13000.00000" pt_clust_9="33.52558" pt_clust_10="20.03977"></scales>
<clustering>
<clus scale="   20.040">  1 10  2 -1</clus>
<clus scale="   33.526">  2  9  1 -1</clus>
<clus scale="   90.964">  7  8 -1 -1</clus>
<clus scale="   94.698">  5  6 -1 -1</clus>
<clus scale="  106.815">  1  7  2 -1</clus>
<clus scale="   20.040">  1  5  2 -1</clus>
</clustering>
</event>
<event>
10    2  0.3544405E-006  0.1228374E+03  0.7546771E-02  0.1238808E+00
          1   -1    0    0  503    0 -0.00000000000E+00  0.00000000000E+00  0.82590351084E+03  0.82590351084E+03  0.00000000000E+00 0. -1.
         21   -1    0    0  501  502  0.00000000000E+00 -0.00000000000E+00 -0.16623247180E+03  0.16623247180E+03  0.00000000000E+00 0.  1.
         23    2    1    2    0    0 -0.92391990945E+02 -0.13098417414E+02  0.26833891798E+03  0.29833030851E+03  0.91034880926E+02 0.  0.
         23    2    1    2    0    0  0.11552558295E+03  0.57322523122E+02  0.94268769984E+02  0.18439385246E+03  0.92100270664E+02 0.  0.
        -11    1    3    3    0    0  0.92936555900E+00 -0.27472200945E+02  0.24401034053E+02  0.36755897595E+02  0.00000000000E+00 0.  1.
         11    1    3    3    0    0 -0.93321356504E+02  0.14373783531E+02  0.24393788392E+03  0.26157441091E+03  0.00000000000E+00 0. -1.
        -11    1    4    4    0    0  0.71639204629E+02 -0.14231509298E+02  0.56531038679E+02  0.92360542608E+02  0.00000000000E+00 0. -1.
         11    1    4    4    0    0  0.43886378322E+02  0.71554032419E+02  0.37737731306E+02  0.92033309849E+02  0.00000000000E+00 0.  1.
         21    1    1    2  503  502  0.78118986910E+02 -0.53390356212E+02  0.37153049180E+03  0.38339015714E+03  0.00000000000E+00 0.  1.
          1    1    1    2  501    0 -0.10125257892E+03  0.91662505042E+01 -0.74467140715E+02  0.12602166453E+03  0.00000000000E+00 0. -1.
<scales pt_clust_5="13000.00000" pt_clust_6="13000.00000" pt_clust_7="13000.00000" pt_clust_8="13000.00000" pt_clust_9="94.62086" pt_clust_10="96.95408"></scales>
<clustering>
<clus scale="   91.035">  5  6 -1 -1</clus>
<clus scale="   92.100">  7  8 -1 -1</clus>
<clus scale="   94.621">  1  9  2 -1</clus>
<clus scale="   96.954">  2 10  1 -1</clus>
<clus scale="  122.041">  1  5  2 -1</clus>
<clus scale="   96.954">  2  5  1 -1</clus>
</clustering>
</event>
<event>
10    2  0.3544405E-006  0.9648091E+02  0.7546771E-02  0.1288218E+00
         21   -1    0    0  501  502  0.00000000000E+00  0.00000000000E+00  0.32727555772E+03  0.32727555772E+03  0.00000000000E+00 0. -1.
          3   -1    0    0  503    0 -0.00000000000E+00 -0.00000000000E+00 -0.14442498380E+03  0.14442498380E+03  0.00000000000E+00 0. -1.
         23    2    1    2    0    0  0.19740642080E+02 -0.19000008337E+02 -0.75271860674E+02  0.12121427835E+03  0.90974474441E+02 0.  0.
         23    2    1    2    0    0 -0.90489339961E+01  0.56370411482E+01  0.62114342623E+02  0.11120921536E+03  0.91627717325E+02 0.  0.
        -11    1    4    4    0    0  0.32870964906E+02  0.18266464220E+02  0.55338765416E+02  0.66906972781E+02  0.00000000000E+00 0. -1.
         11    1    4    4    0    0 -0.41919898902E+02 -0.12629423072E+02  0.67755772071E+01  0.44302242579E+02  0.00000000000E+00 0.  1.
        -11    1    3    3    0    0  0.14663291802E+02  0.30172018385E+02 -0.61242773322E+02  0.69828648162E+02  0.00000000000E+00 0.  1.
         11    1    3    3    0    0  0.50773502777E+01 -0.49172026722E+02 -0.14029087352E+02  0.51385630187E+02  0.00000000000E+00 0. -1.
         21    1    1    2  503  502  0.19283658725E+02  0.61561106984E+01 -0.15524194970E+02  0.25509955355E+02  0.00000000000E+00 0. -1.
          3    1    1    2  501    0 -0.29975366809E+02  0.72068564908E+01  0.21153228694E+03  0.21376709245E+03  0.00000000000E+00 0. -1.
<scales pt_clust_5="13000.00000" pt_clust_6="13000.00000" pt_clust_7="13000.00000" pt_clust_8="13000.00000" pt_clust_9="20.24246" pt_clust_10="30.67360"></scales>
<clustering>
<clus scale="   20.242">  2  9  1 -1</clus>
<clus scale="   30.674">  1 10  2 -1</clus>
<clus scale="   90.974">  7  8 -1 -1</clus>
<clus scale="   91.628">  5  6 -1 -1</clus>
<clus scale="   95.861">  2  7  1 -1</clus>
<clus scale="   30.674">  1  5  2 -1</clus>
</clustering>
</event>
<event>
10    2  0.3544405E-006  0.2997700E+03  0.7546771E-02  0.1085399E+00
         21   -1    0    0  501  502  0.00000000000E+00  0.00000000000E+00  0.58088763226E+03  0.58088763226E+03  0.00000000000E+00 0. -1.
          2   -1    0    0  503    0 -0.00000000000E+00 -0.00000000000E+00 -0.15017866843E+04  0.15017866843E+04  0.00000000000E+00 0. -1.
         23    2    1    2    0    0  0.14724712780E+03  0.26973131305E+03 -0.10734847140E+04  0.11202565673E+04  0.90380570929E+02 0.  0.
         23    2    1    2    0    0 -0.31361156330E+03 -0.17506707483E+03  0.22917870514E+03  0.43577644980E+03  0.91528913403E+02 0.  0.
        -11    1    3    3    0    0  0.11642112496E+03  0.26442915641E+03 -0.97736354778E+03  0.10191742548E+04  0.00000000000E+00 0. -1.
         11    1    3    3    0    0  0.30826002836E+02  0.53021566419E+01 -0.96121166200E+02  0.10108231254E+03  0.00000000000E+00 0.  1.
        -13    1    4    4    0    0 -0.15314914066E+03 -0.10408299780E+03  0.16779746864E+03  0.24988781522E+03  0.00000000000E+00 0. -1.
         13    1    4    4    0    0 -0.16046242264E+03 -0.70984077023E+02  0.61381236500E+02  0.18588863458E+03  0.00000000000E+00 0.  1.
         21    1    1    2  503  502  0.15218129662E+02 -0.41728371981E+02 -0.27108504071E+03  0.27469974117E+03  0.00000000000E+00 0. -1.
          2    1    1    2  501    0  0.15114630584E+03 -0.52935866246E+02  0.19449199750E+03  0.25194155829E+03  0.00000000000E+00 0. -1.
<scales pt_clust_5="13000.00000" pt_clust_6="13000.00000" pt_clust_7="13000.00000" pt_clust_8="13000.00000" pt_clust_9="44.41676" pt_clust_10="160.80822"></scales>
<clustering>
<clus scale="   44.417">  2  9  1 -1</clus>
<clus scale="   90.381">  5  6 -1 -1</clus>
<clus scale="   91.529">  7  8 -1 -1</clus>
<clus scale="  160.808">  1 10  2 -1</clus>
<clus scale="  299.421">  2  5  1 -1</clus>
<clus scale="  160.808">  1  5  2 -1</clus>
</clustering>
</event>
<event>
10    2  0.3544405E-006  0.1299890E+03  0.7546771E-02  0.1230370E+00
          2   -1    0    0  503    0 -0.00000000000E+00  0.00000000000E+00  0.88092243554E+02  0.88092243554E+02  0.00000000000E+00 0.  1.
         21   -1    0    0  501  502  0.00000000000E+00 -0.00000000000E+00 -0.35180777689E+03  0.35180777689E+03  0.00000000000E+00 0. -1.
         23    2    1    2    0    0  0.73741806942E+02  0.30256153999E+02 -0.16096598940E+02  0.12951755379E+03  0.10080876598E+03 0.  0.
         23    2    1    2    0    0 -0.66653305728E+02 -0.12350079121E+02 -0.22826019379E+03  0.25485486132E+03  0.90846555527E+02 0.  0.
        -11    1    4    4    0    0  0.18250016118E+02 -0.14730469782E+02 -0.86255297482E+02  0.89386946317E+02  0.00000000000E+00 0.  1.
         11    1    4    4    0    0 -0.84903321846E+02  0.23803906610E+01 -0.14200489631E+03  0.16546791500E+03  0.00000000000E+00 0. -1.
        -11    1    3    3    0    0  0.27163759274E+02 -0.34023088055E+02 -0.24052434045E+02  0.49738917581E+02  0.00000000000E+00 0.  1.
         11    1    3    3    0    0  0.46578047669E+02  0.64279242054E+02  0.79558351048E+01  0.79778636213E+02  0.00000000000E+00 0. -1.
         21    1    1    2  503  502  0.17150216906E+02 -0.17374937856E+02  0.14164791323E+00  0.24413899106E+02  0.00000000000E+00 0.  1.
          2    1    1    2  501    0 -0.24238718120E+02 -0.53113702208E+00 -0.19500388523E+02  0.31113706227E+02  0.00000000000E+00 0.  1.
<scales pt_clust_5="13000.00000" pt_clust_6="13000.00000" pt_clust_7="13000.00000" pt_clust_8="13000.00000" pt_clust_9="23.80364" pt_clust_10="24.24454"></scales>
<clustering>
<clus scale="   24.245">  2 10  1 -1</clus>
<clus scale="   23.804">  1  9  2 -1</clus>
<clus scale="   90.847">  5  6 -1 -1</clus>
<clus scale="  100.809">  7  8 -1 -1</clus>
<clus scale="  122.425">  2  5  1 -1</clus>
<clus scale="   24.245">  2  5  1 -1</clus>
</clustering>
</event>
<event>
10    2  0.3544405E-006  0.1020238E+03  0.7546771E-02  0.1277270E+00
          1   -1    0    0  503    0 -0.00000000000E+00  0.00000000000E+00  0.38340842919E+03  0.38340842919E+03  0.00000000000E+00 0. -1.
         21   -1    0    0  501  502  0.00000000000E+00 -0.00000000000E+00 -0.72510323656E+02  0.72510323656E+02  0.00000000000E+00 0. -1.
         23    2    1    2    0    0  0.31013315784E+02  0.42603076650E+02  0.20977306993E+03  0.23405526532E+03  0.89444275750E+02 0.  0.
         23    2    1    2    0    0 -0.33574695279E+02 -0.21720604030E+02  0.86618624404E+02  0.13251073789E+03  0.91963388152E+02 0.  0.
        -11    1    4    4    0    0 -0.13471492216E+02 -0.57139501284E+02  0.59470963758E+02  0.83565538590E+02  0.00000000000E+00 0.  1.
         11    1    4    4    0    0 -0.20103203063E+02  0.35418897254E+02  0.27147660646E+02  0.48945199302E+02  0.00000000000E+00 0. -1.
        -11    1    3    3    0    0  0.39391196870E+01  0.66778635714E+02  0.14783171421E+03  0.16226249899E+03  0.00000000000E+00 0. -1.
         11    1    3    3    0    0  0.27074196097E+02 -0.24175559065E+02  0.61941355719E+02  0.71792766339E+02  0.00000000000E+00 0.  1.
         21    1    1    2  503  502 -0.21617291391E+02  0.32710012227E+01  0.40762317788E+02  0.46255521697E+02  0.00000000000E+00 0.  1.
          1    1    1    2  501    0  0.24178670886E+02 -0.24153473842E+02 -0.26255906586E+02  0.43097227928E+02  0.00000000000E+00 0. -1.
<scales pt_clust_5="13000.00000" pt_clust_6="13000.00000" pt_clust_7="13000.00000" pt_clust_8="13000.00000" pt_clust_9="21.86337" pt_clust_10="33.74136"></scales>
<clustering>
<clus scale="   21.863">  1  9  2 -1</clus>
<clus scale="   33.741">  2 10  1 -1</clus>
<clus scale="   89.444">  7  8 -1 -1</clus>
<clus scale="   91.963">  5  6 -1 -1</clus>
<clus scale="   99.759">  1  7  2 -1</clus>
<clus scale="   33.741">  2  5  1 -1</clus>
</clustering>
</event>
<event>
10    2  0.3544405E-006  0.1302710E+03  0.7546771E-02  0.1242788E+00
          1   -1    0    0  503    0 -0.00000000000E+00  0.00000000000E+00  0.42480252890E+03  0.42480252890E+03  0.00000000000E+00 0. -1.
         21   -1    0    0  501  502  0.00000000000E+00 -0.00000000000E+00 -0.59606016221E+02  0.59606016221E+02  0.00000000000E+00 0. -1.
         23    2    1    2    0    0 -0.10891652464E+02  0.43748923965E+01  0.17389327082E+03  0.21598181909E+03  0.12755982424E+03 0.  0.
         23    2    1    2    0    0  0.42418741861E+02 -0.19813448743E+02  0.55982045676E+02  0.11634078450E+03  0.90605001457E+02 0.  0.
        -11    1    3    3    0    0  0.17540287499E+02 -0.40450043237E+02  0.12123456674E+02  0.45725768284E+02  0.00000000000E+00 0. -1.
         11    1    3    3    0    0 -0.28431939963E+02  0.44824935633E+02  0.16176981415E+03  0.17025605080E+03  0.00000000000E+00 0.  1.
        -13    1    4    4    0    0 -0.12825676185E+02  0.26535070686E+02  0.11646388872E+02  0.31689845687E+02  0.00000000000E+00 0.  1.
         13    1    4    4    0    0  0.55244418046E+02 -0.46348519429E+02  0.44335656804E+02  0.84650938817E+02  0.00000000000E+00 0. -1.
         21    1    1    2  503  502  0.12614735257E+02  0.20779595862E+02  0.58065179069E+02  0.62948297594E+02  0.00000000000E+00 0. -1.
          1    1    1    2  501    0 -0.44141824654E+02 -0.53410395155E+01  0.77256017110E+02  0.89137643937E+02  0.00000000000E+00 0. -1.
<scales pt_clust_5="13000.00000" pt_clust_6="13000.00000" pt_clust_7="13000.00000" pt_clust_8="13000.00000" pt_clust_9="24.30891" pt_clust_10="41.26522"></scales>
<clustering>
<clus scale="   24.309">  1  9  2 -1</clus>
<clus scale="   41.265">  2 10  1 -1</clus>
<clus scale="   90.605">  7  8 -1 -1</clus>
<clus scale="   94.384">  2  7  1 -1</clus>
<clus scale="  127.560">  5  6 -1 -1</clus>
<clus scale="   41.265">  2  5  1 -1</clus>
</clustering>
</event>
<event>
10    2  0.3544405E-006  0.1093377E+03  0.7546771E-02  0.1262550E+00
          2   -1    0    0  503    0 -0.00000000000E+00  0.00000000000E+00  0.35976006460E+03  0.35976006460E+03  0.00000000000E+00 0. -1.
         21   -1    0    0  501  502  0.00000000000E+00 -0.00000000000E+00 -0.35395032813E+03  0.35395032813E+03  0.00000000000E+00 0. -1.
         23    2    1    2    0    0 -0.14378084142E+01 -0.82179447605E+02  0.13334029845E+02  0.12526859211E+03  0.93588967921E+02 0.  0.
         23    2    1    2    0    0 -0.43470813970E+02  0.26339286094E+02  0.28137920918E+02  0.10857466481E+03  0.91723746036E+02 0.  0.
        -11    1    3    3    0    0 -0.67371931446E+00 -0.33161334893E+02  0.52785861474E+02  0.62341600887E+02  0.00000000000E+00 0. -1.
         11    1    3    3    0    0 -0.76408909976E+00 -0.49018112712E+02 -0.39451831629E+02  0.62926991227E+02  0.00000000000E+00 0.  1.
        -13    1    4    4    0    0  0.23460105781E+02 -0.11984122175E+02 -0.37597797211E+00  0.26346481872E+02  0.00000000000E+00 0.  1.
         13    1    4    4    0    0 -0.66930919752E+02  0.38323408269E+02  0.28513898890E+02  0.82228182943E+02  0.00000000000E+00 0. -1.
         21    1    1    2  503  502  0.44862215770E+02  0.93510282860E+02  0.20847068234E+03  0.23284504890E+03  0.00000000000E+00 0. -1.
          2    1    1    2  501    0  0.46406614553E-01 -0.37670121349E+02 -0.24413289663E+03  0.24702208690E+03  0.00000000000E+00 0. -1.
<scales pt_clust_5="13000.00000" pt_clust_6="13000.00000" pt_clust_7="13000.00000" pt_clust_8="13000.00000" pt_clust_9="99.91468" pt_clust_10="37.67015"></scales>
<clustering>
<clus scale="   37.670">  2 10  1 -1</clus>
<clus scale="   91.724">  7  8 -1 -1</clus>
<clus scale="   93.589">  5  6 -1 -1</clus>
<clus scale="   99.915">  1  9  2 -1</clus>
<clus scale="  107.746">  2  7  1 -1</clus>
<clus scale="   37.670">  2  5  1 -1</clus>
</clustering>
</event>
<event>
10    2  0.3544405E-006  0.9820223E+02  0.7546771E-02  0.1285751E+00
          2   -1    0    0  503    0 -0.00000000000E+00  0.00000000000E+00  0.33297933945E+03  0.33297933945E+03  0.00000000000E+00 0. -1.
         21   -1    0    0  501  502  0.00000000000E+00 -0.00000000000E+00 -0.40890232783E+03  0.40890232783E+03  0.00000000000E+00 0. -1.
         23    2    1    2    0    0 -0.13349902951E+02 -0.47481663144E+02  0.23207283962E+03  0.25541727289E+03  0.94590972925E+02 0.  0.
         23    2    1    2    0    0 -0.32395313136E+02  0.83135979642E+01 -0.11933024458E+03  0.15404690631E+03  0.91499562005E+02 0.  0.
        -11    1    3    3    0    0 -0.46688152744E+02 -0.14795296793E+02  0.61769031273E+02  0.78829548002E+02  0.00000000000E+00 0. -1.
         11    1    3    3    0    0  0.33338249793E+02 -0.32686366350E+02  0.17030380835E+03  0.17658772489E+03  0.00000000000E+00 0.  1.
        -13    1    4    4    0    0  0.25295709921E+02  0.12100338130E+02 -0.78251718518E+02  0.83124139540E+02  0.00000000000E+00 0.  1.
         13    1    4    4    0    0 -0.57691023057E+02 -0.37867401661E+01 -0.41078526059E+02  0.70922766765E+02  0.00000000000E+00 0. -1.
         21    1    1    2  503  502 -0.51785269445E+01  0.25747175387E+02  0.66696907131E+02  0.71681319760E+02  0.00000000000E+00 0.  1.
          2    1    1    2  501    0  0.50923743031E+02  0.13420889793E+02 -0.25536249055E+03  0.26073616832E+03  0.00000000000E+00 0. -1.
<scales pt_clust_5="13000.00000" pt_clust_6="13000.00000" pt_clust_7="13000.00000" pt_clust_8="13000.00000" pt_clust_9="26.26279" pt_clust_10="52.67909"></scales>
<clustering>
<clus scale="   26.263">  1  9  2 -1</clus>
<clus scale="   52.679">  2 10  1 -1</clus>
<clus scale="   91.500">  7  8 -1 -1</clus>
<clus scale="   94.591">  5  6 -1 -1</clus>
<clus scale="   95.228">  2  7  1 -1</clus>
<clus scale="   52.679">  2  5  1 -1</clus>
</clustering>
</event>
<event>
10    2  0.3544405E-006  0.1407642E+03  0.7546771E-02  0.1213109E+00
         21   -1    0    0  503  502  0.00000000000E+00  0.00000000000E+00  0.32750651939E+03  0.32750651939E+03  0.00000000000E+00 0.  1.
         -3   -1    0    0    0  501 -0.00000000000E+00 -0.00000000000E+00 -0.43062647976E+03  0.43062647976E+03  0.00000000000E+00 0.  1.
         23    2    1    2    0    0  0.14641145790E+02  0.11131130293E+03 -0.17114036493E+03  0.22652498057E+03  0.97056545393E+02 0.  0.
         23    2    1    2    0    0 -0.34248411069E+02 -0.58006215227E+02  0.18509559609E+02  0.12233703097E+03  0.10042943136E+03 0.  0.
        -11    1    3    3    0    0  0.23246787202E+02  0.19625231979E+02  0.19252428219E+01  0.30483920440E+02  0.00000000000E+00 0. -1.
         11    1    3    3    0    0 -0.86056414120E+01  0.91686070953E+02 -0.17306560775E+03  0.19604106013E+03  0.00000000000E+00 0.  1.
        -13    1    4    4    0    0 -0.22687988569E+02  0.12835274006E+01 -0.34939321090E+02  0.41679112588E+02  0.00000000000E+00 0.  1.
         13    1    4    4    0    0 -0.11560422501E+02 -0.59289742628E+02  0.53448880699E+02  0.80657918379E+02  0.00000000000E+00 0. -1.
         21    1    1    2  503  501 -0.23783262668E+02  0.49465283699E+01 -0.17326142358E+03  0.17495608771E+03  0.00000000000E+00 0. -1.
         -3    1    1    2    0  502  0.43390527948E+02 -0.58251616075E+02  0.22277226853E+03  0.23431489990E+03  0.00000000000E+00 0.  1.
<scales pt_clust_5="13000.00000" pt_clust_6="13000.00000" pt_clust_7="13000.00000" pt_clust_8="13000.00000" pt_clust_9="24.29222" pt_clust_10="72.22801"></scales>
<clustering>
<clus scale="   24.292">  2  9  1 -1</clus>
<clus scale="   72.228">  1 10  2 -1</clus>
<clus scale="   97.057">  5  6 -1 -1</clus>
<clus scale="  100.429">  7  8 -1 -1</clus>
<clus scale="  138.378">  2  5  1 -1</clus>
<clus scale="   72.228">  1  5  2 -1</clus>
</clustering>
</event>
<event>
10    2  0.3544405E-006  0.9702801E+02  0.7546771E-02  0.1287863E+00
         -1   -1    0    0    0  501 -0.00000000000E+00  0.00000000000E+00  0.18630824522E+03  0.18630824522E+03  0.00000000000E+00 0.  1.
         21   -1    0    0  503  502  0.00000000000E+00 -0.00000000000E+00 -0.11600385388E+03  0.11600385388E+03  0.00000000000E+00 0. -1.
         23    2    1    2    0    0  0.40266064960E+02  0.29923730667E+02  0.42091283603E+02  0.11170063901E+03  0.90490723033E+02 0.  0.
         23    2    1    2    0    0 -0.21658175434E+02  0.25031106112E+02 -0.10673426041E+02  0.99047831977E+02  0.92741135208E+02 0.  0.
        -11    1    4    4    0    0  0.20575694407E+02  0.29791207826E+02  0.24636050039E+02  0.43792810204E+02  0.00000000000E+00 0.  1.
         11    1    4    4    0    0 -0.42233869841E+02 -0.47601017145E+01 -0.35309476080E+02  0.55255021773E+02  0.00000000000E+00 0. -1.
        -13    1    3    3    0    0  0.11244768060E+01 -0.27212077614E+02  0.31494670690E+02  0.41637433855E+02  0.00000000000E+00 0. -1.
         13    1    3    3    0    0  0.39141588154E+02  0.57135808281E+02  0.10596612913E+02  0.70063205153E+02  0.00000000000E+00 0.  1.
         21    1    1    2  503  501 -0.19379416332E+02 -0.32387946081E+02  0.52903184775E+02  0.64986827804E+02  0.00000000000E+00 0. -1.
         -1    1    1    2    0  502  0.77152680492E+00 -0.22566890697E+02 -0.14016650998E+02  0.26576800307E+02  0.00000000000E+00 0.  1.
<scales pt_clust_5="13000.00000" pt_clust_6="13000.00000" pt_clust_7="13000.00000" pt_clust_8="13000.00000" pt_clust_9="38.94824" pt_clust_10="22.58008"></scales>
<clustering>
<clus scale="   22.580">  2 10  1 -1</clus>
<clus scale="   38.948">  1  9  2 -1</clus>
<clus scale="   90.491">  7  8 -1 -1</clus>
<clus scale="   92.741">  5  6 -1 -1</clus>
<clus scale="   94.879">  1  7  2 -1</clus>
<clus scale="   22.580">  2  5  1 -1</clus>
</clustering>
</event>
<event>
10    2  0.3544405E-006  0.9779437E+02  0.7546771E-02  0.1285168E+00
          2   -1    0    0  503    0 -0.00000000000E+00  0.00000000000E+00  0.38352114672E+02  0.38352114672E+02  0.00000000000E+00 0. -1.
         21   -1    0    0  501  502  0.00000000000E+00 -0.00000000000E+00 -0.54756173636E+03  0.54756173636E+03  0.00000000000E+00 0.  1.
         23    2    1    2    0    0  0.29962191738E+02 -0.42276365819E+01 -0.22303148117E+03  0.24274193839E+03  0.90912052080E+02 0.  0.
         23    2    1    2    0    0 -0.38079602107E+02  0.18440225411E+02 -0.27164217291E+03  0.28945737295E+03  0.90586989371E+02 0.  0.
        -11    1    3    3    0    0 -0.82513988610E+01 -0.41571248087E+02 -0.99561356026E+02  0.10820682910E+03  0.00000000000E+00 0. -1.
         11    1    3    3    0    0  0.38213590599E+02  0.37343611505E+02 -0.12347012514E+03  0.13453510928E+03  0.00000000000E+00 0.  1.
        -13    1    4    4    0    0  0.22592668385E+02 -0.12947784553E+02 -0.38239401494E+02  0.46263653295E+02  0.00000000000E+00 0.  1.
         13    1    4    4    0    0 -0.60672270493E+02  0.31388009963E+02 -0.23340277141E+03  0.24319371965E+03  0.00000000000E+00 0. -1.
         21    1    1    2  503  502  0.17026847338E+02  0.10492657578E+02  0.54298684742E+01  0.20724209634E+02  0.00000000000E+00 0. -1.
          2    1    1    2  501    0 -0.89094369676E+01 -0.24705246407E+02 -0.19965836086E+02  0.32990330064E+02  0.00000000000E+00 0. -1.
<scales pt_clust_5="13000.00000" pt_clust_6="13000.00000" pt_clust_7="13000.00000" pt_clust_8="13000.00000" pt_clust_9="20.00023" pt_clust_10="22.46175"></scales>
<clustering>
<clus scale="   20.000">  1  9  2 -1</clus>
<clus scale="   22.462">  2 10  1 -1</clus>
<clus scale="   90.587">  7  8 -1 -1</clus>
<clus scale="   90.912">  5  6 -1 -1</clus>
<clus scale="   97.492">  2  7  1 -1</clus>
<clus scale="   22.462">  2  5  1 -1</clus>
</clustering>
</event>
<event>
10    2  0.3544405E-006  0.1834985E+03  0.7546771E-02  0.1164586E+00
         21   -1    0    0  503  502  0.00000000000E+00  0.00000000000E+00  0.89506758428E+02  0.89506758428E+02  0.00000000000E+00 0. -1.
          2   -1    0    0  502    0 -0.00000000000E+00 -0.00000000000E+00 -0.73747499411E+03  0.73747499411E+03  0.00000000000E+00 0. -1.
         23    2    1    2    0    0  0.13129365721E+03 -0.27556149949E+02 -0.25096110290E+03  0.29890071769E+03  0.91448335384E+02 0.  0.
         23    2    1    2    0    0 -0.20580402920E+03 -0.16049393956E+02 -0.26631959061E+03  0.34886227199E+03  0.90365253256E+02 0.  0.
        -13    1    3    3    0    0  0.10527509588E+03 -0.20004657828E+02 -0.24976479904E+03  0.27178205788E+03  0.00000000000E+00 0. -1.
         13    1    3    3    0    0  0.26018561326E+02 -0.75514921206E+01 -0.11963038575E+01  0.27118659806E+02  0.00000000000E+00 0.  1.
        -13    1    4    4    0    0 -0.52623880362E+02  0.35419615813E+02 -0.83492869917E+02  0.10485647951E+03  0.00000000000E+00 0.  1.
         13    1    4    4    0    0 -0.15318014884E+03 -0.51469009770E+02 -0.18282672069E+03  0.24400579248E+03  0.00000000000E+00 0. -1.
         21    1    1    2  503  501 -0.17836852734E+02  0.15858844171E+02 -0.13362378183E+02  0.27353416689E+02  0.00000000000E+00 0. -1.
          2    1    1    2  501    0  0.92347224726E+02  0.27746699734E+02 -0.11732516400E+03  0.15186534617E+03  0.00000000000E+00 0. -1.
<scales pt_clust_5="13000.00000" pt_clust_6="13000.00000" pt_clust_7="13000.00000" pt_clust_8="13000.00000" pt_clust_9="23.86747" pt_clust_10="93.90163"></scales>
<clustering>
<clus scale="   23.867">  1  9  2 -1</clus>
<clus scale="   90.365">  7  8 -1 -1</clus>
<clus scale="   91.448">  5  6 -1 -1</clus>
<clus scale="   93.902">  1 10  2 -1</clus>
<clus scale="  182.961">  1  7  2 -1</clus>
<clus scale="   23.867">  1  5  2 -1</clus>
</clustering>
</event>
<event>
10    2  0.3544405E-006  0.1733955E+03  0.7546771E-02  0.1174444E+00
         21   -1    0    0  501  502  0.00000000000E+00  0.00000000000E+00  0.10664530819E+03  0.10664530819E+03  0.00000000000E+00 0. -1.
          1   -1    0    0  503    0 -0.00000000000E+00 -0.00000000000E+00 -0.91885299630E+03  0.91885299630E+03  0.00000000000E+00 0. -1.
         23    2    1    2    0    0  0.16218109458E+03  0.78906969536E+02 -0.21271172485E+03  0.29276493308E+03  0.89084290837E+02 0.  0.
         23    2    1    2    0    0 -0.13793830387E+03 -0.62861192269E+01 -0.13342480660E+03  0.21137720645E+03  0.88383558560E+02 0.  0.
        -11    1    4    4    0    0 -0.19430116821E+02 -0.36329662341E+02 -0.40918707716E+02  0.58066465766E+02  0.00000000000E+00 0.  1.
         11    1    4    4    0    0 -0.11850818704E+03  0.30043543114E+02 -0.92506098883E+02  0.15331074069E+03  0.00000000000E+00 0. -1.
        -13    1    3    3    0    0  0.14155654931E+03  0.91529860920E+02 -0.20866462885E+03  0.26824783210E+03  0.00000000000E+00 0. -1.
         13    1    3    3    0    0  0.20624545268E+02 -0.12622891384E+02 -0.40470959938E+01  0.24517100978E+02  0.00000000000E+00 0.  1.
         21    1    1    2  503  502 -0.53047052329E+02 -0.36901681734E+02 -0.47081180731E+03  0.47522571667E+03  0.00000000000E+00 0.  1.
          1    1    1    2  501    0  0.28804261617E+02 -0.35719168574E+02  0.47406506538E+01  0.46130448291E+02  0.00000000000E+00 0. -1.
<scales pt_clust_5="13000.00000" pt_clust_6="13000.00000" pt_clust_7="13000.00000" pt_clust_8="13000.00000" pt_clust_9="64.54356" pt_clust_10="45.88621"></scales>
<clustering>
<clus scale="   45.886">  1 10  2 -1</clus>
<clus scale="   64.544">  2  9  1 -1</clus>
<clus scale="   88.384">  5  6 -1 -1</clus>
<clus scale="   89.084">  7  8 -1 -1</clus>
<clus scale="  173.037">  1  5  2 -1</clus>
<clus scale="   45.886">  1  5  2 -1</clus>
</clustering>
</event>
<event>
10    2  0.3544405E-006  0.9892715E+02  0.7546771E-02  0.1282740E+00
         21   -1    0    0  503  502  0.00000000000E+00  0.00000000000E+00  0.29782408001E+03  0.29782408001E+03  0.00000000000E+00 0. -1.
         -1   -1    0    0    0  501 -0.00000000000E+00 -0.00000000000E+00 -0.10729198836E+03  0.10729198836E+03  0.00000000000E+00 0.  1.
         23    2    1    2    0    0  0.48133924240E+02  0.90800833139E+01  0.52284875508E+02  0.11531322600E+03  0.90355460859E+02 0.  0.
         23    2    1    2    0    0 -0.13115929099E+02 -0.34355875457E+02  0.96057384052E+02  0.13667487867E+03  0.90003598000E+02 0.  0.
        -11    1    3    3    0    0  0.24164698461E+02 -0.30638266296E+02 -0.74035095442E+01  0.39717099175E+02  0.00000000000E+00 0.  1.
         11    1    3    3    0    0  0.23969225779E+02  0.39718349610E+02  0.59688385052E+02  0.75596126820E+02  0.00000000000E+00 0. -1.
        -11    1    4    4    0    0 -0.38728764053E+02 -0.25408046851E+02  0.99083702867E+02  0.10937580255E+03  0.00000000000E+00 0. -1.
         11    1    4    4    0    0  0.25612834954E+02 -0.89478286061E+01 -0.30263188149E+01  0.27299076115E+02  0.00000000000E+00 0.  1.
         21    1    1    2  503  501 -0.20407283804E+02  0.49864994057E+02 -0.39348863404E+02  0.66718122843E+02  0.00000000000E+00 0.  1.
         -1    1    1    2    0  502 -0.14610711337E+02 -0.24589201914E+02  0.81538695493E+02  0.86409840871E+02  0.00000000000E+00 0.  1.
<scales pt_clust_5="13000.00000" pt_clust_6="13000.00000" pt_clust_7="13000.00000" pt_clust_8="13000.00000" pt_clust_9="52.79734" pt_clust_10="28.60248"></scales>
<clustering>
<clus scale="   28.602">  1 10  2 -1</clus>
<clus scale="   52.797">  2  9  1 -1</clus>
<clus scale="   90.004">  7  8 -1 -1</clus>
<clus scale="   90.355">  5  6 -1 -1</clus>
<clus scale="   98.606">  1  7  2 -1</clus>
<clus scale="   28.602">  1  5  2 -1</clus>
</clustering>
</event>
<event>
10    2  0.3544405E-006  0.1225363E+03  0.7546771E-02  0.1244594E+00
         21   -1    0    0  501  502  0.00000000000E+00  0.00000000000E+00  0.20723890542E+03  0.20723890542E+03  0.00000000000E+00 0.  1.
          1   -1    0    0  503    0 -0.00000000000E+00 -0.00000000000E+00 -0.35820388739E+03  0.35820388739E+03  0.00000000000E+00 0. -1.
         23    2    1    2    0    0 -0.75581258771E+02 -0.26756170091E+01 -0.27241281220E+03  0.29687614548E+03  0.90592603991E+02 0.  0.
         23    2    1    2    0    0  0.68989030182E+02  0.49828864969E+01  0.79611184086E+02  0.14962512384E+03  0.10613869045E+03 0.  0.
        -13    1    4    4    0    0  0.13653538409E+02 -0.35008907579E+02  0.71627222829E+02  0.80885732803E+02  0.00000000000E+00 0.  1.
         13    1    4    4    0    0  0.55335491773E+02  0.39991794076E+02  0.79839612570E+01  0.68739391040E+02  0.00000000000E+00 0. -1.
        -13    1    3    3    0    0 -0.61418254517E+02 -0.42546190206E+02 -0.19169485610E+03  0.20574085191E+03  0.00000000000E+00 0.  1.
         13    1    3    3    0    0 -0.14163004254E+02  0.39870573196E+02 -0.80717956099E+02  0.91135293566E+02  0.00000000000E+00 0. -1.
         21    1    1    2  503  502  0.23289283278E+02 -0.25024540159E+02 -0.27640759436E+02  0.43961686819E+02  0.00000000000E+00 0.  1.
          1    1    1    2  501    0 -0.16697054689E+02  0.22717270671E+02  0.69477405575E+02  0.74979836672E+02  0.00000000000E+00 0. -1.
<scales pt_clust_5="13000.00000" pt_clust_6="13000.00000" pt_clust_7="13000.00000" pt_clust_8="13000.00000" pt_clust_9="32.49294" pt_clust_10="28.19337"></scales>
<clustering>
<clus scale="   28.193">  1 10  2 -1</clus>
<clus scale="   32.493">  2  9  1 -1</clus>
<clus scale="   90.593">  7  8 -1 -1</clus>
<clus scale="  106.139">  5  6 -1 -1</clus>
<clus scale="  109.347">  2  7  1 -1</clus>
<clus scale="   28.193">  1  5  2 -1</clus>
</clustering>
</event>
<event>
10    2  0.3544405E-006  0.9919522E+02  0.7546771E-02  0.1282236E+00
         21   -1    0    0  501  502  0.00000000000E+00  0.00000000000E+00  0.43304364979E+02  0.43304364979E+02  0.00000000000E+00 0. -1.
          1   -1    0    0  503    0 -0.00000000000E+00 -0.00000000000E+00 -0.52435217157E+03  0.52435217157E+03  0.00000000000E+00 0. -1.
         23    2    1    2    0    0 -0.41831469713E+02 -0.27131179535E+02 -0.17341135245E+03  0.20215903262E+03  0.91163614181E+02 0.  0.
         23    2    1    2    0    0  0.29808341453E+02  0.13487242969E+02 -0.70007129303E+02  0.11987840271E+03  0.91648187867E+02 0.  0.
        -11    1    4    4    0    0  0.50305364834E+02  0.38249736404E+02 -0.57325284431E+02  0.85322097379E+02  0.00000000000E+00 0. -1.
         11    1    4    4    0    0 -0.20497023381E+02 -0.24762493434E+02 -0.12681844872E+02  0.34556305328E+02  0.00000000000E+00 0.  1.
        -11    1    3    3    0    0 -0.38846057020E+02  0.24932123575E+02 -0.49295711446E+02  0.67532911228E+02  0.00000000000E+00 0.  1.
         11    1    3    3    0    0 -0.29854126934E+01 -0.52063303110E+02 -0.12411564100E+03  0.13462612139E+03  0.00000000000E+00 0. -1.
         21    1    1    2  503  502  0.27327942652E+02 -0.26468628820E+01 -0.19981477063E+03  0.20169225294E+03  0.00000000000E+00 0. -1.
          1    1    1    2  501    0 -0.15304814392E+02  0.16290799447E+02 -0.37814554211E+02  0.43926848286E+02  0.00000000000E+00 0. -1.
<scales pt_clust_5="13000.00000" pt_clust_6="13000.00000" pt_clust_7="13000.00000" pt_clust_8="13000.00000" pt_clust_9="27.06607" pt_clust_10="22.35236"></scales>
<clustering>
<clus scale="   22.352">  1 10  2 -1</clus>
<clus scale="   27.066">  2  9  1 -1</clus>
<clus scale="   91.164">  7  8 -1 -1</clus>
<clus scale="   91.648">  5  6 -1 -1</clus>
<clus scale="   98.748">  2  7  1 -1</clus>
<clus scale="   22.352">  1  5  2 -1</clus>
</clustering>
</event>
<event>
10    2  0.3544405E-006  0.2786699E+03  0.7546771E-02  0.1096497E+00
          2   -1    0    0  502    0 -0.00000000000E+00  0.00000000000E+00  0.16114408487E+04  0.16114408487E+04  0.00000000000E+00 0. -1.
         21   -1    0    0  503  502  0.00000000000E+00 -0.00000000000E+00 -0.71774006783E+02  0.71774006783E+02  0.00000000000E+00 0.  1.
         23    2    1    2    0    0 -0.22137304726E+03 -0.15073489829E+03  0.10059119239E+04  0.10448158702E+04  0.89746132409E+02 0.  0.
         23    2    1    2    0    0  0.24599756479E+03  0.83840770725E+02  0.41811999231E+03  0.50074273414E+03  0.91514376528E+02 0.  0.
        -11    1    3    3    0    0 -0.14322719372E+03 -0.12442977095E+03  0.81617625841E+03  0.83793823263E+03  0.00000000000E+00 0. -1.
         11    1    3    3    0    0 -0.78145853539E+02 -0.26305127339E+02  0.18973566549E+03  0.20687763753E+03  0.00000000000E+00 0.  1.
        -13    1    4    4    0    0  0.23806831733E+03  0.57138745891E+02  0.34984662680E+03  0.42700588085E+03  0.00000000000E+00 0.  1.
         13    1    4    4    0    0  0.79292474593E+01  0.26702024834E+02  0.68273365510E+02  0.73736853293E+02  0.00000000000E+00 0. -1.
         21    1    1    2  503  501 -0.17941120068E+02  0.33484142709E+02  0.78805170751E+02  0.87483292915E+02  0.00000000000E+00 0. -1.
          2    1    1    2  501    0 -0.66833974589E+01  0.33409984855E+02  0.36829754930E+02  0.50172958233E+02  0.00000000000E+00 0. -1.
<scales pt_clust_5="13000.00000" pt_clust_6="13000.00000" pt_clust_7="13000.00000" pt_clust_8="13000.00000" pt_clust_9="21.10507" pt_clust_10="74.68472"></scales>
<clustering>
<clus scale="   21.105">  9 10 -1 -1</clus>
<clus scale="   74.685">  2  9  1 -1</clus>
<clus scale="   89.746">  5  6 -1 -1</clus>
<clus scale="   91.514">  7  8 -1 -1</clus>
<clus scale="  278.094">  1  5  2 -1</clus>
<clus scale="   74.685">  2  5  1 -1</clus>
</clustering>
</event>
<event>
10    2  0.3544405E-006  0.1226806E+03  0.7546771E-02  0.1238827E+00
          1   -1    0    0  503    0 -0.00000000000E+00  0.00000000000E+00  0.14722471069E+03  0.14722471069E+03  0.00000000000E+00 0. -1.
         21   -1    0    0  501  502  0.00000000000E+00 -0.00000000000E+00 -0.48142803604E+03  0.48142803604E+03  0.00000000000E+00 0.  1.
         23    2    1    2    0    0  0.30597746702E+02  0.84091631708E+02 -0.18364292448E+03  0.22356269719E+03  0.90818121749E+02 0.  0.
         23    2    1    2    0    0 -0.39835637357E+02 -0.64646425427E+02 -0.15697983517E+03  0.19674987443E+03  0.91114247583E+02 0.  0.
        -11    1    3    3    0    0  0.60854951425E+02  0.55150151907E+02 -0.95337000679E+02  0.12583325501E+03  0.00000000000E+00 0.  1.
         11    1    3    3    0    0 -0.30257204722E+02  0.28941479802E+02 -0.88305923804E+02  0.97729442184E+02  0.00000000000E+00 0. -1.
        -11    1    4    4    0    0 -0.64610385761E+02 -0.22706559770E+02 -0.76491874334E+02  0.10266984291E+03  0.00000000000E+00 0. -1.
         11    1    4    4    0    0  0.24774748404E+02 -0.41939865657E+02 -0.80487960841E+02  0.94080031517E+02  0.00000000000E+00 0.  1.
         21    1    1    2  503  502 -0.21397668643E+02 -0.13365701807E+02  0.10341089116E+03  0.10644395060E+03  0.00000000000E+00 0. -1.
          1    1    1    2  501    0  0.30635559298E+02 -0.60795044743E+01 -0.96991456849E+02  0.10189622451E+03  0.00000000000E+00 0. -1.
<scales pt_clust_5="13000.00000" pt_clust_6="13000.00000" pt_clust_7="13000.00000" pt_clust_8="13000.00000" pt_clust_9="25.22900" pt_clust_10="30.18353"></scales>
<clustering>
<clus scale="   25.229">  1  9  2 -1</clus>
<clus scale="   30.184">  2 10  1 -1</clus>
<clus scale="   90.818">  5  6 -1 -1</clus>
<clus scale="   91.114">  7  8 -1 -1</clus>
<clus scale="  122.461">  1  5  2 -1</clus>
<clus scale="   30.184">  2  5  1 -1</clus>
</clustering>
</event>
<event>
10    2  0.3544405E-006  0.1809866E+03  0.7546771E-02  0.1179546E+00
         21   -1    0    0  501  502  0.00000000000E+00  0.00000000000E+00  0.28323113964E+03  0.28323113964E+03  0.00000000000E+00 0. -1.
          2   -1    0    0  503    0 -0.00000000000E+00 -0.00000000000E+00 -0.79977822177E+03  0.79977822177E+03  0.00000000000E+00 0. -1.
         23    2    1    2    0    0  0.51885111747E+02 -0.10395589128E+03 -0.24840914021E+03  0.28890231085E+03  0.90876576330E+02 0.  0.
         23    2    1    2    0    0  0.30756163693E+02 -0.12369486091E+03 -0.90045951040E+02  0.17212360844E+03  0.72607871897E+02 0.  0.
        -11    1    4    4    0    0  0.31849155199E+02 -0.14235873888E+02 -0.35684397434E+02  0.49903957884E+02  0.00000000000E+00 0.  1.
         11    1    4    4    0    0 -0.10929915054E+01 -0.10945898703E+03 -0.54361553606E+02  0.12221965055E+03  0.00000000000E+00 0. -1.
        -13    1    3    3    0    0  0.69054756210E+02 -0.86164056657E+02 -0.23742631018E+03  0.26184739216E+03  0.00000000000E+00 0.  1.
         13    1    3    3    0    0 -0.17169644463E+02 -0.17791834622E+02 -0.10982830028E+02  0.27054918695E+02  0.00000000000E+00 0. -1.
         21    1    1    2  503  502 -0.77478714394E+02  0.19966628299E+03 -0.37024882233E+03  0.42773095070E+03  0.00000000000E+00 0.  1.
          2    1    1    2  501    0 -0.51625610470E+01  0.27984469198E+02  0.19215683144E+03  0.19425249142E+03  0.00000000000E+00 0. -1.
<scales pt_clust_5="13000.00000" pt_clust_6="13000.00000" pt_clust_7="13000.00000" pt_clust_8="13000.00000" pt_clust_9="156.51707" pt_clust_10="28.45668"></scales>
<clustering>
<clus scale="   28.457">  1 10  2 -1</clus>
<clus scale="   72.608">  5  6 -1 -1</clus>
<clus scale="   90.877">  7  8 -1 -1</clus>
<clus scale="  135.595">  1  5  2 -1</clus>
<clus scale="  156.517">  1  9  2 -1</clus>
<clus scale="   28.457">  1  5  2 -1</clus>
</clustering>
</event>
<event>
10    2  0.3544405E-006  0.1102850E+03  0.7546771E-02  0.1260547E+00
         21   -1    0    0  501  502  0.00000000000E+00  0.00000000000E+00  0.51814104312E+02  0.51814104312E+02  0.00000000000E+00 0. -1.
          1   -1    0    0  503    0 -0.00000000000E+00 -0.00000000000E+00 -0.72404704672E+03  0.72404704672E+03  0.00000000000E+00 0. -1.
         23    2    1    2    0    0 -0.49034437787E+02  0.33599748624E+02 -0.39202595936E+03  0.40677151093E+03  0.90804130358E+02 0.  0.
         23    2    1    2    0    0  0.37037519172E+02 -0.35864528832E+02 -0.20316837428E+03  0.22895311046E+03  0.92109153889E+02 0.  0.
        -11    1    3    3    0    0  0.17221808906E+01 -0.28369435534E+02 -0.10086479269E+03  0.10479263898E+03  0.00000000000E+00 0.  1.
         11    1    3    3    0    0 -0.50756618678E+02  0.61969184158E+02 -0.29116116667E+03  0.30197887195E+03  0.00000000000E+00 0. -1.
        -13    1    4    4    0    0  0.65466551706E+02 -0.22862891253E+02 -0.10419893502E+03  0.12516388955E+03  0.00000000000E+00 0.  1.
         13    1    4    4    0    0 -0.28429032535E+02 -0.13001637579E+02 -0.98969439254E+02  0.10378922091E+03  0.00000000000E+00 0. -1.
         21    1    1    2  503  502 -0.34592397882E+02 -0.51444214162E+01 -0.85348054769E+02  0.92235511143E+02  0.00000000000E+00 0. -1.
          1    1    1    2  501    0  0.46589316498E+02  0.74092016241E+01  0.83094460007E+01  0.47901018499E+02  0.00000000000E+00 0. -1.
<scales pt_clust_5="13000.00000" pt_clust_6="13000.00000" pt_clust_7="13000.00000" pt_clust_8="13000.00000" pt_clust_9="34.97283" pt_clust_10="46.08502"></scales>
<clustering>
<clus scale="   34.973">  2  9  1 -1</clus>
<clus scale="   46.085">  1 10  2 -1</clus>
<clus scale="   90.804">  5  6 -1 -1</clus>
<clus scale="   92.109">  7  8 -1 -1</clus>
<clus scale="  109.197">  2  5  1 -1</clus>
<clus scale="   46.085">  1  5  2 -1</clus>
</clustering>
</event>
<event>
10    2  0.3544405E-006  0.1424227E+03  0.7546771E-02  0.1227019E+00
         21   -1    0    0  501  502  0.00000000000E+00  0.00000000000E+00  0.72247055984E+03  0.72247055984E+03  0.00000000000E+00 0. -1.
          2   -1    0    0  503    0 -0.00000000000E+00 -0.00000000000E+00 -0.13075638572E+03  0.13075638572E+03  0.00000000000E+00 0. -1.
         23    2    1    2    0    0  0.39186505113E+01 -0.23447142156E+02  0.22055000073E+03  0.24160456130E+03  0.95735766146E+02 0.  0.
         23    2    1    2    0    0  0.68582543436E+02  0.68413016693E+02  0.28799091306E+02  0.13774984483E+03  0.93604091655E+02 0.  0.
        -13    1    3    3    0    0  0.39381905380E+02 -0.22985851128E+02  0.18804944651E+03  0.19349903916E+03  0.00000000000E+00 0.  1.
         13    1    3    3    0    0 -0.35463254868E+02 -0.46129102795E+00  0.32500554221E+02  0.48105522135E+02  0.00000000000E+00 0. -1.
        -13    1    4    4    0    0 -0.33728131949E+01  0.20132653915E+02 -0.27623318762E+02  0.34347450589E+02  0.00000000000E+00 0. -1.
         13    1    4    4    0    0  0.71955356631E+02  0.48280362777E+02  0.56422410068E+02  0.10340239425E+03  0.00000000000E+00 0.  1.
         21    1    1    2  503  502  0.35697477017E+02 -0.21372118972E+02 -0.50653323133E+02  0.65550259185E+02  0.00000000000E+00 0. -1.
          2    1    1    2  501    0 -0.10819867096E+03 -0.23593755564E+02  0.39301840522E+03  0.40832228025E+03  0.00000000000E+00 0. -1.
<scales pt_clust_5="13000.00000" pt_clust_6="13000.00000" pt_clust_7="13000.00000" pt_clust_8="13000.00000" pt_clust_9="41.60622" pt_clust_10="107.34294"></scales>
<clustering>
<clus scale="   41.606">  2  9  1 -1</clus>
<clus scale="   93.604">  7  8 -1 -1</clus>
<clus scale="   95.736">  5  6 -1 -1</clus>
<clus scale="   99.763">  2  5  1 -1</clus>
<clus scale="  107.343">  1 10  2 -1</clus>
<clus scale="  107.343">  1  5  2 -1</clus>
</clustering>
</event>
<event>
10    2  0.3544405E-006  0.9768834E+02  0.7546771E-02  0.1285925E+00
         21   -1    0    0  503  502  0.00000000000E+00  0.00000000000E+00  0.55968289507E+02  0.55968289507E+02  0.00000000000E+00 0.  1.
         -1   -1    0    0    0  501 -0.00000000000E+00 -0.00000000000E+00 -0.35600398905E+03  0.35600398905E+03  0.00000000000E+00 0.  1.
         23    2    1    2    0    0 -0.33234033537E+02 -0.55416701636E+01 -0.11054647406E+03  0.14597928228E+03  0.89186416189E+02 0.  0.
         23    2    1    2    0    0  0.39526945106E+02  0.29786822394E+02 -0.87459214504E+02  0.13527237988E+03  0.90553124630E+02 0.  0.
        -11    1    4    4    0    0 -0.13989869284E+02  0.45212555967E+02 -0.36284240667E+02  0.59635876621E+02  0.00000000000E+00 0. -1.
         11    1    4    4    0    0  0.53516814390E+02 -0.15425733573E+02 -0.51174973837E+02  0.75636503263E+02  0.00000000000E+00 0.  1.
        -11    1    3    3    0    0 -0.59759150978E+02 -0.19284821315E+02 -0.57724208515E+02  0.85294458832E+02  0.00000000000E+00 0.  1.
         11    1    3    3    0    0  0.26525117441E+02  0.13743151152E+02 -0.52822265547E+02  0.60684823443E+02  0.00000000000E+00 0. -1.
         21    1    1    2  503  501  0.20625077727E+02 -0.16089116706E+01 -0.91785846378E+02  0.94088384104E+02  0.00000000000E+00 0.  1.
         -1    1    1    2    0  502 -0.26917989296E+02 -0.22636240560E+02 -0.10244164597E+02  0.36632232292E+02  0.00000000000E+00 0.  1.
<scales pt_clust_5="13000.00000" pt_clust_6="13000.00000" pt_clust_7="13000.00000" pt_clust_8="13000.00000" pt_clust_9="20.68774" pt_clust_10="33.88119"></scales>
<clustering>
<clus scale="   20.688">  2  9  1 -1</clus>
<clus scale="   33.881">  1 10  2 -1</clus>
<clus scale="   89.186">  7  8 -1 -1</clus>
<clus scale="   90.553">  5  6 -1 -1</clus>
<clus scale="   96.423">  2  7  1 -1</clus>
<clus scale="   33.881">  1  5  2 -1</clus>
</clustering>
</event>
<event>
10    2  0.3544405E-006  0.9301650E+02  0.7546771E-02  0.1298020E+00
          1   -1    0    0  503    0 -0.00000000000E+00  0.00000000000E+00  0.38118592815E+03  0.38118592815E+03  0.00000000000E+00 0. -1.
         21   -1    0    0  501  502  0.00000000000E+00 -0.00000000000E+00 -0.17619964778E+03  0.17619964778E+03  0.00000000000E+00 0. -1.
         23    2    1    2    0    0 -0.12725611163E+02 -0.57805660605E+01  0.13984223428E+03  0.16717362864E+03  0.90530743405E+02 0.  0.
         23    2    1    2    0    0 -0.27392228891E+02 -0.54835700175E+02 -0.14173314721E+01  0.10603971443E+03  0.86516611071E+02 0.  0.
        -11    1    3    3    0    0  0.12882778507E+02 -0.29958338264E+02  0.12460222327E+03  0.12879899867E+03  0.00000000000E+00 0.  1.
         11    1    3    3    0    0 -0.25608389670E+02  0.24177772204E+02  0.15240011012E+02  0.38374629977E+02  0.00000000000E+00 0. -1.
        -13    1    4    4    0    0  0.36152749879E+01  0.22150067843E+02  0.42844580189E+01  0.22848463826E+02  0.00000000000E+00 0.  1.
         13    1    4    4    0    0 -0.31007503879E+02 -0.76985768018E+02 -0.57017894910E+01  0.83191250606E+02  0.00000000000E+00 0. -1.
         21    1    1    2  503  502  0.21707362345E+02  0.22822742105E+02  0.16980305384E+03  0.17269963587E+03  0.00000000000E+00 0.  1.
          1    1    1    2  501    0  0.18410477709E+02  0.37793524130E+02 -0.10324167628E+03  0.11147259698E+03  0.00000000000E+00 0. -1.
<scales pt_clust_5="13000.00000" pt_clust_6="13000.00000" pt_clust_7="13000.00000" pt_clust_8="13000.00000" pt_clust_9="31.49741" pt_clust_10="42.62821"></scales>
<clustering>
<clus scale="   31.497">  1  9  2 -1</clus>
<clus scale="   42.628">  2 10  1 -1</clus>
<clus scale="   86.517">  7  8 -1 -1</clus>
<clus scale="   89.114">  2  7  1 -1</clus>
<clus scale="   90.531">  5  6 -1 -1</clus>
<clus scale="   42.628">  2  5  1 -1</clus>
</clustering>
</event>
<event>
10    2  0.3544405E-006  0.1454393E+03  0.7546771E-02  0.1206634E+00
         21   -1    0    0  501  502  0.00000000000E+00  0.00000000000E+00  0.76375062256E+02  0.76375062256E+02  0.00000000000E+00 0. -1.
          1   -1    0    0  503    0 -0.00000000000E+00 -0.00000000000E+00 -0.14384461767E+04  0.14384461767E+04  0.00000000000E+00 0. -1.
         23    2    1    2    0    0  0.78597367617E+02 -0.97608734449E+02 -0.76973841877E+03  0.78516227420E+03  0.90981054389E+02 0.  0.
         23    2    1    2    0    0 -0.98423977547E+02  0.44436414396E+02 -0.47870719153E+03  0.49870022892E+03  0.88766372140E+02 0.  0.
        -11    1    4    4    0    0 -0.10054764355E+03  0.20349844483E+02 -0.44810669892E+03  0.45969942181E+03  0.00000000000E+00 0.  1.
         11    1    4    4    0    0  0.21236660067E+01  0.24086569912E+02 -0.30600492613E+02  0.39000807115E+02  0.00000000000E+00 0. -1.
        -13    1    3    3    0    0  0.54851425141E+02 -0.11365484656E+03 -0.62476436343E+03  0.63738262668E+03  0.00000000000E+00 0. -1.
         13    1    3    3    0    0  0.23745942476E+02  0.16046112110E+02 -0.14497405534E+03  0.14777964752E+03  0.00000000000E+00 0.  1.
         21    1    1    2  503  502  0.13457586161E+02  0.27726117978E+02 -0.16788545823E+03  0.17069086481E+03  0.00000000000E+00 0. -1.
          1    1    1    2  501    0  0.63690237692E+01  0.25446202076E+02  0.54259954073E+02  0.60267871042E+02  0.00000000000E+00 0. -1.
<scales pt_clust_5="13000.00000" pt_clust_6="13000.00000" pt_clust_7="13000.00000" pt_clust_8="13000.00000" pt_clust_9="32.70627" pt_clust_10="26.23116"></scales>
<clustering>
<clus scale="   26.231">  1 10  2 -1</clus>
<clus scale="   32.706">  2  9  1 -1</clus>
<clus scale="   88.766">  5  6 -1 -1</clus>
<clus scale="   90.981">  7  8 -1 -1</clus>
<clus scale="  144.064">  1  5  2 -1</clus>
<clus scale="   26.231">  1  5  2 -1</clus>
</clustering>
</event>
<event>
10    2  0.3544405E-006  0.1121058E+03  0.7546771E-02  0.1257912E+00
         21   -1    0    0  501  502  0.00000000000E+00  0.00000000000E+00  0.20060540442E+03  0.20060540442E+03  0.00000000000E+00 0. -1.
          1   -1    0    0  503    0 -0.00000000000E+00 -0.00000000000E+00 -0.59434007209E+03  0.59434007209E+03  0.00000000000E+00 0. -1.
         23    2    1    2    0    0 -0.71527363598E+02  0.25887732258E+02 -0.24146475613E+03  0.26873024548E+03  0.90135331345E+02 0.  0.
         23    2    1    2    0    0  0.28701301478E+02 -0.52478695161E+02 -0.23107875765E+03  0.25627606179E+03  0.93285848123E+02 0.  0.
        -11    1    4    4    0    0  0.52378181493E+02 -0.16638883368E+02 -0.66940632558E+02  0.86610476407E+02  0.00000000000E+00 0.  1.
         11    1    4    4    0    0 -0.23676880015E+02 -0.35839811794E+02 -0.16413812509E+03  0.16966558538E+03  0.00000000000E+00 0. -1.
        -13    1    3    3    0    0 -0.54498042340E+02 -0.28037797391E+02 -0.13125998141E+03  0.14486316792E+03  0.00000000000E+00 0. -1.
         13    1    3    3    0    0 -0.17029321259E+02  0.53925529649E+02 -0.11020477472E+03  0.12386707755E+03  0.00000000000E+00 0.  1.
         21    1    1    2  503  502  0.38475943889E+02 -0.11622607101E+02 -0.89065961062E+02  0.97715038115E+02  0.00000000000E+00 0. -1.
          1    1    1    2  501    0  0.43501182322E+01  0.38213570004E+02  0.16787480717E+03  0.17222413113E+03  0.00000000000E+00 0. -1.
<scales pt_clust_5="13000.00000" pt_clust_6="13000.00000" pt_clust_7="13000.00000" pt_clust_8="13000.00000" pt_clust_9="39.58246" pt_clust_10="38.46038"></scales>
<clustering>
<clus scale="   38.460">  1 10  2 -1</clus>
<clus scale="   39.582">  2  9  1 -1</clus>
<clus scale="   90.135">  7  8 -1 -1</clus>
<clus scale="   93.286">  5  6 -1 -1</clus>
<clus scale="  109.498">  2  7  1 -1</clus>
<clus scale="   38.460">  1  5  2 -1</clus>
</clustering>
</event>
<event>
10    2  0.3544405E-006  0.1922628E+03  0.7546771E-02  0.1156646E+00
          1   -1    0    0  503    0 -0.00000000000E+00  0.00000000000E+00  0.87159277896E+03  0.87159277896E+03  0.00000000000E+00 0. -1.
         21   -1    0    0  501  502  0.00000000000E+00 -0.00000000000E+00 -0.13746902694E+03  0.13746902694E+03  0.00000000000E+00 0.  1.
         23    2    1    2    0    0 -0.14963279136E+03  0.18816339091E+02  0.51130625900E+03  0.54069521995E+03  0.90405771531E+02 0.  0.
         23    2    1    2    0    0  0.14110145350E+03 -0.14477574691E+03  0.87531061461E+02  0.23888419484E+03  0.92381463250E+02 0.  0.
        -11    1    3    3    0    0 -0.54442167729E+02 -0.36336696007E+02  0.20782368305E+03  0.21788755894E+03  0.00000000000E+00 0.  1.
         11    1    3    3    0    0 -0.95190623628E+02  0.55153035098E+02  0.30348257594E+03  0.32280766101E+03  0.00000000000E+00 0. -1.
        -11    1    4    4    0    0  0.14134533131E+03 -0.11886083143E+03  0.46648887302E+02  0.19047970657E+03  0.00000000000E+00 0.  1.
         11    1    4    4    0    0 -0.24387780322E+00 -0.25914915479E+02  0.40882174159E+02  0.48404488270E+02  0.00000000000E+00 0. -1.
         21    1    1    2  503  502 -0.21265023352E+02  0.23566993759E+02  0.11707108295E+03  0.12129815693E+03  0.00000000000E+00 0. -1.
          1    1    1    2  501    0  0.29796361205E+02  0.10239241406E+03  0.18215348616E+02  0.10818423417E+03  0.00000000000E+00 0. -1.
<scales pt_clust_5="13000.00000" pt_clust_6="13000.00000" pt_clust_7="13000.00000" pt_clust_8="13000.00000" pt_clust_9="31.74279" pt_clust_10="108.06515"></scales>
<clustering>
<clus scale="   31.743">  1  9  2 -1</clus>
<clus scale="   90.406">  5  6 -1 -1</clus>
<clus scale="   92.381">  7  8 -1 -1</clus>
<clus scale="  108.065">  2 10  1 -1</clus>
<clus scale="  191.321">  1  5  2 -1</clus>
<clus scale="  108.065">  2  5  1 -1</clus>
</clustering>
</event>
<event>
10    2  0.3544405E-006  0.1209835E+03  0.7546771E-02  0.1241623E+00
          1   -1    0    0  503    0 -0.00000000000E+00  0.00000000000E+00  0.49294161495E+03  0.49294161495E+03  0.00000000000E+00 0. -1.
         21   -1    0    0  501  502  0.00000000000E+00 -0.00000000000E+00 -0.15951202799E+03  0.15951202799E+03  0.00000000000E+00 0.  1.
         23    2    1    2    0    0 -0.15644462848E+02  0.49835808405E+02  0.25375014883E+03  0.27450831325E+03  0.90759677130E+02 0.  0.
         23    2    1    2    0    0 -0.48519016931E+01 -0.37896253654E+02 -0.94470602681E+02  0.13676394694E+03  0.91214118530E+02 0.  0.
        -11    1    4    4    0    0  0.36871333520E+02 -0.34845169203E+02 -0.75180444433E+02  0.90696087443E+02  0.00000000000E+00 0.  1.
         11    1    4    4    0    0 -0.41723235213E+02 -0.30510844509E+01 -0.19290158248E+02  0.46067859492E+02  0.00000000000E+00 0. -1.
        -13    1    3    3    0    0  0.37572647803E+02  0.22933066441E+02  0.12748584985E+03  0.13487131390E+03  0.00000000000E+00 0.  1.
         13    1    3    3    0    0 -0.53217110651E+02  0.26902741964E+02  0.12626429898E+03  0.13963699935E+03  0.00000000000E+00 0. -1.
         21    1    1    2  503  502  0.77445886863E+00  0.41985074890E+02  0.17871513286E+03  0.18358225680E+03  0.00000000000E+00 0. -1.
          1    1    1    2  501    0  0.19721905673E+02 -0.53924629641E+02 -0.45650920517E+01  0.57599125954E+02  0.00000000000E+00 0. -1.
<scales pt_clust_5="13000.00000" pt_clust_6="13000.00000" pt_clust_7="13000.00000" pt_clust_8="13000.00000" pt_clust_9="41.99222" pt_clust_10="54.10244"></scales>
<clustering>
<clus scale="   41.992">  1  9  2 -1</clus>
<clus scale="   54.102">  2 10  1 -1</clus>
<clus scale="   90.760">  7  8 -1 -1</clus>
<clus scale="   91.214">  5  6 -1 -1</clus>
<clus scale="  120.641">  1  7  2 -1</clus>
<clus scale="   54.102">  2  5  1 -1</clus>
</clustering>
</event>
<event>
10    2  0.3544405E-006  0.2525542E+03  0.7546771E-02  0.1111751E+00
         -1   -1    0    0    0  501 -0.00000000000E+00  0.00000000000E+00  0.65108821596E+03  0.65108821596E+03  0.00000000000E+00 0.  1.
         21   -1    0    0  503  502  0.00000000000E+00 -0.00000000000E+00 -0.46355053511E+03  0.46355053511E+03  0.00000000000E+00 0.  1.
         23    2    1    2    0    0  0.76873539405E+02 -0.25458764156E+03  0.46962852579E+03  0.54721991981E+03  0.90411725469E+02 0.  0.
         23    2    1    2    0    0 -0.43683157216E+02  0.15606313411E+03  0.13899988667E+01  0.18514861304E+03  0.89521822810E+02 0.  0.
        -13    1    4    4    0    0 -0.68041143234E+02  0.10982915573E+03 -0.15744094598E+02  0.13015343690E+03  0.00000000000E+00 0.  1.
         13    1    4    4    0    0  0.24357986018E+02  0.46233978381E+02  0.17134093465E+02  0.54995176140E+02  0.00000000000E+00 0. -1.
        -13    1    3    3    0    0  0.50824589745E+02 -0.11878523652E+03  0.14410361810E+03  0.19354308070E+03  0.00000000000E+00 0. -1.
         13    1    3    3    0    0  0.26048949660E+02 -0.13580240504E+03  0.32552490769E+03  0.35367683910E+03  0.00000000000E+00 0.  1.
         21    1    1    2  503  501 -0.32161759665E+02 -0.17831994474E+02  0.30274260752E+02  0.47632863401E+02  0.00000000000E+00 0. -1.
         -1    1    1    2    0  502 -0.10286225243E+01  0.11635650192E+03 -0.31375510456E+03  0.33463735482E+03  0.00000000000E+00 0.  1.
<scales pt_clust_5="13000.00000" pt_clust_6="13000.00000" pt_clust_7="13000.00000" pt_clust_8="13000.00000" pt_clust_9="36.77443" pt_clust_10="116.06306"></scales>
<clustering>
<clus scale="   36.774">  1  9  2 -1</clus>
<clus scale="   89.522">  5  6 -1 -1</clus>
<clus scale="   90.412">  7  8 -1 -1</clus>
<clus scale="  116.063">  2 10  1 -1</clus>
<clus scale="  252.237">  2  5  1 -1</clus>
<clus scale="  116.063">  2  5  1 -1</clus>
</clustering>
</event>
<event>
10    2  0.3544405E-006  0.1506604E+03  0.7546771E-02  0.1199867E+00
         21   -1    0    0  503  502  0.00000000000E+00  0.00000000000E+00  0.23123412999E+03  0.23123412999E+03  0.00000000000E+00 0.  1.
         -1   -1    0    0    0  501 -0.00000000000E+00 -0.00000000000E+00 -0.34208949723E+03  0.34208949723E+03  0.00000000000E+00 0.  1.
         23    2    1    2    0    0  0.98960275255E+02 -0.13665922039E+02 -0.39060602818E+02  0.14031747472E+03  0.90461978288E+02 0.  0.
         23    2    1    2    0    0 -0.15290793224E+03  0.58560984047E+02  0.81287316159E+02  0.20347490558E+03  0.89354265905E+02 0.  0.
        -11    1    4    4    0    0 -0.11915013200E+03  0.74131434062E+02  0.35980492629E+02  0.14486828266E+03  0.00000000000E+00 0.  1.
         11    1    4    4    0    0 -0.33757800244E+02 -0.15570450015E+02  0.45306823531E+02  0.58606622915E+02  0.00000000000E+00 0. -1.
        -13    1    3    3    0    0  0.50007129667E+02  0.44560719742E+01 -0.64916260609E+02  0.82065160004E+02  0.00000000000E+00 0.  1.
         13    1    3    3    0    0  0.48953145588E+02 -0.18121994014E+02  0.25855657792E+02  0.58252314717E+02  0.00000000000E+00 0. -1.
         21    1    1    2  503  501  0.15548951355E+02  0.14229198874E+02 -0.15749023984E+03  0.15889435369E+03  0.00000000000E+00 0. -1.
         -1    1    1    2    0  502  0.38398705632E+02 -0.59124260881E+02  0.44081592563E+01  0.70636893243E+02  0.00000000000E+00 0.  1.
<scales pt_clust_5="13000.00000" pt_clust_6="13000.00000" pt_clust_7="13000.00000" pt_clust_8="13000.00000" pt_clust_9="21.07700" pt_clust_10="69.97564"></scales>
<clustering>
<clus scale="   21.077">  2  9  1 -1</clus>
<clus scale="   69.976">  1 10  2 -1</clus>
<clus scale="   89.354">  5  6 -1 -1</clus>
<clus scale="   90.462">  7  8 -1 -1</clus>
<clus scale="  149.998">  1  5  2 -1</clus>
<clus scale="   69.976">  1  5  2 -1</clus>
</clustering>
</event>
<event>
10    2  0.3544405E-006  0.1163594E+03  0.7546771E-02  0.1249418E+00
         21   -1    0    0  503  502  0.00000000000E+00  0.00000000000E+00  0.89540528528E+02  0.89540528528E+02  0.00000000000E+00 0.  1.
         -4   -1    0    0    0  501 -0.00000000000E+00 -0.00000000000E+00 -0.56164272259E+03  0.56164272259E+03  0.00000000000E+00 0.  1.
         23    2    1    2    0    0  0.86127074106E+02 -0.42936810446E+02 -0.10975770465E+03  0.17212940183E+03  0.91215868461E+02 0.  0.
         23    2    1    2    0    0 -0.55772921470E+02 -0.27304147761E+02 -0.37869112670E+02  0.11622047735E+03  0.90647638730E+02 0.  0.
        -11    1    4    4    0    0 -0.38944852651E+02 -0.51450299636E+02 -0.52653673730E+02  0.83284117561E+02  0.00000000000E+00 0.  1.
         11    1    4    4    0    0 -0.16828068819E+02  0.24146151875E+02  0.14784561060E+02  0.32936359791E+02  0.00000000000E+00 0. -1.
        -13    1    3    3    0    0  0.80325045915E+02  0.85348970669E+01 -0.68379754997E+02  0.10583358806E+03  0.00000000000E+00 0.  1.
         13    1    3    3    0    0  0.58020281914E+01 -0.51471707513E+02 -0.41377949648E+02  0.66295813763E+02  0.00000000000E+00 0. -1.
         21    1    1    2  503  501 -0.22481380701E+01  0.69173676407E+02 -0.32732606607E+03  0.33456300627E+03  0.00000000000E+00 0.  1.
         -4    1    1    2    0  502 -0.28106014566E+02  0.10672817995E+01  0.28506893316E+01  0.28270365666E+02  0.00000000000E+00 0.  1.
<scales pt_clust_5="13000.00000" pt_clust_6="13000.00000" pt_clust_7="13000.00000" pt_clust_8="13000.00000" pt_clust_9="69.32061" pt_clust_10="28.12627"></scales>
<clustering>
<clus scale="   28.126">  1 10  2 -1</clus>
<clus scale="   69.321">  2  9  1 -1</clus>
<clus scale="   90.648">  5  6 -1 -1</clus>
<clus scale="   91.216">  7  8 -1 -1</clus>
<clus scale="  115.915">  1  5  2 -1</clus>
<clus scale="   28.126">  1  5  2 -1</clus>
</clustering>
</event>
<event>
10    2  0.3544405E-006  0.1529312E+03  0.7546771E-02  0.1213477E+00
          2   -1    0    0  503    0 -0.00000000000E+00  0.00000000000E+00  0.24427241562E+03  0.24427241562E+03  0.00000000000E+00 0. -1.
         21   -1    0    0  501  502  0.00000000000E+00 -0.00000000000E+00 -0.38681524924E+03  0.38681524924E+03  0.00000000000E+00 0. -1.
         23    2    1    2    0    0  0.10709454821E+02 -0.58821581829E+02 -0.12446137804E+03  0.16549215548E+03  0.91226903871E+02 0.  0.
         23    2    1    2    0    0 -0.17903757841E+02 -0.97609356196E+02  0.14511430401E+03  0.19934662982E+03  0.93982906056E+02 0.  0.
        -13    1    4    4    0    0  0.30081256674E+02 -0.51586468866E+02  0.31019021119E+02  0.67292090503E+02  0.00000000000E+00 0.  1.
         13    1    4    4    0    0 -0.47985014515E+02 -0.46022887330E+02  0.11409528289E+03  0.13205453932E+03  0.00000000000E+00 0. -1.
        -13    1    3    3    0    0  0.38558966382E+02 -0.65305143976E+02 -0.66516970280E+02  0.10087647423E+03  0.00000000000E+00 0. -1.
         13    1    3    3    0    0 -0.27849511561E+02  0.64835621465E+01 -0.57944407764E+02  0.64615681250E+02  0.00000000000E+00 0.  1.
         21    1    1    2  503  502 -0.17912466928E+02  0.36051911800E+02  0.20513632187E+02  0.45181920293E+02  0.00000000000E+00 0. -1.
          2    1    1    2  501    0  0.25106769948E+02  0.12037902623E+03 -0.18370939177E+03  0.22106695926E+03  0.00000000000E+00 0. -1.
<scales pt_clust_5="13000.00000" pt_clust_6="13000.00000" pt_clust_7="13000.00000" pt_clust_8="13000.00000" pt_clust_9="40.25664" pt_clust_10="120.64480"></scales>
<clustering>
<clus scale="   40.257">  1  9  2 -1</clus>
<clus scale="   91.227">  7  8 -1 -1</clus>
<clus scale="   93.983">  5  6 -1 -1</clus>
<clus scale="  107.068">  1  7  2 -1</clus>
<clus scale="  120.645">  2 10  1 -1</clus>
<clus scale="  120.645">  2  5  1 -1</clus>
</clustering>
</event>
<event>
10    2  0.3544405E-006  0.1199459E+03  0.7546771E-02  0.1244216E+00
         -1   -1    0    0    0  501 -0.00000000000E+00  0.00000000000E+00  0.25078577473E+03  0.25078577473E+03  0.00000000000E+00 0.  1.
         21   -1    0    0  503  502  0.00000000000E+00 -0.00000000000E+00 -0.26493611271E+03  0.26493611271E+03  0.00000000000E+00 0.  1.
         23    2    1    2    0    0 -0.16206516351E+02  0.75030510574E+02  0.85791932157E+02  0.14666040698E+03  0.90866884296E+02 0.  0.
         23    2    1    2    0    0 -0.54845912062E+02 -0.71945336445E+02  0.19109504678E+02  0.13187964898E+03  0.94036498976E+02 0.  0.
        -11    1    3    3    0    0 -0.53217085320E+02  0.36660162959E+02  0.37417558529E+02  0.74673284409E+02  0.00000000000E+00 0. -1.
         11    1    3    3    0    0  0.37010568969E+02  0.38370347614E+02  0.48374373629E+02  0.71987122566E+02  0.00000000000E+00 0.  1.
        -11    1    4    4    0    0 -0.69981050856E+02 -0.17924916232E+02  0.22537990960E+02  0.75674375699E+02  0.00000000000E+00 0.  1.
         11    1    4    4    0    0  0.15135138794E+02 -0.54020420214E+02 -0.34284862818E+01  0.56205273281E+02  0.00000000000E+00 0. -1.
         21    1    1    2  503  501  0.87493479967E+02 -0.23280001325E+02  0.22469817267E+02  0.93284297641E+02  0.00000000000E+00 0. -1.
         -1    1    1    2    0  502 -0.16441051553E+02  0.20194827196E+02 -0.14152159209E+03  0.14389753385E+03  0.00000000000E+00 0.  1.
<scales pt_clust_5="13000.00000" pt_clust_6="13000.00000" pt_clust_7="13000.00000" pt_clust_8="13000.00000" pt_clust_9="84.54689" pt_clust_10="26.04111"></scales>
<clustering>
<clus scale="   26.041">  2 10  1 -1</clus>
<clus scale="   84.547">  2  9  1 -1</clus>
<clus scale="   90.867">  5  6 -1 -1</clus>
<clus scale="   94.036">  7  8 -1 -1</clus>
<clus scale="  117.477">  1  5  2 -1</clus>
<clus scale="   26.041">  2  5  1 -1</clus>
</clustering>
</event>
<event>
10    2  0.3544405E-006  0.1394498E+03  0.7546771E-02  0.1216066E+00
          1   -1    0    0  503    0 -0.00000000000E+00  0.00000000000E+00  0.11756361399E+03  0.11756361399E+03  0.00000000000E+00 0. -1.
         21   -1    0    0  501  502  0.00000000000E+00 -0.00000000000E+00 -0.73652780314E+03  0.73652780314E+03  0.00000000000E+00 0.  1.
         23    2    1    2    0    0  0.91729288915E+02  0.10834249393E+03  0.21182887115E+02  0.16884801460E+03  0.88930191110E+02 0.  0.
         23    2    1    2    0    0 -0.25258766686E+02 -0.74106369064E+02 -0.40683855120E+03  0.42559494296E+03  0.97384236427E+02 0.  0.
        -11    1    4    4    0    0 -0.17766073254E+01  0.22174506100E+02 -0.12192077802E+03  0.12393361597E+03  0.00000000000E+00 0. -1.
         11    1    4    4    0    0 -0.23482159361E+02 -0.96280875164E+02 -0.28491777318E+03  0.30166132699E+03  0.00000000000E+00 0.  1.
        -13    1    3    3    0    0  0.57216279172E+02  0.63233825255E+01  0.20624078916E+02  0.61147693334E+02  0.00000000000E+00 0.  1.
         13    1    3    3    0    0  0.34513009743E+02  0.10201911141E+03  0.55880819831E+00  0.10770032127E+03  0.00000000000E+00 0. -1.
         21    1    1    2  503  502 -0.16573449239E+02 -0.41135514534E+02 -0.39460721212E+02  0.59362937042E+02  0.00000000000E+00 0. -1.
          1    1    1    2  501    0 -0.49897072990E+02  0.68993896640E+01 -0.19384780386E+03  0.20028552252E+03  0.00000000000E+00 0. -1.
<scales pt_clust_5="13000.00000" pt_clust_6="13000.00000" pt_clust_7="13000.00000" pt_clust_8="13000.00000" pt_clust_9="44.34873" pt_clust_10="50.71067"></scales>
<clustering>
<clus scale="   44.349">  1  9  2 -1</clus>
<clus scale="   50.711">  2 10  1 -1</clus>
<clus scale="   88.930">  7  8 -1 -1</clus>
<clus scale="   97.384">  5  6 -1 -1</clus>
<clus scale="  133.683">  1  7  2 -1</clus>
<clus scale="   50.711">  2  5  1 -1</clus>
</clustering>
</event>
<event>
10    2  0.3544405E-006  0.2462112E+03  0.7546771E-02  0.1115731E+00
         21   -1    0    0  503  502  0.00000000000E+00  0.00000000000E+00  0.21400999108E+03  0.21400999108E+03  0.00000000000E+00 0.  1.
         -1   -1    0    0    0  501 -0.00000000000E+00 -0.00000000000E+00 -0.65234795091E+03  0.65234795091E+03  0.00000000000E+00 0.  1.
         23    2    1    2    0    0 -0.19781548284E+03  0.11672428293E+03 -0.21075480361E+03  0.32426477984E+03  0.89300261624E+02 0.  0.
         23    2    1    2    0    0  0.18771952551E+03 -0.12052598103E+03 -0.38610357891E+02  0.24342466316E+03  0.89440899695E+02 0.  0.
        -11    1    3    3    0    0 -0.19345031102E+03  0.89948139953E+02 -0.15984872859E+03  0.26658076965E+03  0.00000000000E+00 0.  1.
         11    1    3    3    0    0 -0.43651718129E+01  0.26776142976E+02 -0.50906075023E+02  0.57684010193E+02  0.00000000000E+00 0. -1.
        -13    1    4    4    0    0  0.10029083384E+03 -0.11025388250E+03 -0.43489518758E+02  0.15525948667E+03  0.00000000000E+00 0.  1.
         13    1    4    4    0    0  0.87428691666E+02 -0.10272098527E+02  0.48791608671E+01  0.88165176489E+02  0.00000000000E+00 0. -1.
         21    1    1    2  503  501 -0.21873538021E+02 -0.21642858311E+02 -0.23506662854E+03  0.23707210893E+03  0.00000000000E+00 0. -1.
         -1    1    1    2    0  502  0.31969495349E+02  0.25444556411E+02  0.46093830212E+02  0.61596390052E+02  0.00000000000E+00 0.  1.
<scales pt_clust_5="13000.00000" pt_clust_6="13000.00000" pt_clust_7="13000.00000" pt_clust_8="13000.00000" pt_clust_9="30.77117" pt_clust_10="40.28960"></scales>
<clustering>
<clus scale="   30.771">  2  9  1 -1</clus>
<clus scale="   40.290">  1 10  2 -1</clus>
<clus scale="   89.300">  5  6 -1 -1</clus>
<clus scale="   89.441">  7  8 -1 -1</clus>
<clus scale="  246.160">  2  5  1 -1</clus>
<clus scale="   40.290">  1  5  2 -1</clus>
</clustering>
</event>
<event>
10    2  0.3544405E-006  0.1173460E+03  0.7546771E-02  0.1252116E+00
          1   -1    0    0  503    0 -0.00000000000E+00  0.00000000000E+00  0.48654991887E+03  0.48654991887E+03  0.00000000000E+00 0. -1.
         21   -1    0    0  501  502  0.00000000000E+00 -0.00000000000E+00 -0.16658689695E+03  0.16658689695E+03  0.00000000000E+00 0. -1.
         23    2    1    2    0    0  0.65671070266E+02  0.31767346580E+02  0.20646454910E+03  0.23727703099E+03  0.91383399052E+02 0.  0.
         23    2    1    2    0    0 -0.36230033065E+02 -0.18462403579E+02  0.10762291072E+03  0.15455776182E+03  0.10320821278E+03 0.  0.
        -11    1    4    4    0    0 -0.19113182652E+02 -0.38841184190E+02  0.11823186835E+03  0.12590760912E+03  0.00000000000E+00 0. -1.
         11    1    4    4    0    0 -0.17116850413E+02  0.20378780611E+02 -0.10608957637E+02  0.28650152694E+02  0.00000000000E+00 0.  1.
        -13    1    3    3    0    0  0.28728223357E+02 -0.31023876608E+02  0.96649207376E+02  0.10549341697E+03  0.00000000000E+00 0. -1.
         13    1    3    3    0    0  0.36942846908E+02  0.62791223188E+02  0.10981534173E+03  0.13178361403E+03  0.00000000000E+00 0.  1.
         21    1    1    2  503  502 -0.11057456412E+02 -0.25104580519E+02  0.13122592159E+03  0.13406248469E+03  0.00000000000E+00 0. -1.
          1    1    1    2  501    0 -0.18383580788E+02  0.11799637518E+02 -0.12535035949E+03  0.12723953832E+03  0.00000000000E+00 0. -1.
<scales pt_clust_5="13000.00000" pt_clust_6="13000.00000" pt_clust_7="13000.00000" pt_clust_8="13000.00000" pt_clust_9="27.32316" pt_clust_10="21.84462"></scales>
<clustering>
<clus scale="   21.845">  2 10  1 -1</clus>
<clus scale="   27.323">  1  9  2 -1</clus>
<clus scale="   91.383">  7  8 -1 -1</clus>
<clus scale="  103.208">  5  6 -1 -1</clus>
<clus scale="  107.094">  1  7  2 -1</clus>
<clus scale="   21.845">  2  5  1 -1</clus>
</clustering>
</event>
<event>
10    2  0.3544405E-006  0.1352919E+03  0.7546771E-02  0.1237955E+00
         21   -1    0    0  501  502  0.00000000000E+00  0.00000000000E+00  0.58023239543E+03  0.58023239543E+03  0.00000000000E+00 0. -1.
          4   -1    0    0  503    0 -0.00000000000E+00 -0.00000000000E+00 -0.13712634076E+03  0.13712634076E+03  0.00000000000E+00 0. -1.
         23    2    1    2    0    0 -0.24460892545E+01 -0.58473604271E+01  0.81087475191E+02  0.12329103532E+03  0.92657033090E+02 0.  0.
         23    2    1    2    0    0  0.84082972634E+02 -0.92567638359E+02  0.21660313656E+02  0.15679105442E+03  0.92062759034E+02 0.  0.
        -11    1    3    3    0    0 -0.17397247002E+02 -0.33179691943E+02  0.84024827077E+02  0.91998520238E+02  0.00000000000E+00 0. -1.
         11    1    3    3    0    0  0.14951157748E+02  0.27332331516E+02 -0.29373518862E+01  0.31292515083E+02  0.00000000000E+00 0.  1.
        -11    1    4    4    0    0  0.16603396407E+02 -0.84105224879E+02  0.10729771543E+01  0.85735132263E+02  0.00000000000E+00 0.  1.
         11    1    4    4    0    0  0.67479576227E+02 -0.84624134802E+01  0.20587336502E+02  0.71055922159E+02  0.00000000000E+00 0. -1.
         21    1    1    2  503  502 -0.21605272243E+02  0.22458184846E+02 -0.36608246231E+02  0.48076205626E+02  0.00000000000E+00 0.  1.
          4    1    1    2  501    0 -0.60031611136E+02  0.75956813941E+02  0.37696651206E+03  0.38920044082E+03  0.00000000000E+00 0. -1.
<scales pt_clust_5="13000.00000" pt_clust_6="13000.00000" pt_clust_7="13000.00000" pt_clust_8="13000.00000" pt_clust_9="31.16341" pt_clust_10="99.13798"></scales>
<clustering>
<clus scale="   31.163">  2  9  1 -1</clus>
<clus scale="   92.063">  7  8 -1 -1</clus>
<clus scale="   92.657">  5  6 -1 -1</clus>
<clus scale="   92.945">  2  5  1 -1</clus>
<clus scale="   99.138">  1 10  2 -1</clus>
<clus scale="   99.138">  1  5  2 -1</clus>
</clustering>
</event>
<event>
10    2  0.3544405E-006  0.1069126E+03  0.7546771E-02  0.1269022E+00
         21   -1    0    0  501  502  0.00000000000E+00  0.00000000000E+00  0.43223192499E+02  0.43223192499E+02  0.00000000000E+00 0. -1.
          2   -1    0    0  503    0 -0.00000000000E+00 -0.00000000000E+00 -0.77445296895E+03  0.77445296895E+03  0.00000000000E+00 0. -1.
         23    2    1    2    0    0 -0.62520131563E+02  0.33617433311E+02 -0.38507475464E+03  0.40168158119E+03  0.89591446755E+02 0.  0.
         23    2    1    2    0    0  0.60073595785E+02  0.52686158707E+01 -0.17760560194E+03  0.20518128531E+03  0.83180615380E+02 0.  0.
        -11    1    3    3    0    0  0.14100306137E+02  0.34916675320E+02 -0.12365606705E+03  0.12926258456E+03  0.00000000000E+00 0.  1.
         11    1    3    3    0    0 -0.76620437701E+02 -0.12992420089E+01 -0.26141868759E+03  0.27241899663E+03  0.00000000000E+00 0. -1.
        -11    1    4    4    0    0  0.72630943816E+02  0.26993461939E+02 -0.13898019134E+03  0.15912069184E+03  0.00000000000E+00 0. -1.
         11    1    4    4    0    0 -0.12557348031E+02 -0.21724846068E+02 -0.38625410606E+02  0.46060593469E+02  0.00000000000E+00 0.  1.
         21    1    1    2  503  502  0.16465647081E+02 -0.15704885614E+02 -0.17997798055E+03  0.18141067899E+03  0.00000000000E+00 0. -1.
          2    1    1    2  501    0 -0.14019111302E+02 -0.23181163567E+02  0.11428560690E+02  0.29402615963E+02  0.00000000000E+00 0. -1.
<scales pt_clust_5="13000.00000" pt_clust_6="13000.00000" pt_clust_7="13000.00000" pt_clust_8="13000.00000" pt_clust_9="22.75436" pt_clust_10="27.16714"></scales>
<clustering>
<clus scale="   22.754">  2  9  1 -1</clus>
<clus scale="   27.167">  1 10  2 -1</clus>
<clus scale="   83.181">  7  8 -1 -1</clus>
<clus scale="   89.591">  5  6 -1 -1</clus>
<clus scale="  101.601">  1  7  2 -1</clus>
<clus scale="   27.167">  1  5  2 -1</clus>
</clustering>
</event>
<event>
10    2  0.3544405E-006  0.1811663E+03  0.7546771E-02  0.1166754E+00
          1   -1    0    0  503    0 -0.00000000000E+00  0.00000000000E+00  0.99524316941E+03  0.99524316941E+03  0.00000000000E+00 0. -1.
         21   -1    0    0  501  502  0.00000000000E+00 -0.00000000000E+00 -0.56571578645E+02  0.56571578645E+02  0.00000000000E+00 0. -1.
         23    2    1    2    0    0 -0.16083011724E+03  0.13695579784E+02  0.60227299693E+03  0.63019158727E+03  0.91404476509E+02 0.  0.
         23    2    1    2    0    0  0.13674628547E+03  0.34637516521E+02  0.15003918103E+03  0.22506131604E+03  0.90782905843E+02 0.  0.
        -11    1    3    3    0    0 -0.12157505723E+03 -0.30633933378E+02  0.37892122659E+03  0.39912432696E+03  0.00000000000E+00 0. -1.
         11    1    3    3    0    0 -0.39255060005E+02  0.44329513162E+02  0.22335177034E+03  0.23106726031E+03  0.00000000000E+00 0.  1.
        -13    1    4    4    0    0  0.56977480706E+02  0.44199502275E+02  0.11857346620E+03  0.13877930752E+03  0.00000000000E+00 0.  1.
         13    1    4    4    0    0  0.79768804763E+02 -0.95619857543E+01  0.31465714834E+02  0.86282008524E+02  0.00000000000E+00 0. -1.
         21    1    1    2  503  502 -0.57522507483E+01 -0.19591293579E+02  0.75578465266E+02  0.78288004092E+02  0.00000000000E+00 0. -1.
          1    1    1    2  501    0  0.29836082517E+02 -0.28741802726E+02  0.11078094754E+03  0.11827384065E+03  0.00000000000E+00 0. -1.
<scales pt_clust_5="13000.00000" pt_clust_6="13000.00000" pt_clust_7="13000.00000" pt_clust_8="13000.00000" pt_clust_9="20.41830" pt_clust_10="42.66629"></scales>
<clustering>
<clus scale="   20.418">  1  9  2 -1</clus>
<clus scale="   42.666">  2 10  1 -1</clus>
<clus scale="   90.783">  7  8 -1 -1</clus>
<clus scale="   91.404">  5  6 -1 -1</clus>
<clus scale="  180.854">  2  7  1 -1</clus>
<clus scale="   42.666">  2  5  1 -1</clus>
</clustering>
</event>
<event>
10    2  0.3544405E-006  0.1165450E+03  0.7546771E-02  0.1249376E+00
          2   -1    0    0  503    0 -0.00000000000E+00  0.00000000000E+00  0.83984492037E+03  0.83984492037E+03  0.00000000000E+00 0. -1.
         21   -1    0    0  501  502  0.00000000000E+00 -0.00000000000E+00 -0.41749318450E+02  0.41749318450E+02  0.00000000000E+00 0.  1.
         23    2    1    2    0    0 -0.30341124535E+02 -0.36199263014E+02  0.18240253505E+03  0.20921675774E+03  0.90939520813E+02 0.  0.
         23    2    1    2    0    0  0.39786911931E+02  0.97246966736E+02  0.26112449869E+03  0.29537087086E+03  0.89543155170E+02 0.  0.
        -11    1    3    3    0    0  0.25446260137E+02  0.31464496711E+01  0.18357698265E+02  0.31534384188E+02  0.00000000000E+00 0.  1.
         11    1    3    3    0    0 -0.55787384672E+02 -0.39345712685E+02  0.16404483679E+03  0.17768237355E+03  0.00000000000E+00 0. -1.
        -13    1    4    4    0    0  0.52516590948E+02  0.28497181677E+02  0.70989891012E+02  0.92788179819E+02  0.00000000000E+00 0.  1.
         13    1    4    4    0    0 -0.12729679017E+02  0.68749785059E+02  0.19013460768E+03  0.20258269104E+03  0.00000000000E+00 0. -1.
         21    1    1    2  503  502  0.36524063726E+02 -0.30421956555E+02  0.28109238612E+03  0.28508320225E+03  0.00000000000E+00 0.  1.
          2    1    1    2  501    0 -0.45969851123E+02 -0.30625747168E+02  0.73476182064E+02  0.91923407968E+02  0.00000000000E+00 0. -1.
<scales pt_clust_5="13000.00000" pt_clust_6="13000.00000" pt_clust_7="13000.00000" pt_clust_8="13000.00000" pt_clust_9="47.53423" pt_clust_10="53.65639"></scales>
<clustering>
<clus scale="   47.534">  1  9  2 -1</clus>
<clus scale="   53.656">  2 10  1 -1</clus>
<clus scale="   89.543">  7  8 -1 -1</clus>
<clus scale="   90.940">  5  6 -1 -1</clus>
<clus scale="  115.459">  2  7  1 -1</clus>
<clus scale="   53.656">  2  5  1 -1</clus>
</clustering>
</event>
<event>
10    2  0.3544405E-006  0.1017970E+03  0.7546771E-02  0.1278490E+00
         21   -1    0    0  501  502  0.00000000000E+00  0.00000000000E+00  0.65730370916E+03  0.65730370916E+03  0.00000000000E+00 0.  1.
          3   -1    0    0  503    0 -0.00000000000E+00 -0.00000000000E+00 -0.38843575369E+02  0.38843575369E+02  0.00000000000E+00 0. -1.
         23    2    1    2    0    0 -0.34524418422E+02  0.54001792874E+02  0.19378465989E+03  0.22489356822E+03  0.94427186334E+02 0.  0.
         23    2    1    2    0    0  0.20694566078E+02 -0.26243800261E+01  0.28539947983E+03  0.30011382873E+03  0.90444981466E+02 0.  0.
        -13    1    4    4    0    0  0.10042664654E+02  0.43929324334E+02  0.13846238834E+03  0.14561069203E+03  0.00000000000E+00 0. -1.
         13    1    4    4    0    0  0.10651901424E+02 -0.46553704360E+02  0.14693709149E+03  0.15450313670E+03  0.00000000000E+00 0.  1.
        -13    1    3    3    0    0  0.20906707801E+02 -0.11505440360E+02  0.72460529466E+02  0.76288884639E+02  0.00000000000E+00 0. -1.
         13    1    3    3    0    0 -0.55431126223E+02  0.65507233234E+02  0.12132413042E+03  0.14860468358E+03  0.00000000000E+00 0.  1.
         21    1    1    2  503  502 -0.17633144830E+02 -0.56934202977E+02  0.55354255687E+02  0.81342024119E+02  0.00000000000E+00 0.  1.
          3    1    1    2  501    0  0.31462997173E+02  0.55567901287E+01  0.83921738389E+02  0.89797863460E+02  0.00000000000E+00 0. -1.
<scales pt_clust_5="13000.00000" pt_clust_6="13000.00000" pt_clust_7="13000.00000" pt_clust_8="13000.00000" pt_clust_9="57.95108" pt_clust_10="31.94993"></scales>
<clustering>
<clus scale="   31.950">  1 10  2 -1</clus>
<clus scale="   57.951">  2  9  1 -1</clus>
<clus scale="   90.445">  5  6 -1 -1</clus>
<clus scale="   94.427">  7  8 -1 -1</clus>
<clus scale="   98.114">  1  5  2 -1</clus>
<clus scale="   31.950">  1  5  2 -1</clus>
</clustering>
</event>
<event>
10    2  0.3544405E-006  0.1042560E+03  0.7546771E-02  0.1272301E+00
         21   -1    0    0  501  502  0.00000000000E+00  0.00000000000E+00  0.94352101315E+02  0.94352101315E+02  0.00000000000E+00 0.  1.
          2   -1    0    0  503    0 -0.00000000000E+00 -0.00000000000E+00 -0.27823773793E+03  0.27823773793E+03  0.00000000000E+00 0. -1.
         23    2    1    2    0    0 -0.42977288597E+02 -0.41245136276E+02 -0.11149102537E+03  0.15548198808E+03  0.90532818789E+02 0.  0.
         23    2    1    2    0    0  0.56930678625E+02  0.93419233363E+01  0.95518474453E+00  0.10871212169E+03  0.92135982786E+02 0.  0.
        -11    1    4    4    0    0  0.43309645973E+02  0.48680010113E+02  0.10511810851E+02  0.65999749895E+02  0.00000000000E+00 0.  1.
         11    1    4    4    0    0  0.13621032652E+02 -0.39338086776E+02 -0.95566261061E+01  0.42712371794E+02  0.00000000000E+00 0. -1.
        -13    1    3    3    0    0 -0.32238182568E+02 -0.63008624374E+02 -0.11046162360E+03  0.13119130097E+03  0.00000000000E+00 0. -1.
         13    1    3    3    0    0 -0.10739106029E+02  0.21763488098E+02 -0.10294017697E+01  0.24290687115E+02  0.00000000000E+00 0.  1.
         21    1    1    2  503  502  0.23079601792E+02  0.57249809093E+01 -0.54162494112E+02  0.59152507924E+02  0.00000000000E+00 0.  1.
          2    1    1    2  501    0 -0.37032991820E+02  0.26178232030E+02 -0.19187301878E+02  0.49243221551E+02  0.00000000000E+00 0. -1.
<scales pt_clust_5="13000.00000" pt_clust_6="13000.00000" pt_clust_7="13000.00000" pt_clust_8="13000.00000" pt_clust_9="23.77905" pt_clust_10="43.04128"></scales>
<clustering>
<clus scale="   23.779">  2  9  1 -1</clus>
<clus scale="   43.041">  1 10  2 -1</clus>
<clus scale="   90.533">  7  8 -1 -1</clus>
<clus scale="   92.136">  5  6 -1 -1</clus>
<clus scale="  102.842">  2  7  1 -1</clus>
<clus scale="   43.041">  1  5  2 -1</clus>
</clustering>
</event>
<event>
10    2  0.3544405E-006  0.1326253E+03  0.7546771E-02  0.1223739E+00
          2   -1    0    0  503    0 -0.00000000000E+00  0.00000000000E+00  0.40312081225E+03  0.40312081225E+03  0.00000000000E+00 0. -1.
         21   -1    0    0  501  502  0.00000000000E+00 -0.00000000000E+00 -0.10618757045E+03  0.10618757045E+03  0.00000000000E+00 0.  1.
         23    2    1    2    0    0 -0.26571422577E+02 -0.91148084091E+02  0.70030384986E+02  0.14960261928E+03  0.91992799407E+02 0.  0.
         23    2    1    2    0    0  0.76796087110E+02  0.68689515783E+02  0.82915666474E+02  0.16139010791E+03  0.92497949221E+02 0.  0.
        -11    1    3    3    0    0  0.92781071061E+01 -0.81137491133E+02  0.14793293466E+02  0.82995284627E+02  0.00000000000E+00 0. -1.
         11    1    3    3    0    0 -0.35849529683E+02 -0.10010592958E+02  0.55237091519E+02  0.66607334652E+02  0.00000000000E+00 0.  1.
        -11    1    4    4    0    0  0.37502126578E+02  0.67450191481E+02  0.92953754894E+02  0.12081530688E+03  0.00000000000E+00 0. -1.
         11    1    4    4    0    0  0.39293960532E+02  0.12393243024E+01 -0.10038088420E+02  0.40574801024E+02  0.00000000000E+00 0.  1.
         21    1    1    2  503  502 -0.34047227661E+02  0.34731107999E+02  0.16324138080E+03  0.17033265095E+03  0.00000000000E+00 0. -1.
          2    1    1    2  501    0 -0.16177436872E+02 -0.12272539692E+02 -0.19254190456E+02  0.27983004563E+02  0.00000000000E+00 0. -1.
<scales pt_clust_5="13000.00000" pt_clust_6="13000.00000" pt_clust_7="13000.00000" pt_clust_8="13000.00000" pt_clust_9="48.75368" pt_clust_10="20.30578"></scales>
<clustering>
<clus scale="   20.306">  2 10  1 -1</clus>
<clus scale="   48.754">  1  9  2 -1</clus>
<clus scale="   91.993">  5  6 -1 -1</clus>
<clus scale="   92.498">  7  8 -1 -1</clus>
<clus scale="  132.273">  1  5  2 -1</clus>
<clus scale="   20.306">  2  5  1 -1</clus>
</clustering>
</event>
<event>
10    2  0.3544405E-006  0.1037804E+03  0.7546771E-02  0.1274948E+00
         21   -1    0    0  501  502  0.00000000000E+00  0.00000000000E+00  0.26671698828E+03  0.26671698828E+03  0.00000000000E+00 0.  1.
          1   -1    0    0  503    0 -0.00000000000E+00 -0.00000000000E+00 -0.22662903574E+03  0.22662903574E+03  0.00000000000E+00 0. -1.
         23    2    1    2    0    0  0.59781582867E+02 -0.59924445343E+02  0.37727725803E+02  0.13414098300E+03  0.96982705807E+02 0.  0.
         23    2    1    2    0    0 -0.11403877041E+02  0.32206177338E+01  0.60047471189E+02  0.11045282555E+03  0.91944043225E+02 0.  0.
        -11    1    3    3    0    0 -0.12179866612E+02 -0.55288710364E+02  0.16872866762E+02  0.59075242506E+02  0.00000000000E+00 0. -1.
         11    1    3    3    0    0  0.71961449479E+02 -0.46357349787E+01  0.20854859040E+02  0.75065740491E+02  0.00000000000E+00 0.  1.
        -13    1    4    4    0    0 -0.42304491313E+02 -0.24994122381E+02  0.21772579271E+02  0.53744035455E+02  0.00000000000E+00 0. -1.
         13    1    4    4    0    0  0.30900614273E+02  0.28214740115E+02  0.38274891918E+02  0.56708790091E+02  0.00000000000E+00 0.  1.
         21    1    1    2  503  502 -0.30997023421E+02  0.79820024546E+02 -0.13854909992E+03  0.16287389253E+03  0.00000000000E+00 0. -1.
          1    1    1    2  501    0 -0.17380682405E+02 -0.23116196938E+02  0.80861855472E+02  0.85878322946E+02  0.00000000000E+00 0. -1.
<scales pt_clust_5="13000.00000" pt_clust_6="13000.00000" pt_clust_7="13000.00000" pt_clust_8="13000.00000" pt_clust_9="84.63104" pt_clust_10="28.92139"></scales>
<clustering>
<clus scale="   28.921">  1 10  2 -1</clus>
<clus scale="   84.631">  2  9  1 -1</clus>
<clus scale="   91.944">  7  8 -1 -1</clus>
<clus scale="   96.983">  5  6 -1 -1</clus>
<clus scale="   99.088">  1  7  2 -1</clus>
<clus scale="   28.921">  1  5  2 -1</clus>
</clustering>
</event>
<event>
10    2  0.3544405E-006  0.2126775E+03  0.7546771E-02  0.1171279E+00
          1   -1    0    0  503    0 -0.00000000000E+00  0.00000000000E+00  0.14043741304E+04  0.14043741304E+04  0.00000000000E+00 0. -1.
         21   -1    0    0  501  502  0.00000000000E+00 -0.00000000000E+00 -0.11382750060E+03  0.11382750060E+03  0.00000000000E+00 0. -1.
         23    2    1    2    0    0  0.10741843201E+02 -0.42433579508E+02  0.67472305296E+02  0.12128043835E+03  0.90776852106E+02 0.  0.
         23    2    1    2    0    0 -0.53632022394E+02 -0.23817007626E+03  0.82888303674E+03  0.86824757501E+03  0.84884532510E+02 0.  0.
        -11    1    3    3    0    0  0.50398853374E+02 -0.28414033913E+02  0.31169811997E+02  0.65718786694E+02  0.00000000000E+00 0.  1.
         11    1    3    3    0    0 -0.39657010173E+02 -0.14019545595E+02  0.36302493298E+02  0.55561651652E+02  0.00000000000E+00 0. -1.
        -11    1    4    4    0    0 -0.58739823529E+02 -0.15463515377E+03  0.65058438426E+03  0.67128417134E+03  0.00000000000E+00 0. -1.
         11    1    4    4    0    0  0.51078011342E+01 -0.83534922490E+02  0.17829865248E+03  0.19696340366E+03  0.00000000000E+00 0.  1.
         21    1    1    2  503  502 -0.33884496117E+02  0.11033184994E+03  0.29589249018E+03  0.31760611129E+03  0.00000000000E+00 0. -1.
          1    1    1    2  501    0  0.76774675311E+02  0.17027180583E+03  0.98298797599E+02  0.21106750636E+03  0.00000000000E+00 0. -1.
<scales pt_clust_5="13000.00000" pt_clust_6="13000.00000" pt_clust_7="13000.00000" pt_clust_8="13000.00000" pt_clust_9="105.18223" pt_clust_10="195.00340"></scales>
<clustering>
<clus scale="   84.885">  7  8 -1 -1</clus>
<clus scale="   90.777">  5  6 -1 -1</clus>
<clus scale="  100.779">  1  5  2 -1</clus>
<clus scale="  105.182">  1  9  2 -1</clus>
<clus scale="  195.003">  2 10  1 -1</clus>
<clus scale="  195.003">  2  5  1 -1</clus>
</clustering>
</event>
<event>
10    2  0.3544405E-006  0.1042486E+03  0.7546771E-02  0.1280391E+00
         21   -1    0    0  503  502  0.00000000000E+00  0.00000000000E+00  0.13678337172E+03  0.13678337172E+03  0.00000000000E+00 0. -1.
         -1   -1    0    0    0  501 -0.00000000000E+00 -0.00000000000E+00 -0.19934911796E+03  0.19934911796E+03  0.00000000000E+00 0.  1.
         23    2    1    2    0    0 -0.98568562027E+01 -0.11684013114E+02 -0.10518586802E+03  0.13491920965E+03  0.83099052487E+02 0.  0.
         23    2    1    2    0    0 -0.23705388801E+02  0.24719374607E+02  0.57024173376E+02  0.12014669288E+03  0.10005237889E+03 0.  0.
        -11    1    4    4    0    0  0.33874773780E+02  0.33236903944E+02  0.23179644812E+02  0.52815603907E+02  0.00000000000E+00 0. -1.
         11    1    4    4    0    0 -0.57580162581E+02 -0.85175293364E+01  0.33844528564E+02  0.67331088976E+02  0.00000000000E+00 0.  1.
        -11    1    3    3    0    0  0.27264081086E+02  0.15704211075E+02 -0.17915703032E+02  0.36206695211E+02  0.00000000000E+00 0. -1.
         11    1    3    3    0    0 -0.37120937289E+02 -0.27388224190E+02 -0.87270164989E+02  0.98712514438E+02  0.00000000000E+00 0.  1.
         21    1    1    2  503  501 -0.59021222323E+01 -0.26524590012E+02 -0.26176760410E+02  0.37730779315E+02  0.00000000000E+00 0.  1.
         -1    1    1    2    0  502  0.39464367236E+02  0.13489228519E+02  0.11772708816E+02  0.43335807829E+02  0.00000000000E+00 0.  1.
<scales pt_clust_5="13000.00000" pt_clust_6="13000.00000" pt_clust_7="13000.00000" pt_clust_8="13000.00000" pt_clust_9="27.17331" pt_clust_10="40.42989"></scales>
<clustering>
<clus scale="   27.173">  2  9  1 -1</clus>
<clus scale="   40.430">  1 10  2 -1</clus>
<clus scale="   83.099">  7  8 -1 -1</clus>
<clus scale="   88.106">  2  7  1 -1</clus>
<clus scale="  100.052">  5  6 -1 -1</clus>
<clus scale="   40.430">  1  5  2 -1</clus>
</clustering>
</event>
<event>
10    2  0.3544405E-006  0.1088489E+03  0.7546771E-02  0.1263572E+00
          3   -1    0    0  503    0 -0.00000000000E+00  0.00000000000E+00  0.29781651974E+03  0.29781651974E+03  0.00000000000E+00 0. -1.
         21   -1    0    0  501  502  0.00000000000E+00 -0.00000000000E+00 -0.22858088349E+03  0.22858088349E+03  0.00000000000E+00 0. -1.
         23    2    1    2    0    0 -0.52631982466E+02  0.38905548903E+02  0.15654249267E+03  0.19263686607E+03  0.91212076203E+02 0.  0.
         23    2    1    2    0    0 -0.37003559571E+01 -0.68669042996E+02  0.52663665340E+02  0.12422635029E+03  0.89048269826E+02 0.  0.
        -11    1    3    3    0    0 -0.22504905357E+02  0.61829095075E+02  0.13208735819E+03  0.14756821459E+03  0.00000000000E+00 0. -1.
         11    1    3    3    0    0 -0.30127077109E+02 -0.22923546172E+02  0.24455134479E+02  0.45068651484E+02  0.00000000000E+00 0.  1.
        -13    1    4    4    0    0  0.15968506702E+02 -0.47270347644E+02 -0.13730193570E+02  0.51749368963E+02  0.00000000000E+00 0.  1.
         13    1    4    4    0    0 -0.19668862659E+02 -0.21398695352E+02  0.66393858911E+02  0.72476981326E+02  0.00000000000E+00 0. -1.
         21    1    1    2  503  502  0.27833701764E+02  0.34856869305E+02  0.18610062814E+02  0.48332708693E+02  0.00000000000E+00 0. -1.
          3    1    1    2  501    0  0.28498636660E+02 -0.50933752126E+01 -0.15858058457E+03  0.16120147818E+03  0.00000000000E+00 0. -1.
<scales pt_clust_5="13000.00000" pt_clust_6="13000.00000" pt_clust_7="13000.00000" pt_clust_8="13000.00000" pt_clust_9="47.90990" pt_clust_10="28.95021"></scales>
<clustering>
<clus scale="   28.950">  2 10  1 -1</clus>
<clus scale="   47.910">  2  9  1 -1</clus>
<clus scale="   89.048">  7  8 -1 -1</clus>
<clus scale="   91.212">  5  6 -1 -1</clus>
<clus scale="  107.042">  2  7  1 -1</clus>
<clus scale="   28.950">  2  5  1 -1</clus>
</clustering>
</event>
<event>
10    2  0.3940450E-006  0.3484136E+03  0.7546771E-02  0.1063278E+00
         21   -1    0    0  501  502  0.00000000000E+00  0.00000000000E+00  0.10677407217E+04  0.10677407217E+04  0.00000000000E+00 0. -1.
          1   -1    0    0  503    0 -0.00000000000E+00 -0.00000000000E+00 -0.33187996135E+03  0.33187996135E+03  0.00000000000E+00 0. -1.
         23    2    1    2    0    0 -0.37682145898E+03 -0.10905292339E+03 -0.64011114341E+02  0.40755704375E+03  0.90101992801E+02 0.  0.
         23    2    1    2    0    0  0.25543894201E+03  0.16182431053E+02  0.29335408358E+03  0.39968780637E+03  0.90458830616E+02 0.  0.
        -11    1    3    3    0    0 -0.19065656102E+02  0.96322850496E+01  0.97468971476E+01  0.23479398670E+02  0.00000000000E+00 0.  1.
         11    1    3    3    0    0 -0.35775580288E+03 -0.11868520844E+03 -0.73758011488E+02  0.38407764508E+03  0.00000000000E+00 0. -1.
        -11    1    4    4    0    0  0.73892583361E+02  0.45776934802E+02  0.81969401412E+02  0.11947645962E+03  0.00000000000E+00 0.  1.
         11    1    4    4    0    0  0.18154635865E+03 -0.29594503749E+02  0.21138468217E+03  0.28021134675E+03  0.00000000000E+00 0. -1.
         21    1    1    2  503  502  0.33351754333E+02 -0.43329702312E+02 -0.58163217136E+01  0.54987564211E+02  0.00000000000E+00 0. -1.
          1    1    1    2  501    0  0.88030762635E+02  0.13620019465E+03  0.51233411279E+03  0.53738826868E+03  0.00000000000E+00 0. -1.
<scales pt_clust_5="13000.00000" pt_clust_6="13000.00000" pt_clust_7="13000.00000" pt_clust_8="13000.00000" pt_clust_9="54.67909" pt_clust_10="161.42683"></scales>
<clustering>
<clus scale="   54.679">  2  9  1 -1</clus>
<clus scale="   90.102">  5  6 -1 -1</clus>
<clus scale="   90.459">  7  8 -1 -1</clus>
<clus scale="  161.427">  1 10  2 -1</clus>
<clus scale="  348.321">  2  5  1 -1</clus>
<clus scale="  161.427">  1  5  2 -1</clus>
</clustering>
</event>
<event>
10    2  0.3544405E-006  0.1100123E+03  0.7546771E-02  0.1261831E+00
          1   -1    0    0  503    0 -0.00000000000E+00  0.00000000000E+00  0.26968281390E+03  0.26968281390E+03  0.00000000000E+00 0. -1.
         21   -1    0    0  501  502  0.00000000000E+00 -0.00000000000E+00 -0.87669457434E+02  0.87669457434E+02  0.00000000000E+00 0. -1.
         23    2    1    2    0    0  0.41311413244E+02 -0.21389950192E+02  0.12258620235E+03  0.16249267726E+03  0.95980885197E+02 0.  0.
         23    2    1    2    0    0 -0.71484037317E+02  0.19247136357E+02  0.51099594227E+02  0.12926421134E+03  0.92831287578E+02 0.  0.
        -11    1    3    3    0    0  0.42366015711E+02 -0.54145789567E+02  0.10442300563E+03  0.12502323752E+03  0.00000000000E+00 0.  1.
         11    1    3    3    0    0 -0.10546024674E+01  0.32755839375E+02  0.18163196724E+02  0.37469439744E+02  0.00000000000E+00 0. -1.
        -13    1    4    4    0    0 -0.12529251667E+02 -0.34304646501E+02  0.28927993524E+02  0.46589910155E+02  0.00000000000E+00 0.  1.
         13    1    4    4    0    0 -0.58954785650E+02  0.53551782858E+02  0.22171600703E+02  0.82674301183E+02  0.00000000000E+00 0. -1.
         21    1    1    2  503  502 -0.15931755260E+01  0.21436759141E+02  0.17029608528E+02  0.27424084621E+02  0.00000000000E+00 0.  1.
          1    1    1    2  501    0  0.31765799599E+02 -0.19293945305E+02 -0.87020486355E+01  0.38171298118E+02  0.00000000000E+00 0. -1.
<scales pt_clust_5="13000.00000" pt_clust_6="13000.00000" pt_clust_7="13000.00000" pt_clust_8="13000.00000" pt_clust_9="21.49588" pt_clust_10="36.43732"></scales>
<clustering>
<clus scale="   21.496">  1  9  2 -1</clus>
<clus scale="   36.437">  2 10  1 -1</clus>
<clus scale="   92.831">  7  8 -1 -1</clus>
<clus scale="   95.981">  5  6 -1 -1</clus>
<clus scale="  107.275">  2  7  1 -1</clus>
<clus scale="   36.437">  2  5  1 -1</clus>
</clustering>
</event>
<event>
10    2  0.3544405E-006  0.1388695E+03  0.7546771E-02  0.1215774E+00
          1   -1    0    0  503    0 -0.00000000000E+00  0.00000000000E+00  0.81006744013E+03  0.81006744013E+03  0.00000000000E+00 0. -1.
         21   -1    0    0  501  502  0.00000000000E+00 -0.00000000000E+00 -0.79064714551E+02  0.79064714551E+02  0.00000000000E+00 0. -1.
         23    2    1    2    0    0 -0.40992535770E+02 -0.30525663988E+02  0.14184238568E+03  0.17671012247E+03  0.92168328935E+02 0.  0.
         23    2    1    2    0    0  0.13450470147E+03  0.12493365628E+03  0.21423632216E+03  0.29803619794E+03  0.96064771688E+02 0.  0.
        -13    1    4    4    0    0  0.10809704473E+03  0.79170716554E+02  0.85667617748E+02  0.15903431759E+03  0.00000000000E+00 0. -1.
         13    1    4    4    0    0  0.26407656732E+02  0.45762939730E+02  0.12856870441E+03  0.13900188035E+03  0.00000000000E+00 0.  1.
        -13    1    3    3    0    0  0.53059371067E+01  0.20795817323E+02  0.30744212918E+01  0.21681122042E+02  0.00000000000E+00 0.  1.
         13    1    3    3    0    0 -0.46298472877E+02 -0.51321481311E+02  0.13876796439E+03  0.15502900043E+03  0.00000000000E+00 0. -1.
         21    1    1    2  503  502 -0.41964103321E+02 -0.16251692019E+02  0.27016186411E+03  0.27388416581E+03  0.00000000000E+00 0.  1.
          1    1    1    2  501    0 -0.51548062374E+02 -0.78156300277E+02  0.10476215364E+03  0.14050166847E+03  0.00000000000E+00 0. -1.
<scales pt_clust_5="13000.00000" pt_clust_6="13000.00000" pt_clust_7="13000.00000" pt_clust_8="13000.00000" pt_clust_9="45.00115" pt_clust_10="102.15613"></scales>
<clustering>
<clus scale="   45.001">  1  9  2 -1</clus>
<clus scale="   92.168">  7  8 -1 -1</clus>
<clus scale="   96.065">  5  6 -1 -1</clus>
<clus scale="  102.156">  2 10  1 -1</clus>
<clus scale="  136.203">  1  7  2 -1</clus>
<clus scale="  102.156">  2  5  1 -1</clus>
</clustering>
</event>
<event>
10    2  0.3544405E-006  0.1069626E+03  0.7546771E-02  0.1267890E+00
         -4   -1    0    0    0  501 -0.00000000000E+00  0.00000000000E+00  0.43525698602E+03  0.43525698602E+03  0.00000000000E+00 0.  1.
         21   -1    0    0  503  502  0.00000000000E+00 -0.00000000000E+00 -0.14391262679E+03  0.14391262679E+03  0.00000000000E+00 0.  1.
         23    2    1    2    0    0  0.31837831948E+01 -0.18753608697E+02  0.25496583189E+03  0.27153274655E+03  0.91436440801E+02 0.  0.
         23    2    1    2    0    0 -0.83864112471E+02  0.95417330594E+02  0.57498265779E+02  0.16467780915E+03  0.87607499219E+02 0.  0.
        -11    1    3    3    0    0  0.40538180720E+02  0.75899206180E+01  0.17130010971E+03  0.17619500157E+03  0.00000000000E+00 0. -1.
         11    1    3    3    0    0 -0.37354397526E+02 -0.26343529315E+02  0.83665722171E+02  0.95337744979E+02  0.00000000000E+00 0.  1.
        -13    1    4    4    0    0 -0.26760465393E+02 -0.13682093732E+02  0.36412148623E+01  0.30275082867E+02  0.00000000000E+00 0. -1.
         13    1    4    4    0    0 -0.57103647079E+02  0.10909942433E+03  0.53857050917E+02  0.13440272628E+03  0.00000000000E+00 0.  1.
         21    1    1    2  503  501  0.32131377540E+02 -0.11979774628E+02  0.31424379864E+02  0.46512708721E+02  0.00000000000E+00 0.  1.
         -4    1    1    2    0  502  0.48548951737E+02 -0.64683947269E+02 -0.52544118296E+02  0.96446348383E+02  0.00000000000E+00 0.  1.
<scales pt_clust_5="13000.00000" pt_clust_6="13000.00000" pt_clust_7="13000.00000" pt_clust_8="13000.00000" pt_clust_9="34.29199" pt_clust_10="82.48202"></scales>
<clustering>
<clus scale="   34.292">  1  9  2 -1</clus>
<clus scale="   82.482">  2 10  1 -1</clus>
<clus scale="   87.607">  7  8 -1 -1</clus>
<clus scale="   91.436">  5  6 -1 -1</clus>
<clus scale="  103.709">  2  7  1 -1</clus>
<clus scale="   82.482">  2  5  1 -1</clus>
</clustering>
</event>
<event>
10    2  0.3544405E-006  0.9725943E+02  0.7546771E-02  0.1286440E+00
         21   -1    0    0  501  502  0.00000000000E+00  0.00000000000E+00  0.12203914316E+03  0.12203914316E+03  0.00000000000E+00 0.  1.
          2   -1    0    0  503    0 -0.00000000000E+00 -0.00000000000E+00 -0.54710552059E+03  0.54710552059E+03  0.00000000000E+00 0. -1.
         23    2    1    2    0    0  0.48968995467E+02 -0.15863382437E+02 -0.29779917634E+03  0.31543514834E+03  0.90362458807E+02 0.  0.
         23    2    1    2    0    0 -0.42021802971E+02  0.23298974048E+02  0.69582448346E+02  0.12414691230E+03  0.90895899793E+02 0.  0.
        -13    1    3    3    0    0  0.64303121826E+01  0.35892084404E+02 -0.12072538661E+03  0.12611189321E+03  0.00000000000E+00 0.  1.
         13    1    3    3    0    0  0.42538683284E+02 -0.51755466841E+02 -0.17707378973E+03  0.18932325513E+03  0.00000000000E+00 0. -1.
        -13    1    4    4    0    0 -0.68858742571E+02  0.76013257914E+01  0.34908309519E+02  0.77575103324E+02  0.00000000000E+00 0. -1.
         13    1    4    4    0    0  0.26836939600E+02  0.15697648256E+02  0.34674138827E+02  0.46571808976E+02  0.00000000000E+00 0.  1.
         21    1    1    2  503  502 -0.17274516287E+02  0.21506223413E+02 -0.19691059150E+03  0.19883336642E+03  0.00000000000E+00 0.  1.
          2    1    1    2  501    0  0.10327323791E+02 -0.28941815023E+02  0.60942055060E-01  0.30729236688E+02  0.00000000000E+00 0. -1.
<scales pt_clust_5="13000.00000" pt_clust_6="13000.00000" pt_clust_7="13000.00000" pt_clust_8="13000.00000" pt_clust_9="27.58490" pt_clust_10="29.58756"></scales>
<clustering>
<clus scale="   27.585">  2  9  1 -1</clus>
<clus scale="   29.588">  1 10  2 -1</clus>
<clus scale="   90.362">  5  6 -1 -1</clus>
<clus scale="   90.896">  7  8 -1 -1</clus>
<clus scale="   96.761">  2  5  1 -1</clus>
<clus scale="   29.588">  1  5  2 -1</clus>
</clustering>
</event>
<event>
10    2  0.3544405E-006  0.1301308E+03  0.7546771E-02  0.1227884E+00
          2   -1    0    0  503    0 -0.00000000000E+00  0.00000000000E+00  0.51912424090E+03  0.51912424090E+03  0.00000000000E+00 0. -1.
         21   -1    0    0  501  502  0.00000000000E+00 -0.00000000000E+00 -0.14942072269E+03  0.14942072269E+03  0.00000000000E+00 0. -1.
         23    2    1    2    0    0 -0.18034056165E+02  0.12618087573E+03  0.24389632502E+03  0.29028530067E+03  0.92375850989E+02 0.  0.
         23    2    1    2    0    0  0.15999199429E+02 -0.61546460275E+02  0.15032718430E+03  0.18639723533E+03  0.90009587514E+02 0.  0.
        -11    1    4    4    0    0  0.35387513710E+01  0.23287692173E+02  0.42955106285E+02  0.48989596079E+02  0.00000000000E+00 0. -1.
         11    1    4    4    0    0  0.12460448058E+02 -0.84834152448E+02  0.10737207801E+03  0.13740763925E+03  0.00000000000E+00 0.  1.
        -11    1    3    3    0    0 -0.51883853817E+02  0.75693863475E+02  0.11010861318E+03  0.14333667343E+03  0.00000000000E+00 0. -1.
         11    1    3    3    0    0  0.33849797652E+02  0.50487012253E+02  0.13378771184E+03  0.14694862724E+03  0.00000000000E+00 0.  1.
         21    1    1    2  503  502  0.51656668336E+01 -0.39198899501E+02  0.77322645164E+02  0.86844857598E+02  0.00000000000E+00 0.  1.
          2    1    1    2  501    0 -0.31308100977E+01 -0.25435515951E+02 -0.10184263627E+03  0.10501756999E+03  0.00000000000E+00 0. -1.
<scales pt_clust_5="13000.00000" pt_clust_6="13000.00000" pt_clust_7="13000.00000" pt_clust_8="13000.00000" pt_clust_9="42.11131" pt_clust_10="25.62747"></scales>
<clustering>
<clus scale="   25.627">  2 10  1 -1</clus>
<clus scale="   42.111">  1  9  2 -1</clus>
<clus scale="   90.010">  5  6 -1 -1</clus>
<clus scale="   92.376">  7  8 -1 -1</clus>
<clus scale="  128.462">  2  5  1 -1</clus>
<clus scale="   25.627">  2  5  1 -1</clus>
</clustering>
</event>
<event>
10    2  0.3544405E-006  0.9759798E+02  0.7546771E-02  0.1286759E+00
          1   -1    0    0  503    0 -0.00000000000E+00  0.00000000000E+00  0.46726915257E+03  0.46726915257E+03  0.00000000000E+00 0. -1.
         21   -1    0    0  501  502  0.00000000000E+00 -0.00000000000E+00 -0.83017654146E+02  0.83017654146E+02  0.00000000000E+00 0. -1.
         23    2    1    2    0    0 -0.83085022304E+00  0.26518526453E+02  0.12231795375E+03  0.15429437702E+03  0.90228323779E+02 0.  0.
         23    2    1    2    0    0 -0.44152737884E+01 -0.26781776944E+02  0.77249778305E+02  0.12373763575E+03  0.92772388313E+02 0.  0.
        -13    1    3    3    0    0  0.37209714108E+02  0.15986501097E+02  0.21128014591E+02  0.45678485547E+02  0.00000000000E+00 0.  1.
         13    1    3    3    0    0 -0.38040564331E+02  0.10532025356E+02  0.10118993916E+03  0.10861589147E+03  0.00000000000E+00 0. -1.
        -13    1    4    4    0    0 -0.48312550071E+02 -0.18197184396E+02  0.46285657549E+02  0.69336874094E+02  0.00000000000E+00 0.  1.
         13    1    4    4    0    0  0.43897276283E+02 -0.85845925478E+01  0.30964120756E+02  0.54400761653E+02  0.00000000000E+00 0. -1.
         21    1    1    2  503  502  0.10568557594E+02  0.29506322813E+02  0.22219511866E+03  0.22439471529E+03  0.00000000000E+00 0.  1.
          1    1    1    2  501    0 -0.53224335824E+01 -0.29243072323E+02 -0.37511352293E+02  0.47860078656E+02  0.00000000000E+00 0. -1.
<scales pt_clust_5="13000.00000" pt_clust_6="13000.00000" pt_clust_7="13000.00000" pt_clust_8="13000.00000" pt_clust_9="30.54257" pt_clust_10="29.72349"></scales>
<clustering>
<clus scale="   29.723">  2 10  1 -1</clus>
<clus scale="   30.543">  1  9  2 -1</clus>
<clus scale="   90.228">  5  6 -1 -1</clus>
<clus scale="   92.772">  7  8 -1 -1</clus>
<clus scale="   95.183">  1  5  2 -1</clus>
<clus scale="   29.723">  2  5  1 -1</clus>
</clustering>
</event>
<event>
10    2  0.3544405E-006  0.1189697E+03  0.7546771E-02  0.1246859E+00
         21   -1    0    0  501  502  0.00000000000E+00  0.00000000000E+00  0.69160024784E+02  0.69160024784E+02  0.00000000000E+00 0. -1.
          2   -1    0    0  503    0 -0.00000000000E+00 -0.00000000000E+00 -0.67411863601E+03  0.67411863601E+03  0.00000000000E+00 0. -1.
         23    2    1    2    0    0  0.10711894645E+03  0.16237003463E+02 -0.27765930214E+03  0.31259300658E+03  0.94242191867E+02 0.  0.
         23    2    1    2    0    0 -0.38290337478E+02 -0.11669484627E+02 -0.11215485733E+03  0.14812424456E+03  0.88089460147E+02 0.  0.
        -11    1    3    3    0    0  0.49456575889E+02 -0.14128012069E+02 -0.37248341169E+02  0.63505846531E+02  0.00000000000E+00 0.  1.
         11    1    3    3    0    0  0.57662370564E+02  0.30365015532E+02 -0.24041096097E+03  0.24908716005E+03  0.00000000000E+00 0. -1.
        -13    1    4    4    0    0 -0.38775420677E+02 -0.45942013167E+02 -0.55009733116E+02  0.81487867563E+02  0.00000000000E+00 0.  1.
         13    1    4    4    0    0  0.48508319877E+00  0.34272528540E+02 -0.57145124211E+02  0.66636376998E+02  0.00000000000E+00 0. -1.
         21    1    1    2  503  502 -0.26438674605E+02  0.22433522081E+02 -0.22805084093E+03  0.23067174182E+03  0.00000000000E+00 0. -1.
          2    1    1    2  501    0 -0.42389934371E+02 -0.27001040916E+02  0.12906389165E+02  0.51889667833E+02  0.00000000000E+00 0. -1.
<scales pt_clust_5="13000.00000" pt_clust_6="13000.00000" pt_clust_7="13000.00000" pt_clust_8="13000.00000" pt_clust_9="34.67371" pt_clust_10="50.72881"></scales>
<clustering>
<clus scale="   34.674">  2  9  1 -1</clus>
<clus scale="   50.729">  1 10  2 -1</clus>
<clus scale="   88.089">  7  8 -1 -1</clus>
<clus scale="   94.242">  5  6 -1 -1</clus>
<clus scale="  114.158">  1  7  2 -1</clus>
<clus scale="   50.729">  1  5  2 -1</clus>
</clustering>
</event>
<event>
10    2  0.3544405E-006  0.1346111E+03  0.7546771E-02  0.1220971E+00
          2   -1    0    0  503    0 -0.00000000000E+00  0.00000000000E+00  0.61873449053E+03  0.61873449053E+03  0.00000000000E+00 0. -1.
         21   -1    0    0  501  502  0.00000000000E+00 -0.00000000000E+00 -0.21788504248E+03  0.21788504248E+03  0.00000000000E+00 0. -1.
         23    2    1    2    0    0 -0.33080278853E+02 -0.75060472827E+02  0.28099377899E+03  0.30650901681E+03  0.90894962049E+02 0.  0.
         23    2    1    2    0    0  0.98696423342E+02  0.72648447810E+02  0.17323456536E+03  0.23117833389E+03  0.91730183006E+02 0.  0.
        -11    1    3    3    0    0 -0.51598696538E+02 -0.86010545151E+02  0.21865448227E+03  0.24056188804E+03  0.00000000000E+00 0. -1.
         11    1    3    3    0    0  0.18518417686E+02  0.10950072324E+02  0.62339296715E+02  0.65947128766E+02  0.00000000000E+00 0.  1.
        -13    1    4    4    0    0  0.49423963380E+02 -0.10103465801E+02  0.30370678414E+02  0.58882818247E+02  0.00000000000E+00 0. -1.
         13    1    4    4    0    0  0.49272459962E+02  0.82751913611E+02  0.14286388694E+03  0.17229551564E+03  0.00000000000E+00 0.  1.
         21    1    1    2  503  502 -0.40763350745E+02  0.76195504334E+01  0.11831433009E+03  0.12537140430E+03  0.00000000000E+00 0.  1.
          2    1    1    2  501    0 -0.24852793744E+02 -0.52075254163E+01 -0.17169322639E+03  0.17356077801E+03  0.00000000000E+00 0. -1.
<scales pt_clust_5="13000.00000" pt_clust_6="13000.00000" pt_clust_7="13000.00000" pt_clust_8="13000.00000" pt_clust_9="43.30601" pt_clust_10="25.39251"></scales>
<clustering>
<clus scale="   25.393">  2 10  1 -1</clus>
<clus scale="   43.306">  1  9  2 -1</clus>
<clus scale="   90.895">  5  6 -1 -1</clus>
<clus scale="   91.730">  7  8 -1 -1</clus>
<clus scale="  134.043">  1  5  2 -1</clus>
<clus scale="   25.393">  2  5  1 -1</clus>
</clustering>
</event>
<event>
10    2  0.3544405E-006  0.1912294E+03  0.7546771E-02  0.1168466E+00
         21   -1    0    0  501  502  0.00000000000E+00  0.00000000000E+00  0.37931706126E+03  0.37931706126E+03  0.00000000000E+00 0. -1.
          2   -1    0    0  503    0 -0.00000000000E+00 -0.00000000000E+00 -0.21887386907E+03  0.21887386907E+03  0.00000000000E+00 0. -1.
         23    2    1    2    0    0 -0.12709756112E+03 -0.28551231759E+01 -0.16140508181E+02  0.15664542251E+03  0.90085129849E+02 0.  0.
         23    2    1    2    0    0  0.94845030283E+02 -0.15351538695E+03  0.74910714615E+02  0.21650739972E+03  0.93280679501E+02 0.  0.
        -11    1    3    3    0    0 -0.79579761862E+02 -0.36479237184E+02 -0.36681092365E+02  0.94916678096E+02  0.00000000000E+00 0. -1.
         11    1    3    3    0    0 -0.47517799256E+02  0.33624114008E+02  0.20540584184E+02  0.61728744419E+02  0.00000000000E+00 0.  1.
        -13    1    4    4    0    0  0.20355668780E+02 -0.60325551583E+02  0.73440922547E+02  0.97196165202E+02  0.00000000000E+00 0.  1.
         13    1    4    4    0    0  0.74489361502E+02 -0.93189835365E+02  0.14697920675E+01  0.11931123451E+03  0.00000000000E+00 0. -1.
         21    1    1    2  503  502  0.24328270530E+02 -0.13885674750E+02  0.31960186742E+01  0.28193815734E+02  0.00000000000E+00 0.  1.
          2    1    1    2  501    0  0.79242603050E+01  0.17025618487E+03  0.98476967078E+02  0.19684429236E+03  0.00000000000E+00 0. -1.
<scales pt_clust_5="13000.00000" pt_clust_6="13000.00000" pt_clust_7="13000.00000" pt_clust_8="13000.00000" pt_clust_9="28.01208" pt_clust_10="166.93526"></scales>
<clustering>
<clus scale="   28.012">  2  9  1 -1</clus>
<clus scale="   90.085">  5  6 -1 -1</clus>
<clus scale="   93.281">  7  8 -1 -1</clus>
<clus scale="  147.848">  2  5  1 -1</clus>
<clus scale="  166.935">  1 10  2 -1</clus>
<clus scale="  166.935">  1  5  2 -1</clus>
</clustering>
</event>
<event>
10    2  0.3544405E-006  0.9848482E+02  0.7546771E-02  0.1284883E+00
         -4   -1    0    0    0  501 -0.00000000000E+00  0.00000000000E+00  0.83832952092E+02  0.83832952092E+02  0.00000000000E+00 0.  1.
         21   -1    0    0  503  502  0.00000000000E+00 -0.00000000000E+00 -0.24548544685E+03  0.24548544685E+03  0.00000000000E+00 0. -1.
         23    2    1    2    0    0  0.34295263568E+02 -0.13823229965E+02 -0.55309099133E+02  0.11365287929E+03  0.92144634860E+02 0.  0.
         23    2    1    2    0    0 -0.37519921439E+02 -0.72313706524E+00 -0.57388174484E+02  0.11270855664E+03  0.89451376386E+02 0.  0.
        -11    1    4    4    0    0  0.31263852380E+01 -0.34131321450E+02 -0.48439660312E+02  0.59339043468E+02  0.00000000000E+00 0.  1.
         11    1    4    4    0    0 -0.40646306677E+02  0.33408184385E+02 -0.89485141716E+01  0.53369513172E+02  0.00000000000E+00 0. -1.
        -13    1    3    3    0    0  0.26147298983E+02 -0.51874706948E+02 -0.20990932380E+02  0.61767999054E+02  0.00000000000E+00 0.  1.
         13    1    3    3    0    0  0.81479645855E+01  0.38051476983E+02 -0.34318166753E+02  0.51884880232E+02  0.00000000000E+00 0. -1.
         21    1    1    2  503  501 -0.28120284592E+02  0.19620569950E+02  0.10238274646E+02  0.35784625727E+02  0.00000000000E+00 0. -1.
         -4    1    1    2    0  502  0.31344942462E+02 -0.50742029199E+01 -0.59193495789E+02  0.67172337289E+02  0.00000000000E+00 0.  1.
<scales pt_clust_5="13000.00000" pt_clust_6="13000.00000" pt_clust_7="13000.00000" pt_clust_8="13000.00000" pt_clust_9="32.29860" pt_clust_10="31.75300"></scales>
<clustering>
<clus scale="   31.753">  2 10  1 -1</clus>
<clus scale="   32.299">  1  9  2 -1</clus>
<clus scale="   89.451">  5  6 -1 -1</clus>
<clus scale="   92.145">  7  8 -1 -1</clus>
<clus scale="   95.970">  2  5  1 -1</clus>
<clus scale="   31.753">  2  5  1 -1</clus>
</clustering>
</event>
<event>
10    2  0.3544405E-006  0.1045009E+03  0.7546771E-02  0.1271560E+00
         21   -1    0    0  503  502  0.00000000000E+00  0.00000000000E+00  0.72089340546E+02  0.72089340546E+02  0.00000000000E+00 0.  1.
         -1   -1    0    0    0  501 -0.00000000000E+00 -0.00000000000E+00 -0.50133696695E+03  0.50133696695E+03  0.00000000000E+00 0.  1.
         23    2    1    2    0    0 -0.13514059503E+02  0.60872578080E+02 -0.24727906659E+03  0.27067297723E+03  0.90712861625E+02 0.  0.
         23    2    1    2    0    0 -0.13933110082E+02 -0.92705019079E+01 -0.46187351707E+02  0.10223761722E+03  0.89661503197E+02 0.  0.
        -11    1    3    3    0    0 -0.27352199208E+02  0.44555707589E+02 -0.24337221366E+03  0.24892446296E+03  0.00000000000E+00 0.  1.
         11    1    3    3    0    0  0.13838139706E+02  0.16316870492E+02 -0.39068529319E+01  0.21748514271E+02  0.00000000000E+00 0. -1.
        -11    1    4    4    0    0  0.32061148865E+02 -0.22773744850E+02 -0.35819027993E+02  0.53193641419E+02  0.00000000000E+00 0. -1.
         11    1    4    4    0    0 -0.45994258947E+02  0.13503242942E+02 -0.10368323714E+02  0.49043975804E+02  0.00000000000E+00 0.  1.
         21    1    1    2  503  501 -0.92823624690E+01  0.20719759548E+02 -0.11439961761E+03  0.11663079867E+03  0.00000000000E+00 0.  1.
         -1    1    1    2    0  502  0.36729532053E+02 -0.72321835721E+02 -0.21381590497E+02  0.83884914371E+02  0.00000000000E+00 0.  1.
<scales pt_clust_5="13000.00000" pt_clust_6="13000.00000" pt_clust_7="13000.00000" pt_clust_8="13000.00000" pt_clust_9="22.70398" pt_clust_10="78.02074"></scales>
<clustering>
<clus scale="   22.704">  2  9  1 -1</clus>
<clus scale="   78.021">  1 10  2 -1</clus>
<clus scale="   89.662">  7  8 -1 -1</clus>
<clus scale="   90.713">  5  6 -1 -1</clus>
<clus scale="  103.590">  1  7  2 -1</clus>
<clus scale="   78.021">  1  5  2 -1</clus>
</clustering>
</event>
<event>
10    2  0.3544405E-006  0.2660334E+03  0.7546771E-02  0.1103617E+00
         21   -1    0    0  503  502  0.00000000000E+00  0.00000000000E+00  0.58924104250E+03  0.58924104250E+03  0.00000000000E+00 0. -1.
         -1   -1    0    0    0  501 -0.00000000000E+00 -0.00000000000E+00 -0.24432652776E+03  0.24432652776E+03  0.00000000000E+00 0.  1.
         23    2    1    2    0    0 -0.19658855354E+03 -0.11005128259E+03  0.68923982304E+02  0.25309387517E+03  0.92453502508E+02 0.  0.
         23    2    1    2    0    0  0.23019451770E+03  0.15697817398E+03  0.71125975756E+02  0.30178476044E+03  0.91561313429E+02 0.  0.
        -11    1    3    3    0    0 -0.11132328981E+03 -0.23996207868E+02  0.66606889972E+02  0.13192865738E+03  0.00000000000E+00 0.  1.
         11    1    3    3    0    0 -0.85265263739E+02 -0.86055074718E+02  0.23170923323E+01  0.12116521779E+03  0.00000000000E+00 0. -1.
        -13    1    4    4    0    0  0.61984804728E+01  0.39905996180E+02  0.64573057660E+01  0.40897512015E+02  0.00000000000E+00 0.  1.
         13    1    4    4    0    0  0.22399603723E+03  0.11707217780E+03  0.64668669990E+02  0.26088724842E+03  0.00000000000E+00 0. -1.
         21    1    1    2  503  501 -0.65820765228E+01  0.19443560988E+02 -0.28186483969E+02  0.34869093389E+02  0.00000000000E+00 0.  1.
         -1    1    1    2    0  502 -0.27023887636E+02 -0.66370452382E+02  0.23305104064E+03  0.24381984127E+03  0.00000000000E+00 0.  1.
<scales pt_clust_5="13000.00000" pt_clust_6="13000.00000" pt_clust_7="13000.00000" pt_clust_8="13000.00000" pt_clust_9="20.52744" pt_clust_10="71.26916"></scales>
<clustering>
<clus scale="   20.527">  2  9  1 -1</clus>
<clus scale="   71.269">  1 10  2 -1</clus>
<clus scale="   91.561">  7  8 -1 -1</clus>
<clus scale="   92.454">  5  6 -1 -1</clus>
<clus scale="  265.725">  1  7  2 -1</clus>
<clus scale="   71.269">  1  5  2 -1</clus>
</clustering>
</event>
<event>
10    2  0.3544405E-006  0.8982066E+02  0.7546771E-02  0.1303830E+00
         21   -1    0    0  501  502  0.00000000000E+00  0.00000000000E+00  0.26351721823E+03  0.26351721823E+03  0.00000000000E+00 0.  1.
          1   -1    0    0  503    0 -0.00000000000E+00 -0.00000000000E+00 -0.10701045445E+03  0.10701045445E+03  0.00000000000E+00 0. -1.
         23    2    1    2    0    0 -0.10069571695E+02 -0.12614240576E+02  0.54921960634E+02  0.10515181243E+03  0.88204118709E+02 0.  0.
         23    2    1    2    0    0 -0.27498383678E+02 -0.29703495160E+02  0.64942997642E+02  0.11745271269E+03  0.89101560291E+02 0.  0.
        -11    1    4    4    0    0  0.17184179619E+02 -0.25238917262E+02  0.65800277930E+02  0.72539475800E+02  0.00000000000E+00 0.  1.
         11    1    4    4    0    0 -0.44682563296E+02 -0.44645778981E+01 -0.85728028843E+00  0.44913236891E+02  0.00000000000E+00 0. -1.
        -13    1    3    3    0    0 -0.48037258725E+02 -0.17904065150E+02  0.33458476270E+02  0.61217672359E+02  0.00000000000E+00 0.  1.
         13    1    3    3    0    0  0.37967687030E+02  0.52898245737E+01  0.21463484364E+02  0.43934140068E+02  0.00000000000E+00 0. -1.
         21    1    1    2  503  502  0.13402993032E+02  0.19192721005E+02 -0.49913400398E+02  0.55130284790E+02  0.00000000000E+00 0. -1.
          1    1    1    2  501    0  0.24164962341E+02  0.23125014730E+02  0.86555205906E+02  0.92792862768E+02  0.00000000000E+00 0. -1.
<scales pt_clust_5="13000.00000" pt_clust_6="13000.00000" pt_clust_7="13000.00000" pt_clust_8="13000.00000" pt_clust_9="23.40942" pt_clust_10="34.76194"></scales>
<clustering>
<clus scale="   23.409">  2  9  1 -1</clus>
<clus scale="   34.762">  1 10  2 -1</clus>
<clus scale="   88.204">  7  8 -1 -1</clus>
<clus scale="   88.930">  2  7  1 -1</clus>
<clus scale="   89.102">  5  6 -1 -1</clus>
<clus scale="   34.762">  1  5  2 -1</clus>
</clustering>
</event>
<event>
10    2  0.3544405E-006  0.1086200E+03  0.7546771E-02  0.1264342E+00
         21   -1    0    0  501  502  0.00000000000E+00  0.00000000000E+00  0.14821318348E+03  0.14821318348E+03  0.00000000000E+00 0.  1.
          1   -1    0    0  503    0 -0.00000000000E+00 -0.00000000000E+00 -0.25495684934E+03  0.25495684934E+03  0.00000000000E+00 0. -1.
         23    2    1    2    0    0  0.92761928094E+01  0.27610697639E+02 -0.44076677041E+02  0.10679872653E+03  0.92816033915E+02 0.  0.
         23    2    1    2    0    0  0.94686631042E+02 -0.17673162015E+02  0.23310417679E+02  0.13774682866E+03  0.95670865361E+02 0.  0.
        -11    1    4    4    0    0 -0.10054645014E+02 -0.25185622929E+02 -0.78126183117E+01  0.28221419057E+02  0.00000000000E+00 0. -1.
         11    1    4    4    0    0  0.10474127606E+03  0.75124609139E+01  0.31123035991E+02  0.10952540960E+03  0.00000000000E+00 0.  1.
        -11    1    3    3    0    0  0.35300816612E+02 -0.21754971283E+02 -0.18128983008E+02  0.45255789176E+02  0.00000000000E+00 0.  1.
         11    1    3    3    0    0 -0.26024623803E+02  0.49365668922E+02 -0.25947694033E+02  0.61542937351E+02  0.00000000000E+00 0. -1.
         21    1    1    2  503  502 -0.83061379379E+02 -0.88019611771E+01 -0.10230893617E+03  0.13207492451E+03  0.00000000000E+00 0. -1.
          1    1    1    2  501    0 -0.20901444472E+02 -0.11355744465E+01  0.16331529666E+02  0.26549553133E+02  0.00000000000E+00 0. -1.
<scales pt_clust_5="13000.00000" pt_clust_6="13000.00000" pt_clust_7="13000.00000" pt_clust_8="13000.00000" pt_clust_9="85.98074" pt_clust_10="20.93227"></scales>
<clustering>
<clus scale="   20.932">  1 10  2 -1</clus>
<clus scale="   85.981">  2  9  1 -1</clus>
<clus scale="   92.816">  7  8 -1 -1</clus>
<clus scale="   95.671">  5  6 -1 -1</clus>
<clus scale="  106.114">  2  7  1 -1</clus>
<clus scale="   20.932">  1  5  2 -1</clus>
</clustering>
</event>
<event>
10    2  0.3544405E-006  0.1165341E+03  0.7546771E-02  0.1249099E+00
          2   -1    0    0  503    0 -0.00000000000E+00  0.00000000000E+00  0.13079555350E+04  0.13079555350E+04  0.00000000000E+00 0. -1.
         21   -1    0    0  501  502  0.00000000000E+00 -0.00000000000E+00 -0.31884299446E+02  0.31884299446E+02  0.00000000000E+00 0.  1.
         23    2    1    2    0    0  0.38908617533E+02  0.78109296568E+02  0.41519862802E+03  0.43408033204E+03  0.91765414106E+02 0.  0.
         23    2    1    2    0    0  0.36966563134E+02 -0.71292710288E+02  0.31467193830E+03  0.33733523757E+03  0.91254898066E+02 0.  0.
        -13    1    4    4    0    0 -0.17902993612E+02 -0.51846713477E+02  0.91365733915E+02  0.10656592426E+03  0.00000000000E+00 0. -1.
         13    1    4    4    0    0  0.54869556746E+02 -0.19445996811E+02  0.22330620438E+03  0.23076931331E+03  0.00000000000E+00 0.  1.
        -13    1    3    3    0    0  0.64357055578E+02  0.56298450579E+02  0.22013700573E+03  0.23616021560E+03  0.00000000000E+00 0.  1.
         13    1    3    3    0    0 -0.25448438044E+02  0.21810845989E+02  0.19506162229E+03  0.19792011644E+03  0.00000000000E+00 0. -1.
         21    1    1    2  503  502  0.25373576567E+02 -0.39194855971E+02  0.23429779389E+03  0.23890481650E+03  0.00000000000E+00 0. -1.
          2    1    1    2  501    0 -0.10124875723E+03  0.32378269691E+02  0.31190287537E+03  0.32951944837E+03  0.00000000000E+00 0. -1.
<scales pt_clust_5="13000.00000" pt_clust_6="13000.00000" pt_clust_7="13000.00000" pt_clust_8="13000.00000" pt_clust_9="46.69106" pt_clust_10="95.90176"></scales>
<clustering>
<clus scale="   46.691">  1  9  2 -1</clus>
<clus scale="   91.255">  5  6 -1 -1</clus>
<clus scale="   91.765">  7  8 -1 -1</clus>
<clus scale="   95.902">  2 10  1 -1</clus>
<clus scale="  116.133">  2  5  1 -1</clus>
<clus scale="   95.902">  2  5  1 -1</clus>
</clustering>
</event>
<event>
10    2  0.3544405E-006  0.2460930E+03  0.7546771E-02  0.1115805E+00
          1   -1    0    0  503    0 -0.00000000000E+00  0.00000000000E+00  0.87856789453E+03  0.87856789453E+03  0.00000000000E+00 0. -1.
         21   -1    0    0  501  502  0.00000000000E+00 -0.00000000000E+00 -0.11013533414E+03  0.11013533414E+03  0.00000000000E+00 0. -1.
         23    2    1    2    0    0 -0.75859865140E+02  0.21286733962E+03  0.30422182647E+03  0.38958033771E+03  0.90303357707E+02 0.  0.
         23    2    1    2    0    0  0.95285826106E+02 -0.21063229171E+03  0.36920711297E+03  0.44489679635E+03  0.90409712807E+02 0.  0.
        -11    1    3    3    0    0 -0.95019725695E+02  0.15904991429E+03  0.21721877625E+03  0.28549889713E+03  0.00000000000E+00 0.  1.
         11    1    3    3    0    0  0.19159860555E+02  0.53817425330E+02  0.87003050216E+02  0.10408144058E+03  0.00000000000E+00 0. -1.
        -11    1    4    4    0    0 -0.13773069406E+02 -0.31339188149E+02  0.27573252140E+02  0.43955959645E+02  0.00000000000E+00 0.  1.
         11    1    4    4    0    0  0.10905889551E+03 -0.17929310356E+03  0.34163386083E+03  0.40094083671E+03  0.00000000000E+00 0. -1.
         21    1    1    2  503  502  0.24563424500E+02 -0.18297811418E+02  0.10233936784E+03  0.10682470658E+03  0.00000000000E+00 0. -1.
          1    1    1    2  501    0 -0.43989385466E+02  0.16062763503E+02 -0.73357468797E+01  0.47401388031E+02  0.00000000000E+00 0. -1.
<scales pt_clust_5="13000.00000" pt_clust_6="13000.00000" pt_clust_7="13000.00000" pt_clust_8="13000.00000" pt_clust_9="30.62959" pt_clust_10="46.07123"></scales>
<clustering>
<clus scale="   30.630">  1  9  2 -1</clus>
<clus scale="   46.071">  2 10  1 -1</clus>
<clus scale="   90.303">  5  6 -1 -1</clus>
<clus scale="   90.410">  7  8 -1 -1</clus>
<clus scale="  246.054">  1  5  2 -1</clus>
<clus scale="   46.071">  2  5  1 -1</clus>
</clustering>
</event>
<event>
10    2  0.3544405E-006  0.1397668E+03  0.7546771E-02  0.1214127E+00
          2   -1    0    0  503    0 -0.00000000000E+00  0.00000000000E+00  0.29228367880E+03  0.29228367880E+03  0.00000000000E+00 0. -1.
         21   -1    0    0  501  502  0.00000000000E+00 -0.00000000000E+00 -0.19897387855E+03  0.19897387855E+03  0.00000000000E+00 0.  1.
         23    2    1    2    0    0  0.99312798069E+02 -0.52602115208E+02 -0.18356974870E+02  0.14831804756E+03  0.95032890725E+02 0.  0.
         23    2    1    2    0    0 -0.40380179939E+02  0.93865800352E+02 -0.87122510484E+01  0.14122966253E+03  0.97100807689E+02 0.  0.
        -11    1    4    4    0    0 -0.53324488019E+02  0.17446377283E+02 -0.25968057823E+02  0.61824082119E+02  0.00000000000E+00 0. -1.
         11    1    4    4    0    0  0.12944308080E+02  0.76419423068E+02  0.17255806774E+02  0.79405580416E+02  0.00000000000E+00 0.  1.
        -13    1    3    3    0    0  0.43976261653E+02 -0.68869464425E+02 -0.34081262506E+02  0.88535005355E+02  0.00000000000E+00 0. -1.
         13    1    3    3    0    0  0.55336536416E+02  0.16267349217E+02  0.15724287636E+02  0.59783042200E+02  0.00000000000E+00 0.  1.
         21    1    1    2  503  502 -0.43382985599E+02  0.45890614943E+01  0.14209816720E+03  0.14864397750E+03  0.00000000000E+00 0. -1.
          2    1    1    2  501    0 -0.15549632532E+02 -0.45852746638E+02 -0.21719141038E+02  0.53065869762E+02  0.00000000000E+00 0. -1.
<scales pt_clust_5="13000.00000" pt_clust_6="13000.00000" pt_clust_7="13000.00000" pt_clust_8="13000.00000" pt_clust_9="43.62503" pt_clust_10="49.64842"></scales>
<clustering>
<clus scale="   43.625">  1  9  2 -1</clus>
<clus scale="   49.648">  2 10  1 -1</clus>
<clus scale="   95.033">  7  8 -1 -1</clus>
<clus scale="   97.101">  5  6 -1 -1</clus>
<clus scale="  138.338">  1  7  2 -1</clus>
<clus scale="   49.648">  2  5  1 -1</clus>
</clustering>
</event>
<event>
10    2  0.3544405E-006  0.2252283E+03  0.7546771E-02  0.1130086E+00
         -2   -1    0    0    0  501 -0.00000000000E+00  0.00000000000E+00  0.26472162260E+03  0.26472162260E+03  0.00000000000E+00 0. -1.
         21   -1    0    0  503  502  0.00000000000E+00 -0.00000000000E+00 -0.10272855477E+04  0.10272855477E+04  0.00000000000E+00 0. -1.
         23    2    1    2    0    0  0.13766362572E+03  0.48058783435E+02 -0.16743550336E+03  0.24008716002E+03  0.91357955926E+02 0.  0.
         23    2    1    2    0    0 -0.29910228317E+03 -0.36120730082E+02 -0.28505072085E+03  0.42482037733E+03  0.91932347895E+02 0.  0.
        -11    1    4    4    0    0 -0.67536110030E+02 -0.45314786892E+02 -0.54350853540E+02  0.97819074569E+02  0.00000000000E+00 0. -1.
         11    1    4    4    0    0 -0.23156617314E+03  0.91940568100E+01 -0.23069986731E+03  0.32700130276E+03  0.00000000000E+00 0.  1.
        -11    1    3    3    0    0  0.10760254838E+03  0.64215974744E+01 -0.15222677620E+03  0.18652757632E+03  0.00000000000E+00 0. -1.
         11    1    3    3    0    0  0.30061077334E+02  0.41637185961E+02 -0.15208727159E+02  0.53559583708E+02  0.00000000000E+00 0.  1.
         21    1    1    2  503  501  0.31900577606E+02 -0.63206277666E+02  0.13949624418E+03  0.15643491467E+03  0.00000000000E+00 0. -1.
         -2    1    1    2    0  502  0.12953807985E+03  0.51268224313E+02 -0.44957394508E+03  0.47066471830E+03  0.00000000000E+00 0. -1.
<scales pt_clust_5="13000.00000" pt_clust_6="13000.00000" pt_clust_7="13000.00000" pt_clust_8="13000.00000" pt_clust_9="70.80029" pt_clust_10="140.03765"></scales>
<clustering>
<clus scale="   70.800">  1  9  2 -1</clus>
<clus scale="   91.358">  7  8 -1 -1</clus>
<clus scale="   91.932">  5  6 -1 -1</clus>
<clus scale="  140.038">  2 10  1 -1</clus>
<clus scale="  224.994">  1  7  2 -1</clus>
<clus scale="  140.038">  2  5  1 -1</clus>
</clustering>
</event>
<event>
10    2  0.3544405E-006  0.1461588E+03  0.7546771E-02  0.1205382E+00
          3   -1    0    0  503    0 -0.00000000000E+00  0.00000000000E+00  0.84213051351E+03  0.84213051351E+03  0.00000000000E+00 0. -1.
         21   -1    0    0  501  502  0.00000000000E+00 -0.00000000000E+00 -0.66302643344E+02  0.66302643344E+02  0.00000000000E+00 0. -1.
         23    2    1    2    0    0 -0.43637887094E+01  0.13693377867E+03  0.41224813678E+03  0.44384012235E+03  0.90970465175E+02 0.  0.
         23    2    1    2    0    0  0.47250423572E+02 -0.82435980502E+02  0.20871355407E+03  0.24690900576E+03  0.91511835659E+02 0.  0.
        -13    1    4    4    0    0 -0.25549868946E+02 -0.40399324033E+02  0.79059596177E+02  0.92386800644E+02  0.00000000000E+00 0.  1.
         13    1    4    4    0    0  0.72800292518E+02 -0.42036656469E+02  0.12965395789E+03  0.15452220512E+03  0.00000000000E+00 0. -1.
        -13    1    3    3    0    0 -0.96380274236E+01  0.11111623587E+03  0.39909902185E+03  0.41439080430E+03  0.00000000000E+00 0. -1.
         13    1    3    3    0    0  0.52742387142E+01  0.25817542798E+02  0.13149114934E+02  0.29449318051E+02  0.00000000000E+00 0.  1.
         21    1    1    2  503  502 -0.19097539749E+02 -0.11094700815E+02  0.16557687987E+03  0.16704344213E+03  0.00000000000E+00 0. -1.
          3    1    1    2  501    0 -0.23789095113E+02 -0.43403097353E+02 -0.10710700555E+02  0.50640586613E+02  0.00000000000E+00 0. -1.
<scales pt_clust_5="13000.00000" pt_clust_6="13000.00000" pt_clust_7="13000.00000" pt_clust_8="13000.00000" pt_clust_9="22.08639" pt_clust_10="50.05466"></scales>
<clustering>
<clus scale="   22.086">  1  9  2 -1</clus>
<clus scale="   50.055">  2 10  1 -1</clus>
<clus scale="   90.970">  7  8 -1 -1</clus>
<clus scale="   91.512">  5  6 -1 -1</clus>
<clus scale="  145.820">  1  7  2 -1</clus>
<clus scale="   50.055">  2  5  1 -1</clus>
</clustering>
</event>
<event>
10    2  0.3544405E-006  0.1960343E+03  0.7546771E-02  0.1175546E+00
         21   -1    0    0  501  502  0.00000000000E+00  0.00000000000E+00  0.19606243810E+03  0.19606243810E+03  0.00000000000E+00 0. -1.
          3   -1    0    0  503    0 -0.00000000000E+00 -0.00000000000E+00 -0.50850582007E+03  0.50850582007E+03  0.00000000000E+00 0. -1.
         23    2    1    2    0    0  0.50017183946E+01 -0.80156639828E+02 -0.15928039299E+03  0.20099626621E+03  0.92623708331E+02 0.  0.
         23    2    1    2    0    0  0.18399491094E+03  0.11214640976E+03 -0.39513323420E+02  0.23745927383E+03  0.91622374597E+02 0.  0.
        -11    1    4    4    0    0  0.13549542694E+03  0.11701674552E+03 -0.53313357597E+02  0.18680000951E+03  0.00000000000E+00 0. -1.
         11    1    4    4    0    0  0.48499483998E+02 -0.48703357571E+01  0.13800034177E+02  0.50659264323E+02  0.00000000000E+00 0.  1.
        -13    1    3    3    0    0 -0.26430906791E+02 -0.59665333146E+01 -0.58864313243E+01  0.27728007995E+02  0.00000000000E+00 0.  1.
         13    1    3    3    0    0  0.31432625186E+02 -0.74190106514E+02 -0.15339396166E+03  0.17326825822E+03  0.00000000000E+00 0. -1.
         21    1    1    2  503  502 -0.50911336007E+02  0.25120120600E+02 -0.10136393532E+03  0.11617930959E+03  0.00000000000E+00 0. -1.
          3    1    1    2  501    0 -0.13808529332E+03 -0.57109890534E+02 -0.12285730234E+02  0.14993340854E+03  0.00000000000E+00 0. -1.
<scales pt_clust_5="13000.00000" pt_clust_6="13000.00000" pt_clust_7="13000.00000" pt_clust_8="13000.00000" pt_clust_9="56.77134" pt_clust_10="173.30552"></scales>
<clustering>
<clus scale="   56.771">  2  9  1 -1</clus>
<clus scale="   91.622">  5  6 -1 -1</clus>
<clus scale="   92.624">  7  8 -1 -1</clus>
<clus scale="  116.788">  2  7  1 -1</clus>
<clus scale="  173.306">  1 10  2 -1</clus>
<clus scale="  173.306">  1  5  2 -1</clus>
</clustering>
</event>
<event>
10    2  0.3544405E-006  0.1035025E+03  0.7546771E-02  0.1276456E+00
          4   -1    0    0  503    0 -0.00000000000E+00  0.00000000000E+00  0.28457987951E+03  0.28457987951E+03  0.00000000000E+00 0. -1.
         21   -1    0    0  501  502  0.00000000000E+00 -0.00000000000E+00 -0.87074403989E+02  0.87074403989E+02  0.00000000000E+00 0.  1.
         23    2    1    2    0    0 -0.36452791938E+02 -0.11936858700E+02  0.12702564127E+03  0.16429854709E+03  0.96887586406E+02 0.  0.
         23    2    1    2    0    0  0.39635982128E+02  0.27657283711E+02  0.24100605422E+02  0.10492196829E+03  0.89954676511E+02 0.  0.
        -11    1    3    3    0    0 -0.54797451305E+02  0.14629615377E+02  0.11776632507E+03  0.13071225511E+03  0.00000000000E+00 0.  1.
         11    1    3    3    0    0  0.18344659367E+02 -0.26566474076E+02  0.92593161956E+01  0.33586291974E+02  0.00000000000E+00 0. -1.
        -13    1    4    4    0    0  0.51594266854E+02  0.27384632701E+00  0.44996572735E+02  0.68459732119E+02  0.00000000000E+00 0. -1.
         13    1    4    4    0    0 -0.11958284726E+02  0.27383437384E+02 -0.20895967312E+02  0.36462236169E+02  0.00000000000E+00 0.  1.
         21    1    1    2  503  502  0.18396499173E+02 -0.79962421308E+01  0.68017062139E+02  0.70913269647E+02  0.00000000000E+00 0. -1.
          4    1    1    2  501    0 -0.21579689363E+02 -0.77241828802E+01 -0.21637833307E+02  0.31520498479E+02  0.00000000000E+00 0. -1.
<scales pt_clust_5="13000.00000" pt_clust_6="13000.00000" pt_clust_7="13000.00000" pt_clust_8="13000.00000" pt_clust_9="20.05919" pt_clust_10="22.58667"></scales>
<clustering>
<clus scale="   20.059">  1  9  2 -1</clus>
<clus scale="   22.587">  2 10  1 -1</clus>
<clus scale="   89.955">  7  8 -1 -1</clus>
<clus scale="   96.888">  5  6 -1 -1</clus>
<clus scale="   97.043">  2  7  1 -1</clus>
<clus scale="   22.587">  2  5  1 -1</clus>
</clustering>
</event>
<event>
10    2  0.3544405E-006  0.1716680E+03  0.7546771E-02  0.1176333E+00
          2   -1    0    0  503    0 -0.00000000000E+00  0.00000000000E+00  0.24891970716E+03  0.24891970716E+03  0.00000000000E+00 0. -1.
         21   -1    0    0  501  502  0.00000000000E+00 -0.00000000000E+00 -0.47212378202E+03  0.47212378202E+03  0.00000000000E+00 0.  1.
         23    2    1    2    0    0 -0.11338096650E+03  0.26085358492E+02  0.80221511007E+02  0.16805151424E+03  0.90940261267E+02 0.  0.
         23    2    1    2    0    0  0.17120166172E+03 -0.44980351225E+02 -0.17283720281E+03  0.26411987819E+03  0.92484433337E+02 0.  0.
        -11    1    3    3    0    0 -0.82489081249E+02  0.56159175459E+02  0.35461151984E+02  0.10590464963E+03  0.00000000000E+00 0. -1.
         11    1    3    3    0    0 -0.30891885254E+02 -0.30073816967E+02  0.44760359023E+02  0.62146864614E+02  0.00000000000E+00 0.  1.
        -11    1    4    4    0    0  0.65712684615E+02  0.12776608271E+02 -0.20460543085E+02  0.70000231868E+02  0.00000000000E+00 0. -1.
         11    1    4    4    0    0  0.10548897711E+03 -0.57756959497E+02 -0.15237665972E+03  0.19411964633E+03  0.00000000000E+00 0.  1.
         21    1    1    2  503  502 -0.26598065624E+02  0.14536788128E+02  0.74993252342E+02  0.80887348831E+02  0.00000000000E+00 0. -1.
          2    1    1    2  501    0 -0.31222629599E+02  0.43582046063E+01 -0.20558163541E+03  0.20798474791E+03  0.00000000000E+00 0. -1.
<scales pt_clust_5="13000.00000" pt_clust_6="13000.00000" pt_clust_7="13000.00000" pt_clust_8="13000.00000" pt_clust_9="30.31131" pt_clust_10="31.72467"></scales>
<clustering>
<clus scale="   30.311">  1  9  2 -1</clus>
<clus scale="   31.725">  2 10  1 -1</clus>
<clus scale="   90.940">  5  6 -1 -1</clus>
<clus scale="   92.484">  7  8 -1 -1</clus>
<clus scale="  170.841">  1  5  2 -1</clus>
<clus scale="   31.725">  2  5  1 -1</clus>
</clustering>
</event>
<event>
10    2  0.3544405E-006  0.1508112E+03  0.7546771E-02  0.1222576E+00
         21   -1    0    0  501  502  0.00000000000E+00  0.00000000000E+00  0.92888943977E+03  0.92888943977E+03  0.00000000000E+00 0. -1.
          1   -1    0    0  503    0 -0.00000000000E+00 -0.00000000000E+00 -0.73169638317E+02  0.73169638317E+02  0.00000000000E+00 0. -1.
         23    2    1    2    0    0 -0.61286248311E+01  0.33262670405E+02  0.56345487582E+02  0.11114808135E+03  0.89638812642E+02 0.  0.
         23    2    1    2    0    0  0.39419084801E+02  0.10886245630E+03  0.25085213083E+03  0.29059952831E+03  0.90091041042E+02 0.  0.
        -11    1    4    4    0    0 -0.19704994789E+02  0.41492675220E+02  0.37896957719E+02  0.59549209238E+02  0.00000000000E+00 0.  1.
         11    1    4    4    0    0  0.59124079589E+02  0.67369781078E+02  0.21295517311E+03  0.23105031907E+03  0.00000000000E+00 0. -1.
        -13    1    3    3    0    0  0.35566007549E+02  0.40032669873E+02  0.30449455843E+02  0.61601338551E+02  0.00000000000E+00 0.  1.
         13    1    3    3    0    0 -0.41694632380E+02 -0.67699994681E+01  0.25896031740E+02  0.49546742799E+02  0.00000000000E+00 0. -1.
         21    1    1    2  503  502  0.17320061972E+01 -0.24507298868E+02 -0.11409880776E+02  0.27088612416E+02  0.00000000000E+00 0. -1.
          1    1    1    2  501    0 -0.35022466167E+02 -0.11761782784E+03  0.55993206381E+03  0.57322285601E+03  0.00000000000E+00 0. -1.
<scales pt_clust_5="13000.00000" pt_clust_6="13000.00000" pt_clust_7="13000.00000" pt_clust_8="13000.00000" pt_clust_9="24.56843" pt_clust_10="120.94469"></scales>
<clustering>
<clus scale="   24.568">  2  9  1 -1</clus>
<clus scale="   89.639">  7  8 -1 -1</clus>
<clus scale="   90.091">  5  6 -1 -1</clus>
<clus scale="   92.172">  2  7  1 -1</clus>
<clus scale="  120.945">  1 10  2 -1</clus>
<clus scale="  120.945">  1  5  2 -1</clus>
</clustering>
</event>
<event>
10    2  0.3544405E-006  0.1785767E+03  0.7546771E-02  0.1169633E+00
         -1   -1    0    0    0  501 -0.00000000000E+00  0.00000000000E+00  0.98843605005E+03  0.98843605005E+03  0.00000000000E+00 0.  1.
         21   -1    0    0  503  502  0.00000000000E+00 -0.00000000000E+00 -0.85377206470E+02  0.85377206470E+02  0.00000000000E+00 0. -1.
         23    2    1    2    0    0  0.16756937182E+03 -0.40429309080E+02  0.68467878951E+03  0.71203981269E+03  0.92204265875E+02 0.  0.
         23    2    1    2    0    0 -0.13156102286E+03  0.30389493353E+02  0.84536650302E+02  0.18230819291E+03  0.88645405495E+02 0.  0.
        -11    1    3    3    0    0  0.13852083341E+02 -0.29497689216E+02  0.56405399326E+02  0.65142635463E+02  0.00000000000E+00 0. -1.
         11    1    3    3    0    0  0.15371728848E+03 -0.10931619864E+02  0.62827339018E+03  0.64689717723E+03  0.00000000000E+00 0.  1.
        -13    1    4    4    0    0 -0.64974114720E+02 -0.30018894347E+02  0.39598126389E+02  0.81797195643E+02  0.00000000000E+00 0.  1.
         13    1    4    4    0    0 -0.66586908144E+02  0.60408387700E+02  0.44938523913E+02  0.10051099727E+03  0.00000000000E+00 0. -1.
         21    1    1    2  503  501 -0.14843751065E+02  0.21305378195E+02  0.14890418690E+03  0.15115129163E+03  0.00000000000E+00 0. -1.
         -1    1    1    2    0  502 -0.21164597890E+02 -0.11265562468E+02 -0.15060783136E+02  0.28313959283E+02  0.00000000000E+00 0.  1.
<scales pt_clust_5="13000.00000" pt_clust_6="13000.00000" pt_clust_7="13000.00000" pt_clust_8="13000.00000" pt_clust_9="26.02020" pt_clust_10="23.97609"></scales>
<clustering>
<clus scale="   23.976">  2 10  1 -1</clus>
<clus scale="   26.020">  1  9  2 -1</clus>
<clus scale="   88.645">  7  8 -1 -1</clus>
<clus scale="   92.204">  5  6 -1 -1</clus>
<clus scale="  176.765">  2  7  1 -1</clus>
<clus scale="   23.976">  2  5  1 -1</clus>
</clustering>
</event>
<event>
10    2  0.3544405E-006  0.2008826E+03  0.7546771E-02  0.1173948E+00
          1   -1    0    0  503    0 -0.00000000000E+00  0.00000000000E+00  0.42008869081E+03  0.42008869081E+03  0.00000000000E+00 0. -1.
         21   -1    0    0  501  502  0.00000000000E+00 -0.00000000000E+00 -0.40757253309E+03  0.40757253309E+03  0.00000000000E+00 0. -1.
         23    2    1    2    0    0  0.78968857567E+02 -0.26293911749E+02  0.23314674685E+03  0.26402900618E+03  0.91795753070E+02 0.  0.
         23    2    1    2    0    0  0.60729166007E+02  0.15085818416E+03 -0.55778321467E+02  0.19837588826E+03  0.98972463682E+02 0.  0.
        -11    1    3    3    0    0  0.98783060758E+02 -0.22009096133E+02  0.17150434901E+03  0.19913873339E+03  0.00000000000E+00 0. -1.
         11    1    3    3    0    0 -0.19814203191E+02 -0.42848156160E+01  0.61642397832E+02  0.64890272795E+02  0.00000000000E+00 0.  1.
        -13    1    4    4    0    0  0.64481274169E+02  0.88423449470E+02  0.71242416255E+01  0.10966902914E+03  0.00000000000E+00 0. -1.
         13    1    4    4    0    0 -0.37521081614E+01  0.62434734688E+02 -0.62902563093E+02  0.88706859120E+02  0.00000000000E+00 0.  1.
         21    1    1    2  503  502 -0.22200347240E+02  0.15508773062E+02  0.65669700151E+02  0.71034406997E+02  0.00000000000E+00 0.  1.
          1    1    1    2  501    0 -0.11749767633E+03 -0.14007304547E+03 -0.23052196780E+03  0.29422192245E+03  0.00000000000E+00 0. -1.
<scales pt_clust_5="13000.00000" pt_clust_6="13000.00000" pt_clust_7="13000.00000" pt_clust_8="13000.00000" pt_clust_9="27.08094" pt_clust_10="174.80922"></scales>
<clustering>
<clus scale="   27.081">  1  9  2 -1</clus>
<clus scale="   91.796">  5  6 -1 -1</clus>
<clus scale="   98.972">  7  8 -1 -1</clus>
<clus scale="  112.542">  1  5  2 -1</clus>
<clus scale="  174.809">  2 10  1 -1</clus>
<clus scale="  174.809">  2  5  1 -1</clus>
</clustering>
</event>
<event>
10    2  0.3544405E-006  0.1043728E+03  0.7546771E-02  0.1273542E+00
          3   -1    0    0  503    0 -0.00000000000E+00  0.00000000000E+00  0.77842872233E+03  0.77842872233E+03  0.00000000000E+00 0. -1.
         21   -1    0    0  501  502  0.00000000000E+00 -0.00000000000E+00 -0.41151437803E+02  0.41151437803E+02  0.00000000000E+00 0. -1.
         23    2    1    2    0    0  0.66478130530E+01 -0.54856416322E+02  0.43769921029E+03  0.45007340236E+03  0.89062051373E+02 0.  0.
         23    2    1    2    0    0  0.22357393957E+02  0.52826166602E+02  0.87880209892E+02  0.14079640649E+03  0.93862877902E+02 0.  0.
        -11    1    3    3    0    0  0.21589223752E+02  0.18022667075E+02  0.16635666540E+03  0.16871707452E+03  0.00000000000E+00 0.  1.
         11    1    3    3    0    0 -0.14941410699E+02 -0.72879083397E+02  0.27134254489E+03  0.28135632784E+03  0.00000000000E+00 0. -1.
        -13    1    4    4    0    0  0.25173542128E+02  0.78330240005E+02  0.77779093398E+02  0.11322067432E+03  0.00000000000E+00 0. -1.
         13    1    4    4    0    0 -0.28161481704E+01 -0.25504073403E+02  0.10101116493E+02  0.27575732177E+02  0.00000000000E+00 0.  1.
         21    1    1    2  503  502  0.16182424649E+02  0.18602124522E+02  0.14128077335E+03  0.14341606195E+03  0.00000000000E+00 0. -1.
          3    1    1    2  501    0 -0.45187631659E+02 -0.16571874803E+02  0.70417090989E+02  0.85294289333E+02  0.00000000000E+00 0. -1.
<scales pt_clust_5="13000.00000" pt_clust_6="13000.00000" pt_clust_7="13000.00000" pt_clust_8="13000.00000" pt_clust_9="24.65583" pt_clust_10="45.51027"></scales>
<clustering>
<clus scale="   24.656">  1  9  2 -1</clus>
<clus scale="   45.510">  2 10  1 -1</clus>
<clus scale="   89.062">  5  6 -1 -1</clus>
<clus scale="   93.863">  7  8 -1 -1</clus>
<clus scale="  100.077">  1  5  2 -1</clus>
<clus scale="   45.510">  2  5  1 -1</clus>
</clustering>
</event>
<event>
10    2  0.3544405E-006  0.1390245E+03  0.7546771E-02  0.1229143E+00
          3   -1    0    0  503    0 -0.00000000000E+00  0.00000000000E+00  0.33443663435E+03  0.33443663435E+03  0.00000000000E+00 0. -1.
         21   -1    0    0  501  502  0.00000000000E+00 -0.00000000000E+00 -0.19602910717E+03  0.19602910717E+03  0.00000000000E+00 0. -1.
         23    2    1    2    0    0  0.41787053483E+02 -0.94727576659E+01  0.92263840269E+01  0.10139794220E+03  0.91435909491E+02 0.  0.
         23    2    1    2    0    0 -0.78202647448E+02 -0.57984012154E+02  0.16170074447E+03  0.21077560773E+03  0.93815917198E+02 0.  0.
        -11    1    4    4    0    0 -0.25921450456E+02 -0.74511833233E+02  0.11037000691E+03  0.13566677305E+03  0.00000000000E+00 0. -1.
         11    1    4    4    0    0 -0.52281196992E+02  0.16527821078E+02  0.51330737565E+02  0.75108834683E+02  0.00000000000E+00 0.  1.
        -13    1    3    3    0    0 -0.26974476341E+02 -0.11089069975E+02  0.14199481841E+02  0.32437865703E+02  0.00000000000E+00 0. -1.
         13    1    3    3    0    0  0.68761529824E+02  0.16163123093E+01 -0.49730978145E+01  0.68960076502E+02  0.00000000000E+00 0.  1.
         21    1    1    2  503  502  0.84844912977E+01 -0.34355555809E+02  0.65360470233E+02  0.74325512959E+02  0.00000000000E+00 0. -1.
          3    1    1    2  501    0  0.27931102667E+02  0.10181232563E+03 -0.97880071548E+02  0.14396667862E+03  0.00000000000E+00 0. -1.
<scales pt_clust_5="13000.00000" pt_clust_6="13000.00000" pt_clust_7="13000.00000" pt_clust_8="13000.00000" pt_clust_9="35.38772" pt_clust_10="102.59816"></scales>
<clustering>
<clus scale="   35.388">  1  9  2 -1</clus>
<clus scale="   91.436">  7  8 -1 -1</clus>
<clus scale="   93.816">  5  6 -1 -1</clus>
<clus scale="  102.642">  1  7  2 -1</clus>
<clus scale="  102.598">  2 10  1 -1</clus>
<clus scale="  102.598">  2  5  1 -1</clus>
</clustering>
</event>
<event>
10    2  0.3544405E-006  0.9794549E+02  0.7546771E-02  0.1284732E+00
         -1   -1    0    0    0  501 -0.00000000000E+00  0.00000000000E+00  0.68359118374E+02  0.68359118374E+02  0.00000000000E+00 0.  1.
         21   -1    0    0  503  502  0.00000000000E+00 -0.00000000000E+00 -0.66726775760E+03  0.66726775760E+03  0.00000000000E+00 0.  1.
         23    2    1    2    0    0  0.24352368934E+00  0.50579009069E+02 -0.87952137669E+02  0.13613500509E+03  0.90768197228E+02 0.  0.
         23    2    1    2    0    0  0.56409709023E+02 -0.26984276797E+02 -0.32007659768E+03  0.33849368086E+03  0.90657250877E+02 0.  0.
        -11    1    3    3    0    0  0.31235766744E+02 -0.11343134139E+02 -0.39511158370E+02  0.51628204035E+02  0.00000000000E+00 0. -1.
         11    1    3    3    0    0 -0.30992243055E+02  0.61922143208E+02 -0.48440979299E+02  0.84506801054E+02  0.00000000000E+00 0.  1.
        -11    1    4    4    0    0  0.57750621257E+02 -0.53569682864E+02 -0.27582873532E+03  0.28685595062E+03  0.00000000000E+00 0.  1.
         11    1    4    4    0    0 -0.13409122345E+01  0.26585406067E+02 -0.44247862357E+02  0.51637730241E+02  0.00000000000E+00 0. -1.
         21    1    1    2  503  501  0.12056755794E+02 -0.21611538923E+02  0.24555398988E+02  0.34862466842E+02  0.00000000000E+00 0.  1.
         -1    1    1    2    0  502 -0.68709988505E+02 -0.19831933483E+01 -0.21543530287E+03  0.22613572318E+03  0.00000000000E+00 0.  1.
<scales pt_clust_5="13000.00000" pt_clust_6="13000.00000" pt_clust_7="13000.00000" pt_clust_8="13000.00000" pt_clust_9="24.74720" pt_clust_10="67.22534"></scales>
<clustering>
<clus scale="   24.747">  1  9  2 -1</clus>
<clus scale="   67.225">  2 10  1 -1</clus>
<clus scale="   90.657">  7  8 -1 -1</clus>
<clus scale="   90.768">  5  6 -1 -1</clus>
<clus scale="   97.843">  2  7  1 -1</clus>
<clus scale="   67.225">  2  5  1 -1</clus>
</clustering>
</event>
<event>
10    2  0.3544405E-006  0.9960190E+02  0.7546771E-02  0.1282389E+00
         21   -1    0    0  503  502  0.00000000000E+00  0.00000000000E+00  0.61169722765E+03  0.61169722765E+03  0.00000000000E+00 0. -1.
         -3   -1    0    0    0  501 -0.00000000000E+00 -0.00000000000E+00 -0.23002839737E+03  0.23002839737E+03  0.00000000000E+00 0.  1.
         23    2    1    2    0    0  0.25622673933E+01 -0.46531783319E+02 -0.84995623835E+02  0.13414329023E+03  0.92727526500E+02 0.  0.
         23    2    1    2    0    0 -0.70600548695E+02  0.73892503146E+02  0.40335044391E+03  0.42576247158E+03  0.90208436965E+02 0.  0.
        -13    1    4    4    0    0 -0.49331674868E+02  0.13552607259E+02  0.72198389876E+02  0.88486692839E+02  0.00000000000E+00 0.  1.
         13    1    4    4    0    0 -0.21268873827E+02  0.60339895887E+02  0.33115205404E+03  0.33727577874E+03  0.00000000000E+00 0. -1.
        -13    1    3    3    0    0 -0.36329621117E+02  0.56938577312E+01 -0.43361398894E+02  0.56854835330E+02  0.00000000000E+00 0. -1.
         13    1    3    3    0    0  0.38891888511E+02 -0.52225641050E+02 -0.41634224941E+02  0.77288454904E+02  0.00000000000E+00 0.  1.
         21    1    1    2  503  501  0.14015189705E+02  0.20212311369E+02 -0.10019347520E+03  0.10316828750E+03  0.00000000000E+00 0.  1.
         -3    1    1    2    0  502  0.54023091596E+02 -0.47573031196E+02  0.16350748540E+03  0.17865157571E+03  0.00000000000E+00 0.  1.
<scales pt_clust_5="13000.00000" pt_clust_6="13000.00000" pt_clust_7="13000.00000" pt_clust_8="13000.00000" pt_clust_9="24.59600" pt_clust_10="71.83087"></scales>
<clustering>
<clus scale="   24.596">  2  9  1 -1</clus>
<clus scale="   71.831">  1 10  2 -1</clus>
<clus scale="   90.208">  5  6 -1 -1</clus>
<clus scale="   92.728">  7  8 -1 -1</clus>
<clus scale="   97.261">  1  5  2 -1</clus>
<clus scale="   71.831">  1  5  2 -1</clus>
</clustering>
</event>
<event>
10    2  0.3544405E-006  0.1631755E+03  0.7546771E-02  0.1186212E+00
         21   -1    0    0  501  502  0.00000000000E+00  0.00000000000E+00  0.24336478428E+03  0.24336478428E+03  0.00000000000E+00 0. -1.
          1   -1    0    0  503    0 -0.00000000000E+00 -0.00000000000E+00 -0.18818811511E+03  0.18818811511E+03  0.00000000000E+00 0. -1.
         23    2    1    2    0    0  0.46244202806E+02 -0.12207275689E+03 -0.59294728723E+02  0.16754714771E+03  0.86694276527E+02 0.  0.
         23    2    1    2    0    0 -0.31133418429E+02  0.13891779018E+03  0.72224691519E+02  0.18498826167E+03  0.93470897725E+02 0.  0.
        -13    1    3    3    0    0  0.77035939196E+01 -0.11242129671E+03 -0.60298491765E+02  0.12780376138E+03  0.00000000000E+00 0. -1.
         13    1    3    3    0    0  0.38540608886E+02 -0.96514601858E+01  0.10037630417E+01  0.39743386334E+02  0.00000000000E+00 0.  1.
        -13    1    4    4    0    0 -0.46138574406E+02  0.35788792251E+02  0.53318014518E+02  0.79072222501E+02  0.00000000000E+00 0. -1.
         13    1    4    4    0    0  0.15005155977E+02  0.10312899793E+03  0.18906677001E+02  0.10591603917E+03  0.00000000000E+00 0.  1.
         21    1    1    2  503  502 -0.36357067714E+02  0.45200501992E+01  0.22583230230E+02  0.43038000816E+02  0.00000000000E+00 0.  1.
          1    1    1    2  501    0  0.21246283338E+02 -0.21365083483E+02  0.19663476142E+02  0.35979489183E+02  0.00000000000E+00 0. -1.
<scales pt_clust_5="13000.00000" pt_clust_6="13000.00000" pt_clust_7="13000.00000" pt_clust_8="13000.00000" pt_clust_9="33.14715" pt_clust_10="30.13090"></scales>
<clustering>
<clus scale="   30.131">  1 10  2 -1</clus>
<clus scale="   33.147">  1  9  2 -1</clus>
<clus scale="   86.694">  5  6 -1 -1</clus>
<clus scale="   93.471">  7  8 -1 -1</clus>
<clus scale="  159.390">  2  5  1 -1</clus>
<clus scale="   30.131">  1  5  2 -1</clus>
</clustering>
</event>
<event>
10    2  0.3544405E-006  0.1438448E+03  0.7546771E-02  0.1210514E+00
         -2   -1    0    0    0  501 -0.00000000000E+00  0.00000000000E+00  0.83109719122E+03  0.83109719122E+03  0.00000000000E+00 0.  1.
         21   -1    0    0  503  502  0.00000000000E+00 -0.00000000000E+00 -0.37861988928E+03  0.37861988928E+03  0.00000000000E+00 0.  1.
         23    2    1    2    0    0  0.72048827937E+02 -0.93476975481E+02  0.59446050371E+03  0.61441935204E+03  0.10098946056E+03 0.  0.
         23    2    1    2    0    0 -0.51726639396E+01  0.12557006012E+03 -0.12754302602E+03  0.20087134909E+03  0.91035591658E+02 0.  0.
        -11    1    4    4    0    0 -0.71254914280E+01  0.20866441523E+02  0.13004939370E+02  0.25599012831E+02  0.00000000000E+00 0.  1.
         11    1    4    4    0    0  0.19528274883E+01  0.10470361860E+03 -0.14054796539E+03  0.17527233626E+03  0.00000000000E+00 0. -1.
        -11    1    3    3    0    0  0.89535695520E+02 -0.48465122479E+02  0.47040945172E+03  0.48130090498E+03  0.00000000000E+00 0.  1.
         11    1    3    3    0    0 -0.17486867582E+02 -0.45011853001E+02  0.12405105199E+03  0.13311844706E+03  0.00000000000E+00 0. -1.
         21    1    1    2  503  501 -0.52598232278E+02 -0.49836398317E+01  0.18512815138E+03  0.19251972143E+03  0.00000000000E+00 0. -1.
         -2    1    1    2    0  502 -0.14277931720E+02 -0.27109444806E+02 -0.19956832712E+03  0.20190665794E+03  0.00000000000E+00 0.  1.
<scales pt_clust_5="13000.00000" pt_clust_6="13000.00000" pt_clust_7="13000.00000" pt_clust_8="13000.00000" pt_clust_9="53.18492" pt_clust_10="30.63954"></scales>
<clustering>
<clus scale="   30.640">  2 10  1 -1</clus>
<clus scale="   53.185">  1  9  2 -1</clus>
<clus scale="   91.036">  5  6 -1 -1</clus>
<clus scale="  100.989">  7  8 -1 -1</clus>
<clus scale="  137.040">  2  5  1 -1</clus>
<clus scale="   30.640">  2  5  1 -1</clus>
</clustering>
</event>
<event>
10    2  0.3544405E-006  0.1722406E+03  0.7546771E-02  0.1175873E+00
         21   -1    0    0  501  502  0.00000000000E+00  0.00000000000E+00  0.18881755203E+03  0.18881755203E+03  0.00000000000E+00 0.  1.
          1   -1    0    0  503    0 -0.00000000000E+00 -0.00000000000E+00 -0.40896630112E+03  0.40896630112E+03  0.00000000000E+00 0.  1.
         23    2    1    2    0    0  0.92336639442E+02 -0.42184971116E+02 -0.71028291118E+02  0.15364360370E+03  0.90860948968E+02 0.  0.
         23    2    1    2    0    0 -0.13638614364E+03  0.15425495904E+03 -0.19453321898E+03  0.29824538859E+03  0.93334698604E+02 0.  0.
        -11    1    3    3    0    0 -0.10363659939E+02 -0.24910860313E+02 -0.33343207877E+02  0.42892026303E+02  0.00000000000E+00 0.  1.
         11    1    3    3    0    0  0.10270029938E+03 -0.17274110803E+02 -0.37685083241E+02  0.11075157740E+03  0.00000000000E+00 0. -1.
        -13    1    4    4    0    0 -0.14192042978E+03  0.11581952930E+03 -0.17989944971E+03  0.25674770450E+03  0.00000000000E+00 0.  1.
         13    1    4    4    0    0  0.55342861411E+01  0.38435429736E+02 -0.14633769265E+02  0.41497684092E+02  0.00000000000E+00 0. -1.
         21    1    1    2  503  502  0.17560204511E+02 -0.10566662610E+03  0.50081942862E+02  0.11824549740E+03  0.00000000000E+00 0.  1.
          1    1    1    2  501    0  0.26489299691E+02 -0.64033618186E+01 -0.46691818524E+01  0.27649363462E+02  0.00000000000E+00 0.  1.
<scales pt_clust_5="13000.00000" pt_clust_6="13000.00000" pt_clust_7="13000.00000" pt_clust_8="13000.00000" pt_clust_9="112.80483" pt_clust_10="27.25227"></scales>
<clustering>
<clus scale="   27.252">  1 10  2 -1</clus>
<clus scale="   90.861">  5  6 -1 -1</clus>
<clus scale="   93.335">  7  8 -1 -1</clus>
<clus scale="  112.805">  1  9  2 -1</clus>
<clus scale="  170.913">  2  5  1 -1</clus>
<clus scale="   27.252">  1  5  2 -1</clus>
</clustering>
</event>
<event>
10    2  0.3544405E-006  0.9127186E+02  0.7546771E-02  0.1303919E+00
         -1   -1    0    0    0  501 -0.00000000000E+00  0.00000000000E+00  0.10585724839E+03  0.10585724839E+03  0.00000000000E+00 0.  1.
         21   -1    0    0  503  502  0.00000000000E+00 -0.00000000000E+00 -0.27223948239E+03  0.27223948239E+03  0.00000000000E+00 0.  1.
         23    2    1    2    0    0  0.95618782297E+01  0.41481534954E+02 -0.83152768658E+01  0.92947395838E+02  0.82206613519E+02 0.  0.
         23    2    1    2    0    0 -0.18531167698E+02 -0.28469386742E+02 -0.12057371736E+03  0.15368928429E+03  0.89041926245E+02 0.  0.
        -11    1    4    4    0    0 -0.38778071936E+02 -0.31114831073E+02 -0.12343416650E+03  0.13307090229E+03  0.00000000000E+00 0.  1.
         11    1    4    4    0    0  0.20246904238E+02  0.26454443304E+01  0.28604491444E+01  0.20618381999E+02  0.00000000000E+00 0. -1.
        -11    1    3    3    0    0  0.22988397446E+02  0.15952347948E+02  0.32552447978E+02  0.42925583182E+02  0.00000000000E+00 0. -1.
         11    1    3    3    0    0 -0.13426519216E+02  0.25529187006E+02 -0.40867724844E+02  0.50021812656E+02  0.00000000000E+00 0.  1.
         21    1    1    2  503  501 -0.21450427109E+01 -0.52895783290E+02  0.23354554014E+02  0.57861907083E+02  0.00000000000E+00 0.  1.
         -1    1    1    2    0  502  0.11114332179E+02  0.39883635078E+02 -0.60847793797E+02  0.73598143569E+02  0.00000000000E+00 0.  1.
<scales pt_clust_5="13000.00000" pt_clust_6="13000.00000" pt_clust_7="13000.00000" pt_clust_8="13000.00000" pt_clust_9="49.55404" pt_clust_10="41.40329"></scales>
<clustering>
<clus scale="   41.403">  2 10  1 -1</clus>
<clus scale="   49.554">  1  9  2 -1</clus>
<clus scale="   82.207">  7  8 -1 -1</clus>
<clus scale="   84.617">  1  7  2 -1</clus>
<clus scale="   89.042">  5  6 -1 -1</clus>
<clus scale="   41.403">  2  5  1 -1</clus>
</clustering>
</event>
<event>
10    2  0.3544405E-006  0.1156715E+03  0.7546771E-02  0.1250967E+00
         -3   -1    0    0    0  501 -0.00000000000E+00  0.00000000000E+00  0.23747844891E+03  0.23747844891E+03  0.00000000000E+00 0.  1.
         21   -1    0    0  503  502  0.00000000000E+00 -0.00000000000E+00 -0.14776753979E+03  0.14776753979E+03  0.00000000000E+00 0.  1.
         23    2    1    2    0    0 -0.52145235971E+02  0.24826379670E+02  0.16255778214E+03  0.19569877963E+03  0.92398620403E+02 0.  0.
         23    2    1    2    0    0  0.36371294152E+02 -0.54506189731E+02 -0.66235061203E+02  0.13009989093E+03  0.90802546940E+02 0.  0.
        -11    1    4    4    0    0  0.26640533033E+01  0.22718893750E+02  0.77476861722E-01  0.22874687231E+02  0.00000000000E+00 0. -1.
         11    1    4    4    0    0  0.33707240848E+02 -0.77225083482E+02 -0.66312538064E+02  0.10722520370E+03  0.00000000000E+00 0.  1.
        -13    1    3    3    0    0 -0.25212191743E+02  0.56458814183E+02  0.12602173127E+03  0.14037353406E+03  0.00000000000E+00 0.  1.
         13    1    3    3    0    0 -0.26933044228E+02 -0.31632434513E+02  0.36536050875E+02  0.55325245577E+02  0.00000000000E+00 0. -1.
         21    1    1    2  503  501 -0.85639058787E+01  0.20181250689E+02  0.14135873369E+02  0.26085365230E+02  0.00000000000E+00 0.  1.
         -3    1    1    2    0  502  0.24337847698E+02  0.94985593721E+01 -0.20747685194E+02  0.33361952905E+02  0.00000000000E+00 0.  1.
<scales pt_clust_5="13000.00000" pt_clust_6="13000.00000" pt_clust_7="13000.00000" pt_clust_8="13000.00000" pt_clust_9="21.92312" pt_clust_10="26.11488"></scales>
<clustering>
<clus scale="   21.923">  1  9  2 -1</clus>
<clus scale="   26.115">  2 10  1 -1</clus>
<clus scale="   90.803">  5  6 -1 -1</clus>
<clus scale="   92.399">  7  8 -1 -1</clus>
<clus scale="  114.401">  2  5  1 -1</clus>
<clus scale="   26.115">  2  5  1 -1</clus>
</clustering>
</event>
<event>
10    2  0.3544405E-006  0.1697278E+03  0.7546771E-02  0.1178225E+00
         21   -1    0    0  501  502  0.00000000000E+00  0.00000000000E+00  0.96081117304E+02  0.96081117304E+02  0.00000000000E+00 0.  1.
          2   -1    0    0  503    0 -0.00000000000E+00 -0.00000000000E+00 -0.12035556479E+04  0.12035556479E+04  0.00000000000E+00 0. -1.
         23    2    1    2    0    0 -0.11022215611E+03  0.45456931306E+02 -0.29803656451E+03  0.33348844090E+03  0.90407356610E+02 0.  0.
         23    2    1    2    0    0  0.15344437110E+03 -0.10112952018E+03 -0.46964757874E+03  0.51247941917E+03  0.91071136913E+02 0.  0.
        -11    1    3    3    0    0 -0.74056677501E+02  0.63201635348E+02 -0.26175260247E+03  0.27927273962E+03  0.00000000000E+00 0. -1.
         11    1    3    3    0    0 -0.36165478606E+02 -0.17744704042E+02 -0.36283962035E+02  0.54215701280E+02  0.00000000000E+00 0.  1.
        -11    1    4    4    0    0  0.14496485806E+03 -0.58487175830E+02 -0.40902641123E+03  0.43787916700E+03  0.00000000000E+00 0.  1.
         11    1    4    4    0    0  0.84795130394E+01 -0.42642344350E+02 -0.60621167516E+02  0.74600252171E+02  0.00000000000E+00 0. -1.
         21    1    1    2  503  502  0.44350958106E+02  0.62729713042E+01 -0.34977273573E+03  0.35262915976E+03  0.00000000000E+00 0.  1.
          2    1    1    2  501    0 -0.87573173102E+02  0.49399617570E+02  0.99823483966E+01  0.10103974536E+03  0.00000000000E+00 0. -1.
<scales pt_clust_5="13000.00000" pt_clust_6="13000.00000" pt_clust_7="13000.00000" pt_clust_8="13000.00000" pt_clust_9="44.79238" pt_clust_10="98.65743"></scales>
<clustering>
<clus scale="   44.792">  2  9  1 -1</clus>
<clus scale="   90.407">  5  6 -1 -1</clus>
<clus scale="   91.071">  7  8 -1 -1</clus>
<clus scale="   98.657">  1 10  2 -1</clus>
<clus scale="  169.373">  2  5  1 -1</clus>
<clus scale="   98.657">  1  5  2 -1</clus>
</clustering>
</event>
<event>
10    2  0.3544405E-006  0.9870059E+02  0.7546771E-02  0.1285043E+00
         21   -1    0    0  501  502  0.00000000000E+00  0.00000000000E+00  0.54671270201E+03  0.54671270201E+03  0.00000000000E+00 0. -1.
          1   -1    0    0  503    0 -0.00000000000E+00 -0.00000000000E+00 -0.10467639795E+03  0.10467639795E+03  0.00000000000E+00 0. -1.
         23    2    1    2    0    0  0.24104198199E+01  0.43930877194E+02  0.17835491471E+03  0.20419203430E+03  0.89152561231E+02 0.  0.
         23    2    1    2    0    0  0.32612251725E+01 -0.23015597571E+02  0.17764500506E+03  0.20187258628E+03  0.93029242435E+02 0.  0.
        -11    1    3    3    0    0 -0.42099292148E+02  0.11792189356E+02  0.66399447470E+02  0.79500268889E+02  0.00000000000E+00 0. -1.
         11    1    3    3    0    0  0.44509711967E+02  0.32138687839E+02  0.11195546724E+03  0.12469176541E+03  0.00000000000E+00 0.  1.
        -13    1    4    4    0    0 -0.13326090805E+02 -0.56057393979E+02  0.91524615130E+02  0.10815161252E+03  0.00000000000E+00 0. -1.
         13    1    4    4    0    0  0.16587315977E+02  0.33041796408E+02  0.86120389929E+02  0.93720973761E+02  0.00000000000E+00 0.  1.
         21    1    1    2  503  502 -0.26409565874E+02 -0.25328830524E+02 -0.74707721679E+02  0.83188091118E+02  0.00000000000E+00 0. -1.
          1    1    1    2  501    0  0.20737920882E+02  0.44135509008E+01  0.16074410597E+03  0.16213638826E+03  0.00000000000E+00 0. -1.
<scales pt_clust_5="13000.00000" pt_clust_6="13000.00000" pt_clust_7="13000.00000" pt_clust_8="13000.00000" pt_clust_9="36.39442" pt_clust_10="21.20238"></scales>
<clustering>
<clus scale="   21.202">  1 10  2 -1</clus>
<clus scale="   36.394">  2  9  1 -1</clus>
<clus scale="   89.153">  5  6 -1 -1</clus>
<clus scale="   93.029">  7  8 -1 -1</clus>
<clus scale="   95.055">  2  5  1 -1</clus>
<clus scale="   21.202">  1  5  2 -1</clus>
</clustering>
</event>
<event>
10    2  0.3544405E-006  0.1157657E+03  0.7546771E-02  0.1258176E+00
         21   -1    0    0  501  502  0.00000000000E+00  0.00000000000E+00  0.21494873821E+03  0.21494873821E+03  0.00000000000E+00 0.  1.
          2   -1    0    0  503    0 -0.00000000000E+00 -0.00000000000E+00 -0.17379203857E+03  0.17379203857E+03  0.00000000000E+00 0. -1.
         23    2    1    2    0    0  0.15993904145E+02 -0.67357056440E+02 -0.54726647167E+01  0.11040312119E+03  0.85826109588E+02 0.  0.
         23    2    1    2    0    0  0.18397486328E+02  0.29491316108E+02  0.31582607801E+02  0.11484058126E+03  0.10479834331E+03 0.  0.
        -11    1    3    3    0    0 -0.16873329425E+02 -0.74403402622E+02 -0.79051159141E+01  0.76701150091E+02  0.00000000000E+00 0.  1.
         11    1    3    3    0    0  0.32867233570E+02  0.70463461820E+01  0.24324511975E+01  0.33701971098E+02  0.00000000000E+00 0. -1.
        -13    1    4    4    0    0  0.30274302800E+02  0.47000255679E+01 -0.32771025045E+02  0.44861606446E+02  0.00000000000E+00 0.  1.
         13    1    4    4    0    0 -0.11876816472E+02  0.24791290540E+02  0.64353632846E+02  0.69978974819E+02  0.00000000000E+00 0. -1.
         21    1    1    2  503  502 -0.18548755543E+02  0.18675016068E+02 -0.70052320250E+02  0.74834084011E+02  0.00000000000E+00 0. -1.
          2    1    1    2  501    0 -0.15842634930E+02  0.19190724265E+02  0.85099076802E+02  0.88662990317E+02  0.00000000000E+00 0. -1.
<scales pt_clust_5="13000.00000" pt_clust_6="13000.00000" pt_clust_7="13000.00000" pt_clust_8="13000.00000" pt_clust_9="26.78399" pt_clust_10="24.88520"></scales>
<clustering>
<clus scale="   24.885">  1 10  2 -1</clus>
<clus scale="   26.784">  2  9  1 -1</clus>
<clus scale="   85.826">  5  6 -1 -1</clus>
<clus scale="   98.920">  2  5  1 -1</clus>
<clus scale="  104.798">  7  8 -1 -1</clus>
<clus scale="   24.885">  1  5  2 -1</clus>
</clustering>
</event>
<event>
10    2  0.3544405E-006  0.9781467E+02  0.7546771E-02  0.1285477E+00
          1   -1    0    0  503    0 -0.00000000000E+00  0.00000000000E+00  0.10021663403E+04  0.10021663403E+04  0.00000000000E+00 0. -1.
         21   -1    0    0  501  502  0.00000000000E+00 -0.00000000000E+00 -0.62420853183E+03  0.62420853183E+03  0.00000000000E+00 0. -1.
         23    2    1    2    0    0  0.54844790751E+02 -0.32715540756E+02  0.21427472229E+03  0.24171446514E+03  0.91836639564E+02 0.  0.
         23    2    1    2    0    0  0.55881810302E+02  0.53588391300E+02  0.18277443731E+03  0.21828875487E+03  0.90823967988E+02 0.  0.
        -11    1    3    3    0    0 -0.96513664950E+01  0.20617838542E+02  0.82717896890E+02  0.85793324958E+02  0.00000000000E+00 0. -1.
         11    1    3    3    0    0  0.64496157246E+02 -0.53333379297E+02  0.13155682540E+03  0.15592114019E+03  0.00000000000E+00 0.  1.
        -13    1    4    4    0    0 -0.52791142798E+01  0.55917455951E+02  0.10734725680E+03  0.12115306216E+03  0.00000000000E+00 0.  1.
         13    1    4    4    0    0  0.61160924581E+02 -0.23290646510E+01  0.75427180513E+02  0.97135692709E+02  0.00000000000E+00 0. -1.
         21    1    1    2  503  502 -0.60839468326E+02  0.53288019828E+02  0.56738678257E+03  0.57312198963E+03  0.00000000000E+00 0. -1.
          1    1    1    2  501    0 -0.49887132727E+02 -0.74160870373E+02 -0.58647813371E+03  0.59324966248E+03  0.00000000000E+00 0. -1.
<scales pt_clust_5="13000.00000" pt_clust_6="13000.00000" pt_clust_7="13000.00000" pt_clust_8="13000.00000" pt_clust_9="80.87678" pt_clust_10="89.30056"></scales>
<clustering>
<clus scale="   80.877">  1  9  2 -1</clus>
<clus scale="   89.301">  2 10  1 -1</clus>
<clus scale="   90.824">  7  8 -1 -1</clus>
<clus scale="   91.837">  5  6 -1 -1</clus>
<clus scale="   96.865">  2  7  1 -1</clus>
<clus scale="   89.301">  2  5  1 -1</clus>
</clustering>
</event>
<event>
10    2  0.3544405E-006  0.2370606E+03  0.7546771E-02  0.1122238E+00
          1   -1    0    0  503    0 -0.00000000000E+00  0.00000000000E+00  0.64488543597E+03  0.64488543597E+03  0.00000000000E+00 0. -1.
         21   -1    0    0  501  502  0.00000000000E+00 -0.00000000000E+00 -0.15757210162E+03  0.15757210162E+03  0.00000000000E+00 0. -1.
         23    2    1    2    0    0  0.27065469756E+02 -0.22428081935E+03  0.39478114247E+03  0.46422335956E+03  0.92826459191E+02 0.  0.
         23    2    1    2    0    0 -0.33374310187E+02  0.20041313786E+03  0.59256930724E+02  0.23390658190E+03  0.99607403403E+02 0.  0.
        -11    1    4    4    0    0  0.27599060223E+02  0.13071416686E+03  0.37956416840E+02  0.13888337238E+03  0.00000000000E+00 0.  1.
         11    1    4    4    0    0 -0.60973370410E+02  0.69698970996E+02  0.21300513883E+02  0.95023209527E+02  0.00000000000E+00 0. -1.
        -13    1    3    3    0    0 -0.17180253174E+02 -0.13239422244E+03  0.16090460666E+03  0.20907817600E+03  0.00000000000E+00 0. -1.
         13    1    3    3    0    0  0.44245722930E+02 -0.91886596912E+02  0.23387653582E+03  0.25514518356E+03  0.00000000000E+00 0.  1.
         21    1    1    2  503  502 -0.19987411563E+02  0.74309562095E+01  0.59820255884E+02  0.63507312534E+02  0.00000000000E+00 0. -1.
          1    1    1    2  501    0  0.26296251995E+02  0.16436725288E+02 -0.26544994738E+02  0.40820283595E+02  0.00000000000E+00 0. -1.
<scales pt_clust_5="13000.00000" pt_clust_6="13000.00000" pt_clust_7="13000.00000" pt_clust_8="13000.00000" pt_clust_9="21.32406" pt_clust_10="30.85209"></scales>
<clustering>
<clus scale="   21.324">  1  9  2 -1</clus>
<clus scale="   30.852">  2 10  1 -1</clus>
<clus scale="   92.826">  7  8 -1 -1</clus>
<clus scale="   99.607">  5  6 -1 -1</clus>
<clus scale="  234.292">  1  7  2 -1</clus>
<clus scale="   30.852">  2  5  1 -1</clus>
</clustering>
</event>
<event>
10    2  0.3544405E-006  0.1087409E+03  0.7546771E-02  0.1263601E+00
          3   -1    0    0  503    0 -0.00000000000E+00  0.00000000000E+00  0.82803277506E+03  0.82803277506E+03  0.00000000000E+00 0. -1.
         21   -1    0    0  501  502  0.00000000000E+00 -0.00000000000E+00 -0.87558524046E+02  0.87558524046E+02  0.00000000000E+00 0.  1.
         23    2    1    2    0    0  0.19517724829E+02 -0.36836108320E+02  0.21155537273E+03  0.23456285109E+03  0.92337505519E+02 0.  0.
         23    2    1    2    0    0 -0.46085042446E+02 -0.30495894773E+02 -0.37427693721E+01  0.10911050741E+03  0.94006721934E+02 0.  0.
        -11    1    4    4    0    0  0.13010699522E+02 -0.27788586476E+02 -0.31315846984E+02  0.43842514899E+02  0.00000000000E+00 0.  1.
         11    1    4    4    0    0 -0.59095741968E+02 -0.27073082976E+01  0.27573077612E+02  0.65267992507E+02  0.00000000000E+00 0. -1.
        -13    1    3    3    0    0  0.55584342377E+02 -0.33893026401E+02  0.13833148983E+03  0.15288543893E+03  0.00000000000E+00 0.  1.
         13    1    3    3    0    0 -0.36066617548E+02 -0.29430819186E+01  0.73223882893E+02  0.81677412168E+02  0.00000000000E+00 0. -1.
         21    1    1    2  503  502  0.42073015200E+02  0.87328167237E+02  0.53748723812E+03  0.54615829074E+03  0.00000000000E+00 0. -1.
          3    1    1    2  501    0 -0.15505697583E+02 -0.19996164144E+02 -0.48255904591E+01  0.25759649867E+02  0.00000000000E+00 0. -1.
<scales pt_clust_5="13000.00000" pt_clust_6="13000.00000" pt_clust_7="13000.00000" pt_clust_8="13000.00000" pt_clust_9="95.45076" pt_clust_10="25.30362"></scales>
<clustering>
<clus scale="   25.304">  2 10  1 -1</clus>
<clus scale="   92.338">  7  8 -1 -1</clus>
<clus scale="   94.007">  5  6 -1 -1</clus>
<clus scale="   95.451">  1  9  2 -1</clus>
<clus scale="  107.301">  1  7  2 -1</clus>
<clus scale="   25.304">  2  5  1 -1</clus>
</clustering>
</event>
<event>
10    2  0.3544405E-006  0.1932374E+03  0.7546771E-02  0.1184048E+00
         21   -1    0    0  501  502  0.00000000000E+00  0.00000000000E+00  0.10212931988E+03  0.10212931988E+03  0.00000000000E+00 0. -1.
          1   -1    0    0  503    0 -0.00000000000E+00 -0.00000000000E+00 -0.13929030475E+04  0.13929030475E+04  0.00000000000E+00 0. -1.
         23    2    1    2    0    0  0.34345884475E+02  0.27363346529E+02 -0.34104020433E+03  0.35560056233E+03  0.90636341773E+02 0.  0.
         23    2    1    2    0    0 -0.26990798574E+03  0.15547541238E+02 -0.34362223887E+03  0.44707202599E+03  0.93301160595E+02 0.  0.
        -11    1    4    4    0    0 -0.15307599052E+03 -0.35288661092E+02 -0.16681875803E+03  0.22914197893E+03  0.00000000000E+00 0.  1.
         11    1    4    4    0    0 -0.11683199522E+03  0.50836202330E+02 -0.17680348084E+03  0.21793004706E+03  0.00000000000E+00 0. -1.
        -13    1    3    3    0    0  0.45993149693E+02 -0.20023952717E+02 -0.13976153137E+03  0.14849112482E+03  0.00000000000E+00 0.  1.
         13    1    3    3    0    0 -0.11647265218E+02  0.47387299245E+02 -0.20127867296E+03  0.20710943751E+03  0.00000000000E+00 0. -1.
         21    1    1    2  503  502  0.99385024753E+02 -0.22615032885E+02 -0.52016024176E+03  0.53005235587E+03  0.00000000000E+00 0. -1.
          1    1    1    2  501    0  0.13617707651E+03 -0.20295854881E+02 -0.85951042695E+02  0.16230742322E+03  0.00000000000E+00 0. -1.
<scales pt_clust_5="13000.00000" pt_clust_6="13000.00000" pt_clust_7="13000.00000" pt_clust_8="13000.00000" pt_clust_9="116.98648" pt_clust_10="169.22051"></scales>
<clustering>
<clus scale="   90.636">  7  8 -1 -1</clus>
<clus scale="   93.301">  5  6 -1 -1</clus>
<clus scale="  100.714">  2  7  1 -1</clus>
<clus scale="  116.986">  2  9  1 -1</clus>
<clus scale="  169.221">  1 10  2 -1</clus>
<clus scale="  169.221">  1  5  2 -1</clus>
</clustering>
</event>
<event>
10    2  0.3544405E-006  0.3126313E+03  0.7546771E-02  0.1079105E+00
         21   -1    0    0  501  502  0.00000000000E+00  0.00000000000E+00  0.11880716344E+03  0.11880716344E+03  0.00000000000E+00 0.  1.
          1   -1    0    0  503    0 -0.00000000000E+00 -0.00000000000E+00 -0.26026970213E+04  0.26026970213E+04  0.00000000000E+00 0. -1.
         23    2    1    2    0    0  0.25393518667E+03 -0.17209603251E+03 -0.17440718944E+04  0.17731772300E+04  0.90942798170E+02 0.  0.
         23    2    1    2    0    0 -0.33242098698E+03  0.17921055506E+03 -0.51088801135E+03  0.64184773590E+03  0.91333566161E+02 0.  0.
        -11    1    3    3    0    0  0.49691943467E+02  0.41186061267E+01 -0.24373937633E+03  0.24878733034E+03  0.00000000000E+00 0.  1.
         11    1    3    3    0    0  0.20424324320E+03 -0.17621463864E+03 -0.15003325181E+04  0.15243898996E+04  0.00000000000E+00 0. -1.
        -13    1    4    4    0    0 -0.12754920775E+03  0.52471797733E+02 -0.25818751343E+03  0.29271638500E+03  0.00000000000E+00 0. -1.
         13    1    4    4    0    0 -0.20487177923E+03  0.12673875733E+03 -0.25270049793E+03  0.34913135091E+03  0.00000000000E+00 0.  1.
         21    1    1    2  503  502 -0.11864414969E+02  0.54340868667E+02 -0.17693073728E+03  0.18546746384E+03  0.00000000000E+00 0. -1.
          1    1    1    2  501    0  0.90350215279E+02 -0.61455391219E+02 -0.51999214769E+02  0.12101175500E+03  0.00000000000E+00 0. -1.
<scales pt_clust_5="13000.00000" pt_clust_6="13000.00000" pt_clust_7="13000.00000" pt_clust_8="13000.00000" pt_clust_9="55.62099" pt_clust_10="107.83637"></scales>
<clustering>
<clus scale="   55.621">  2  9  1 -1</clus>
<clus scale="   90.943">  5  6 -1 -1</clus>
<clus scale="   91.334">  7  8 -1 -1</clus>
<clus scale="  107.836">  1 10  2 -1</clus>
<clus scale="  312.517">  2  5  1 -1</clus>
<clus scale="  107.836">  1  5  2 -1</clus>
</clustering>
</event>
<event>
10    2  0.3544405E-006  0.9668240E+02  0.7546771E-02  0.1289683E+00
         -4   -1    0    0    0  501 -0.00000000000E+00  0.00000000000E+00  0.10106347433E+03  0.10106347433E+03  0.00000000000E+00 0.  1.
         21   -1    0    0  503  502  0.00000000000E+00 -0.00000000000E+00 -0.17790575179E+03  0.17790575179E+03  0.00000000000E+00 0. -1.
         23    2    1    2    0    0 -0.34177835114E+02  0.11553787579E+02 -0.26280665906E+02  0.98240904571E+02  0.87515641516E+02 0.  0.
         23    2    1    2    0    0  0.29243805087E+02  0.13803402478E+02 -0.31299777697E+02  0.10218760851E+03  0.91743649331E+02 0.  0.
        -13    1    4    4    0    0  0.60328091478E+02  0.18979216650E+02 -0.31546481362E+02  0.70674392621E+02  0.00000000000E+00 0. -1.
         13    1    4    4    0    0 -0.31084286391E+02 -0.51758141725E+01  0.24670366489E+00  0.31513215886E+02  0.00000000000E+00 0.  1.
        -13    1    3    3    0    0 -0.62948188455E+02  0.17371597445E+02 -0.18665549366E+02  0.67916489608E+02  0.00000000000E+00 0.  1.
         13    1    3    3    0    0  0.28770353340E+02 -0.58178098653E+01 -0.76151165399E+01  0.30324414963E+02  0.00000000000E+00 0. -1.
         21    1    1    2  503  501  0.27327295425E+02 -0.13944050201E+02  0.16496232378E+02  0.34833077583E+02  0.00000000000E+00 0.  1.
         -4    1    1    2    0  502 -0.22393265398E+02 -0.11413139857E+02 -0.35758066230E+02  0.43707635455E+02  0.00000000000E+00 0.  1.
<scales pt_clust_5="13000.00000" pt_clust_6="13000.00000" pt_clust_7="13000.00000" pt_clust_8="13000.00000" pt_clust_9="29.73059" pt_clust_10="25.13400"></scales>
<clustering>
<clus scale="   25.134">  2 10  1 -1</clus>
<clus scale="   29.731">  1  9  2 -1</clus>
<clus scale="   87.516">  7  8 -1 -1</clus>
<clus scale="   91.744">  5  6 -1 -1</clus>
<clus scale="   92.680">  1  7  2 -1</clus>
<clus scale="   25.134">  2  5  1 -1</clus>
</clustering>
</event>
<event>
10    2  0.3544405E-006  0.1144859E+03  0.7546771E-02  0.1252889E+00
         -1   -1    0    0    0  501 -0.00000000000E+00  0.00000000000E+00  0.15556856091E+03  0.15556856091E+03  0.00000000000E+00 0.  1.
         21   -1    0    0  503  502  0.00000000000E+00 -0.00000000000E+00 -0.43676584755E+03  0.43676584755E+03  0.00000000000E+00 0.  1.
         23    2    1    2    0    0  0.54634345589E+02 -0.45035129278E+02  0.76978555896E+02  0.13722406504E+03  0.88835079615E+02 0.  0.
         23    2    1    2    0    0 -0.78266020396E+02  0.14781251941E+02 -0.10492273650E+03  0.15954786534E+03  0.90014917328E+02 0.  0.
        -11    1    4    4    0    0 -0.38089809892E+02 -0.24789847431E+02 -0.62174608592E+01  0.45869673781E+02  0.00000000000E+00 0.  1.
         11    1    4    4    0    0 -0.40176210504E+02  0.39571099372E+02 -0.98705275645E+02  0.11367819156E+03  0.00000000000E+00 0. -1.
        -11    1    3    3    0    0 -0.88479356730E+01 -0.25580056977E+02  0.64113200240E+02  0.69592583841E+02  0.00000000000E+00 0.  1.
         11    1    3    3    0    0  0.63482281262E+02 -0.19455072301E+02  0.12865355656E+02  0.67631481195E+02  0.00000000000E+00 0. -1.
         21    1    1    2  503  501 -0.14804622856E+02 -0.17907060728E+02  0.99262425270E+01  0.25265984496E+02  0.00000000000E+00 0. -1.
         -1    1    1    2    0  502  0.38436297664E+02  0.48160938065E+02 -0.26317934856E+03  0.27029649358E+03  0.00000000000E+00 0.  1.
<scales pt_clust_5="13000.00000" pt_clust_6="13000.00000" pt_clust_7="13000.00000" pt_clust_8="13000.00000" pt_clust_9="23.23445" pt_clust_10="61.01921"></scales>
<clustering>
<clus scale="   23.234">  1  9  2 -1</clus>
<clus scale="   61.019">  2 10  1 -1</clus>
<clus scale="   88.835">  7  8 -1 -1</clus>
<clus scale="   90.015">  5  6 -1 -1</clus>
<clus scale="  113.561">  1  7  2 -1</clus>
<clus scale="   61.019">  2  5  1 -1</clus>
</clustering>
</event>
<event>
10    2  0.3544405E-006  0.1754135E+03  0.7546771E-02  0.1177103E+00
         21   -1    0    0  501  502  0.00000000000E+00  0.00000000000E+00  0.25213608607E+03  0.25213608607E+03  0.00000000000E+00 0. -1.
          4   -1    0    0  503    0 -0.00000000000E+00 -0.00000000000E+00 -0.43671102164E+03  0.43671102164E+03  0.00000000000E+00 0. -1.
         23    2    1    2    0    0 -0.11733338713E+03  0.79774064270E+02 -0.25601604737E+03  0.30754135177E+03  0.94373944892E+02 0.  0.
         23    2    1    2    0    0  0.14337400823E+03  0.20630250472E+02 -0.17299775484E+02  0.19024424750E+03  0.12211420067E+03 0.  0.
        -11    1    4    4    0    0  0.10806794708E+03  0.34837373385E+02 -0.63732355110E+02  0.13020805220E+03  0.00000000000E+00 0. -1.
         11    1    4    4    0    0  0.35306061154E+02 -0.14207122913E+02  0.46432579625E+02  0.60036195302E+02  0.00000000000E+00 0.  1.
        -11    1    3    3    0    0  0.31419728804E+01  0.44831048050E+02 -0.69736331683E+02  0.82962948474E+02  0.00000000000E+00 0. -1.
         11    1    3    3    0    0 -0.12047536001E+03  0.34943016219E+02 -0.18627971568E+03  0.22457840330E+03  0.00000000000E+00 0.  1.
         21    1    1    2  503  502  0.16989827507E+02 -0.11931685942E+02 -0.30235824145E+02  0.36677301289E+02  0.00000000000E+00 0.  1.
          4    1    1    2  501    0 -0.43030448604E+02 -0.88472628799E+02  0.11897671143E+03  0.15438420715E+03  0.00000000000E+00 0. -1.
<scales pt_clust_5="13000.00000" pt_clust_6="13000.00000" pt_clust_7="13000.00000" pt_clust_8="13000.00000" pt_clust_9="20.76101" pt_clust_10="98.53097"></scales>
<clustering>
<clus scale="   20.761">  2  9  1 -1</clus>
<clus scale="   94.374">  7  8 -1 -1</clus>
<clus scale="   98.531">  1 10  2 -1</clus>
<clus scale="  122.114">  5  6 -1 -1</clus>
<clus scale="  157.367">  2  7  1 -1</clus>
<clus scale="   98.531">  1  5  2 -1</clus>
</clustering>
</event>
<event>
10    2  0.3544405E-006  0.2625675E+03  0.7546771E-02  0.1105966E+00
          2   -1    0    0  503    0 -0.00000000000E+00  0.00000000000E+00  0.97946282536E+03  0.97946282536E+03  0.00000000000E+00 0. -1.
         21   -1    0    0  501  502  0.00000000000E+00 -0.00000000000E+00 -0.28206815790E+03  0.28206815790E+03  0.00000000000E+00 0. -1.
         23    2    1    2    0    0  0.27261204858E+03  0.12279441838E+03  0.65875466263E+03  0.73031125031E+03  0.10000509275E+03 0.  0.
         23    2    1    2    0    0 -0.12445251859E+03 -0.11013204501E+03  0.12193923096E+03  0.22636341656E+03  0.93561335972E+02 0.  0.
        -13    1    4    4    0    0 -0.95254622421E+02 -0.10721818257E+03  0.13242178691E+03  0.19520428124E+03  0.00000000000E+00 0. -1.
         13    1    4    4    0    0 -0.29197896164E+02 -0.29138624327E+01 -0.10482555943E+02  0.31159135318E+02  0.00000000000E+00 0.  1.
        -13    1    3    3    0    0  0.23841048489E+03  0.72974578576E+02  0.57771430689E+03  0.62922068371E+03  0.00000000000E+00 0. -1.
         13    1    3    3    0    0  0.34201563691E+02  0.49819839805E+02  0.81040355741E+02  0.10109056660E+03  0.00000000000E+00 0.  1.
         21    1    1    2  503  502 -0.79684902896E+02  0.56611093033E+02  0.72094571464E+02  0.12145833375E+03  0.00000000000E+00 0.  1.
          2    1    1    2  501    0 -0.68474627099E+02 -0.69273466409E+02 -0.15539379760E+03  0.18339798264E+03  0.00000000000E+00 0. -1.
<scales pt_clust_5="13000.00000" pt_clust_6="13000.00000" pt_clust_7="13000.00000" pt_clust_8="13000.00000" pt_clust_9="103.35463" pt_clust_10="97.40425"></scales>
<clustering>
<clus scale="   93.561">  5  6 -1 -1</clus>
<clus scale="   97.404">  2 10  1 -1</clus>
<clus scale="  100.005">  7  8 -1 -1</clus>
<clus scale="  103.355">  2  9  1 -1</clus>
<clus scale="  260.181">  2  5  1 -1</clus>
<clus scale="   97.404">  2  5  1 -1</clus>
</clustering>
</event>
<event>
10    2  0.3544405E-006  0.1790373E+03  0.7546771E-02  0.1169070E+00
         21   -1    0    0  501  502  0.00000000000E+00  0.00000000000E+00  0.10106827197E+03  0.10106827197E+03  0.00000000000E+00 0. -1.
          2   -1    0    0  503    0 -0.00000000000E+00 -0.00000000000E+00 -0.10024816739E+04  0.10024816739E+04  0.00000000000E+00 0. -1.
         23    2    1    2    0    0  0.25835887740E+01  0.13663500618E+03 -0.39797270068E+03  0.43002814029E+03  0.88691212147E+02 0.  0.
         23    2    1    2    0    0 -0.98859699861E+02 -0.19933244934E+03 -0.39501927567E+03  0.46248960857E+03  0.91376935118E+02 0.  0.
        -11    1    4    4    0    0 -0.21518536824E+02 -0.12797462176E+02 -0.85708505846E+01  0.26462840832E+02  0.00000000000E+00 0.  1.
         11    1    4    4    0    0 -0.77341163037E+02 -0.18653498716E+03 -0.38644842508E+03  0.43602676774E+03  0.00000000000E+00 0. -1.
        -11    1    3    3    0    0 -0.38668918248E+02  0.35866142215E+02 -0.10560866177E+03  0.11804598611E+03  0.00000000000E+00 0.  1.
         11    1    3    3    0    0  0.41252507022E+02  0.10076886397E+03 -0.29236403891E+03  0.31198215419E+03  0.00000000000E+00 0. -1.
         21    1    1    2  503  502 -0.12353252857E+02 -0.26007814786E+02 -0.52836921094E+02  0.60172664198E+02  0.00000000000E+00 0. -1.
          2    1    1    2  501    0  0.10862936394E+03  0.88705257940E+02 -0.55584504483E+02  0.15085953280E+03  0.00000000000E+00 0. -1.
<scales pt_clust_5="13000.00000" pt_clust_6="13000.00000" pt_clust_7="13000.00000" pt_clust_8="13000.00000" pt_clust_9="28.79252" pt_clust_10="137.41363"></scales>
<clustering>
<clus scale="   28.793">  2  9  1 -1</clus>
<clus scale="   88.691">  7  8 -1 -1</clus>
<clus scale="   91.377">  5  6 -1 -1</clus>
<clus scale="  137.414">  1 10  2 -1</clus>
<clus scale="  177.682">  2  7  1 -1</clus>
<clus scale="  137.414">  1  5  2 -1</clus>
</clustering>
</event>
<event>
10    2  0.3544405E-006  0.1177702E+03  0.7546771E-02  0.1247166E+00
         21   -1    0    0  501  502  0.00000000000E+00  0.00000000000E+00  0.43464600163E+02  0.43464600163E+02  0.00000000000E+00 0. -1.
          1   -1    0    0  503    0 -0.00000000000E+00 -0.00000000000E+00 -0.59049666948E+03  0.59049666948E+03  0.00000000000E+00 0. -1.
         23    2    1    2    0    0  0.46751538100E+02  0.29538302203E+02 -0.15414219498E+03  0.18781133299E+03  0.91951416046E+02 0.  0.
         23    2    1    2    0    0 -0.73742970939E+02 -0.54329268668E+02 -0.24203405151E+03  0.27428898957E+03  0.90908044255E+02 0.  0.
        -11    1    4    4    0    0 -0.20285215346E+02  0.11736861832E+02 -0.71488584484E+01  0.24502042046E+02  0.00000000000E+00 0.  1.
         11    1    4    4    0    0 -0.53457755592E+02 -0.66066130499E+02 -0.23488519306E+03  0.24978694752E+03  0.00000000000E+00 0. -1.
        -11    1    3    3    0    0 -0.25238114096E+02  0.23851439586E+02 -0.57442289099E+02  0.67122799036E+02  0.00000000000E+00 0.  1.
         11    1    3    3    0    0  0.71989652196E+02  0.56868626167E+01 -0.96699905883E+02  0.12068853395E+03  0.00000000000E+00 0. -1.
         21    1    1    2  503  502 -0.11527364646E+02 -0.19976549493E+02 -0.48068952010E+02  0.53315727630E+02  0.00000000000E+00 0. -1.
          1    1    1    2  501    0  0.38518797485E+02  0.44767515958E+02 -0.10278687081E+03  0.11854521946E+03  0.00000000000E+00 0. -1.
<scales pt_clust_5="13000.00000" pt_clust_6="13000.00000" pt_clust_7="13000.00000" pt_clust_8="13000.00000" pt_clust_9="23.06388" pt_clust_10="54.41917"></scales>
<clustering>
<clus scale="   23.064">  2  9  1 -1</clus>
<clus scale="   54.419">  1 10  2 -1</clus>
<clus scale="   90.908">  5  6 -1 -1</clus>
<clus scale="   91.951">  7  8 -1 -1</clus>
<clus scale="  116.957">  1  5  2 -1</clus>
<clus scale="   54.419">  1  5  2 -1</clus>
</clustering>
</event>
<event>
10    2  0.3544405E-006  0.1287012E+03  0.7546771E-02  0.1230193E+00
         21   -1    0    0  501  502  0.00000000000E+00  0.00000000000E+00  0.92651955977E+02  0.92651955977E+02  0.00000000000E+00 0. -1.
          1   -1    0    0  503    0 -0.00000000000E+00 -0.00000000000E+00 -0.56728326761E+03  0.56728326761E+03  0.00000000000E+00 0. -1.
         23    2    1    2    0    0  0.11926703163E+02 -0.79849490291E+02 -0.34909864956E+03  0.37056848471E+03  0.94514270836E+02 0.  0.
         23    2    1    2    0    0 -0.45918688517E+02  0.56418099546E+02 -0.36529255790E+02  0.12256474962E+03  0.91630799464E+02 0.  0.
        -13    1    4    4    0    0 -0.44707477204E+02  0.17039203216E+01  0.15207010075E+02  0.47253730200E+02  0.00000000000E+00 0. -1.
         13    1    4    4    0    0 -0.12112113122E+01  0.54714179224E+02 -0.51736265865E+02  0.75311019424E+02  0.00000000000E+00 0.  1.
        -13    1    3    3    0    0 -0.29362967700E+02 -0.39126633088E+02 -0.25785759146E+03  0.26245688172E+03  0.00000000000E+00 0. -1.
         13    1    3    3    0    0  0.41289670863E+02 -0.40722857203E+02 -0.91241058094E+02  0.10811160299E+03  0.00000000000E+00 0.  1.
         21    1    1    2  503  502 -0.91532964919E+01 -0.22108653434E+02 -0.10025243220E+03  0.10306854785E+03  0.00000000000E+00 0. -1.
          1    1    1    2  501    0  0.43145281846E+02  0.45540044179E+02  0.11249025912E+02  0.63733441405E+02  0.00000000000E+00 0. -1.
<scales pt_clust_5="13000.00000" pt_clust_6="13000.00000" pt_clust_7="13000.00000" pt_clust_8="13000.00000" pt_clust_9="23.92855" pt_clust_10="61.47541"></scales>
<clustering>
<clus scale="   23.929">  2  9  1 -1</clus>
<clus scale="   61.475">  1 10  2 -1</clus>
<clus scale="   91.631">  5  6 -1 -1</clus>
<clus scale="   94.514">  7  8 -1 -1</clus>
<clus scale="  126.599">  1  5  2 -1</clus>
<clus scale="   61.475">  1  5  2 -1</clus>
</clustering>
</event>
<event>
10    2  0.3544405E-006  0.1035486E+03  0.7546771E-02  0.1275449E+00
         21   -1    0    0  501  502  0.00000000000E+00  0.00000000000E+00  0.10085650049E+03  0.10085650049E+03  0.00000000000E+00 0. -1.
          1   -1    0    0  503    0 -0.00000000000E+00 -0.00000000000E+00 -0.32635040894E+03  0.32635040894E+03  0.00000000000E+00 0. -1.
         23    2    1    2    0    0 -0.70022224372E+02  0.60240264363E+02 -0.13042394448E+03  0.18307233970E+03  0.89292076438E+02 0.  0.
         23    2    1    2    0    0 -0.14416601309E+02 -0.66872361890E+01 -0.67172929192E+02  0.11704022878E+03  0.94518015290E+02 0.  0.
        -11    1    4    4    0    0  0.30910963233E+02  0.21354019684E+02 -0.46716784014E+02  0.59949476338E+02  0.00000000000E+00 0.  1.
         11    1    4    4    0    0 -0.45327564543E+02 -0.28041255873E+02 -0.20456145178E+02  0.57090752437E+02  0.00000000000E+00 0. -1.
        -13    1    3    3    0    0 -0.12584138201E+02  0.51711819044E+02 -0.17380693253E+02  0.55987152643E+02  0.00000000000E+00 0.  1.
         13    1    3    3    0    0 -0.57438086171E+02  0.85284453191E+01 -0.11304325123E+03  0.12708518706E+03  0.00000000000E+00 0. -1.
         21    1    1    2  503  502  0.15641484051E+02 -0.19319054532E+02 -0.42155539156E+02  0.48938444733E+02  0.00000000000E+00 0.  1.
          1    1    1    2  501    0  0.68797341630E+02 -0.34233973643E+02  0.14258504377E+02  0.78155896219E+02  0.00000000000E+00 0. -1.
<scales pt_clust_5="13000.00000" pt_clust_6="13000.00000" pt_clust_7="13000.00000" pt_clust_8="13000.00000" pt_clust_9="24.85723" pt_clust_10="79.42544"></scales>
<clustering>
<clus scale="   24.857">  2  9  1 -1</clus>
<clus scale="   79.425">  1 10  2 -1</clus>
<clus scale="   89.292">  7  8 -1 -1</clus>
<clus scale="   94.518">  5  6 -1 -1</clus>
<clus scale="   98.801">  2  7  1 -1</clus>
<clus scale="   79.425">  1  5  2 -1</clus>
</clustering>
</event>
<event>
10    2  0.3544405E-006  0.1117534E+03  0.7546771E-02  0.1258490E+00
         21   -1    0    0  501  502  0.00000000000E+00  0.00000000000E+00  0.10575514075E+03  0.10575514075E+03  0.00000000000E+00 0.  1.
          1   -1    0    0  503    0 -0.00000000000E+00 -0.00000000000E+00 -0.43486788538E+03  0.43486788538E+03  0.00000000000E+00 0. -1.
         23    2    1    2    0    0 -0.32939562729E+01 -0.61298061212E+02 -0.26911726197E+03  0.28996315313E+03  0.88804431341E+02 0.  0.
         23    2    1    2    0    0  0.81430540636E+02  0.62350282171E+02 -0.43135293542E+02  0.14426111423E+03  0.91826602328E+02 0.  0.
        -11    1    4    4    0    0  0.39073812195E+02  0.70405477704E+02 -0.57356070728E+02  0.98860573231E+02  0.00000000000E+00 0.  1.
         11    1    4    4    0    0  0.42356728442E+02 -0.80551955329E+01  0.14220777186E+02  0.45400541000E+02  0.00000000000E+00 0. -1.
        -13    1    3    3    0    0 -0.18710614689E+02  0.93112589943E+01 -0.14886747701E+02  0.25659343391E+02  0.00000000000E+00 0.  1.
         13    1    3    3    0    0  0.15416658416E+02 -0.70609320206E+02 -0.25423051427E+03  0.26430380974E+03  0.00000000000E+00 0. -1.
         21    1    1    2  503  502 -0.72872260579E+02  0.21401500383E+02 -0.27793742920E+02  0.80875723960E+02  0.00000000000E+00 0. -1.
          1    1    1    2  501    0 -0.52643237845E+01 -0.22453721342E+02  0.10933553803E+02  0.25523034808E+02  0.00000000000E+00 0. -1.
<scales pt_clust_5="13000.00000" pt_clust_6="13000.00000" pt_clust_7="13000.00000" pt_clust_8="13000.00000" pt_clust_9="75.88490" pt_clust_10="23.06258"></scales>
<clustering>
<clus scale="   23.063">  1 10  2 -1</clus>
<clus scale="   75.885">  1  9  2 -1</clus>
<clus scale="   88.804">  7  8 -1 -1</clus>
<clus scale="   91.827">  5  6 -1 -1</clus>
<clus scale="  109.284">  2  7  1 -1</clus>
<clus scale="   23.063">  1  5  2 -1</clus>
</clustering>
</event>
<event>
10    2  0.3544405E-006  0.1194120E+03  0.7546771E-02  0.1244476E+00
         21   -1    0    0  501  502  0.00000000000E+00  0.00000000000E+00  0.48302945115E+02  0.48302945115E+02  0.00000000000E+00 0. -1.
          1   -1    0    0  503    0 -0.00000000000E+00 -0.00000000000E+00 -0.82629177599E+03  0.82629177599E+03  0.00000000000E+00 0. -1.
         23    2    1    2    0    0  0.85569599062E+02 -0.18732382695E+02 -0.44979834588E+03  0.46700598631E+03  0.90016558759E+02 0.  0.
         23    2    1    2    0    0 -0.51813124017E+02  0.55032186727E+02 -0.27453374517E+03  0.29825071207E+03  0.88721860998E+02 0.  0.
        -13    1    4    4    0    0 -0.53002338564E+02 -0.30590544908E+01 -0.86975145431E+02  0.10189838875E+03  0.00000000000E+00 0.  1.
         13    1    4    4    0    0  0.11892145477E+01  0.58091241218E+02 -0.18755859974E+03  0.19635232332E+03  0.00000000000E+00 0. -1.
        -13    1    3    3    0    0  0.68266462226E+01 -0.37161381465E+02 -0.80074622021E+02  0.88541043945E+02  0.00000000000E+00 0.  1.
         13    1    3    3    0    0  0.78742952839E+02  0.18428998771E+02 -0.36972372386E+03  0.37846494237E+03  0.00000000000E+00 0. -1.
         21    1    1    2  503  502 -0.12190034171E+02 -0.17956836545E+02 -0.72267915484E+02  0.75456586990E+02  0.00000000000E+00 0. -1.
          1    1    1    2  501    0 -0.21566440874E+02 -0.18342967487E+02  0.18611175653E+02  0.33881435734E+02  0.00000000000E+00 0. -1.
<scales pt_clust_5="13000.00000" pt_clust_6="13000.00000" pt_clust_7="13000.00000" pt_clust_8="13000.00000" pt_clust_9="21.70357" pt_clust_10="28.52445"></scales>
<clustering>
<clus scale="   21.704">  2  9  1 -1</clus>
<clus scale="   28.524">  1 10  2 -1</clus>
<clus scale="   88.722">  5  6 -1 -1</clus>
<clus scale="   90.017">  7  8 -1 -1</clus>
<clus scale="  118.439">  1  5  2 -1</clus>
<clus scale="   28.524">  1  5  2 -1</clus>
</clustering>
</event>
<event>
10    2  0.3544405E-006  0.1315832E+03  0.7546771E-02  0.1240759E+00
         21   -1    0    0  501  502  0.00000000000E+00  0.00000000000E+00  0.11239680708E+03  0.11239680708E+03  0.00000000000E+00 0. -1.
          1   -1    0    0  503    0 -0.00000000000E+00 -0.00000000000E+00 -0.57797680985E+03  0.57797680985E+03  0.00000000000E+00 0. -1.
         23    2    1    2    0    0  0.14060701974E+02 -0.24087187198E+02 -0.10060116368E+03  0.13918809239E+03  0.92058867052E+02 0.  0.
         23    2    1    2    0    0 -0.92627669541E+02  0.73744162164E+02 -0.27523446814E+03  0.31172481626E+03  0.86024775497E+02 0.  0.
        -11    1    3    3    0    0  0.46345302677E+02 -0.34646347009E+02 -0.42165892890E+02  0.71597618428E+02  0.00000000000E+00 0.  1.
         11    1    3    3    0    0 -0.32284600702E+02  0.10559159811E+02 -0.58435270794E+02  0.67590473967E+02  0.00000000000E+00 0. -1.
        -11    1    4    4    0    0 -0.42753588108E+01  0.29397662621E+02 -0.14862203736E+02  0.33217259977E+02  0.00000000000E+00 0.  1.
         11    1    4    4    0    0 -0.88352310730E+02  0.44346499543E+02 -0.26037226440E+03  0.27850755628E+03  0.00000000000E+00 0. -1.
         21    1    1    2  503  502  0.13457363215E+02  0.23120105037E+02 -0.13081633306E+03  0.13352360419E+03  0.00000000000E+00 0. -1.
          1    1    1    2  501    0  0.65109604351E+02 -0.72777080003E+02  0.41071962110E+02  0.10593710409E+03  0.00000000000E+00 0. -1.
<scales pt_clust_5="13000.00000" pt_clust_6="13000.00000" pt_clust_7="13000.00000" pt_clust_8="13000.00000" pt_clust_9="26.75145" pt_clust_10="99.56844"></scales>
<clustering>
<clus scale="   26.751">  2  9  1 -1</clus>
<clus scale="   86.025">  7  8 -1 -1</clus>
<clus scale="   92.059">  5  6 -1 -1</clus>
<clus scale="   95.429">  2  5  1 -1</clus>
<clus scale="   99.568">  1 10  2 -1</clus>
<clus scale="   99.568">  1  5  2 -1</clus>
</clustering>
</event>
<event>
10    2  0.3544405E-006  0.1338005E+03  0.7546771E-02  0.1223244E+00
         21   -1    0    0  503  502  0.00000000000E+00  0.00000000000E+00  0.54052126457E+03  0.54052126457E+03  0.00000000000E+00 0. -1.
         -1   -1    0    0    0  501 -0.00000000000E+00 -0.00000000000E+00 -0.75913247993E+02  0.75913247993E+02  0.00000000000E+00 0.  1.
         23    2    1    2    0    0  0.61023780675E+01  0.98780565190E+02  0.13734343152E+03  0.19341432286E+03  0.93547009721E+02 0.  0.
         23    2    1    2    0    0  0.50455115420E+02 -0.76494604489E+02  0.30987167235E+03  0.33497292921E+03  0.88256822914E+02 0.  0.
        -11    1    3    3    0    0 -0.30836170129E+02  0.31985697425E+02  0.10945174818E+02  0.45757524844E+02  0.00000000000E+00 0.  1.
         11    1    3    3    0    0  0.36938548197E+02  0.66794867765E+02  0.12639825671E+03  0.14765679802E+03  0.00000000000E+00 0. -1.
        -13    1    4    4    0    0  0.92789274466E+01 -0.84715279344E+02  0.20515128456E+03  0.22214820864E+03  0.00000000000E+00 0. -1.
         13    1    4    4    0    0  0.41176187973E+02  0.82206748552E+01  0.10472038780E+03  0.11282472057E+03  0.00000000000E+00 0.  1.
         21    1    1    2  503  501 -0.16424595997E+02  0.14477051659E+02 -0.13246742950E+02  0.25589618543E+02  0.00000000000E+00 0. -1.
         -1    1    1    2    0  502 -0.40132897490E+02 -0.36763012360E+02  0.30639655645E+02  0.62457641940E+02  0.00000000000E+00 0.  1.
<scales pt_clust_5="13000.00000" pt_clust_6="13000.00000" pt_clust_7="13000.00000" pt_clust_8="13000.00000" pt_clust_9="21.89412" pt_clust_10="55.42274"></scales>
<clustering>
<clus scale="   21.894">  2  9  1 -1</clus>
<clus scale="   55.423">  1 10  2 -1</clus>
<clus scale="   88.257">  7  8 -1 -1</clus>
<clus scale="   93.547">  5  6 -1 -1</clus>
<clus scale="  130.157">  1  7  2 -1</clus>
<clus scale="   55.423">  1  5  2 -1</clus>
</clustering>
</event>
<event>
10    2  0.4456888E-006  0.1200201E+03  0.7546771E-02  0.1243074E+00
         21   -1    0    0  503  502  0.00000000000E+00  0.00000000000E+00  0.15889934665E+03  0.15889934665E+03  0.00000000000E+00 0. -1.
         -1   -1    0    0    0  501 -0.00000000000E+00 -0.00000000000E+00 -0.32064422563E+03  0.32064422563E+03  0.00000000000E+00 0.  1.
         23    2    1    2    0    0  0.43511611001E+02 -0.55508031723E+02 -0.22391301820E+03  0.25188883696E+03  0.91304680011E+02 0.  0.
         23    2    1    2    0    0 -0.60627847149E+02  0.59908127252E+02  0.94757718145E+02  0.15679896480E+03  0.91335484083E+02 0.  0.
        -11    1    4    4    0    0  0.22954637456E+02  0.67323706276E+01  0.83237446590E+01  0.25328342231E+02  0.00000000000E+00 0.  1.
         11    1    4    4    0    0 -0.83582484605E+02  0.53175756624E+02  0.86433973486E+02  0.13147062257E+03  0.00000000000E+00 0. -1.
        -13    1    3    3    0    0 -0.25379589890E+02 -0.15322481967E+01 -0.31303396107E+02  0.40328327207E+02  0.00000000000E+00 0. -1.
         13    1    3    3    0    0  0.68891200890E+02 -0.53975783527E+02 -0.19260962209E+03  0.21156050976E+03  0.00000000000E+00 0.  1.
         21    1    1    2  503  501 -0.16387974378E+02 -0.20066126207E+02 -0.14360783884E+02  0.29621735920E+02  0.00000000000E+00 0. -1.
         -1    1    1    2    0  502  0.33504210526E+02  0.15666030678E+02 -0.18228795040E+02  0.41234034593E+02  0.00000000000E+00 0.  1.
<scales pt_clust_5="13000.00000" pt_clust_6="13000.00000" pt_clust_7="13000.00000" pt_clust_8="13000.00000" pt_clust_9="25.90782" pt_clust_10="34.67996"></scales>
<clustering>
<clus scale="   25.908">  2  9  1 -1</clus>
<clus scale="   34.680">  1 10  2 -1</clus>
<clus scale="   91.305">  7  8 -1 -1</clus>
<clus scale="   91.335">  5  6 -1 -1</clus>
<clus scale="  119.997">  2  7  1 -1</clus>
<clus scale="   34.680">  1  5  2 -1</clus>
</clustering>
</event>
<event>
10    2  0.3544405E-006  0.1457480E+03  0.7546771E-02  0.1206346E+00
         21   -1    0    0  503  502  0.00000000000E+00  0.00000000000E+00  0.50337166399E+03  0.50337166399E+03  0.00000000000E+00 0. -1.
         -1   -1    0    0    0  501 -0.00000000000E+00 -0.00000000000E+00 -0.23340005284E+03  0.23340005284E+03  0.00000000000E+00 0.  1.
         23    2    1    2    0    0  0.16643602822E+03 -0.24268503894E+02 -0.13688791623E+03  0.23582294187E+03  0.92651209027E+02 0.  0.
         23    2    1    2    0    0 -0.60950896907E+02  0.54737386552E+02  0.18492688475E+03  0.22135586410E+03  0.89940383294E+02 0.  0.
        -11    1    3    3    0    0  0.10914528899E+03 -0.12297354872E+02 -0.13912029639E+03  0.17725229452E+03  0.00000000000E+00 0.  1.
         11    1    3    3    0    0  0.57290739223E+02 -0.11971149022E+02  0.22323801612E+01  0.58570647349E+02  0.00000000000E+00 0. -1.
        -11    1    4    4    0    0 -0.62434416533E+02  0.11550680531E+02  0.15839841173E+03  0.17065031916E+03  0.00000000000E+00 0. -1.
         11    1    4    4    0    0  0.14835196259E+01  0.43186706021E+02  0.26528473021E+02  0.50705544945E+02  0.00000000000E+00 0.  1.
         21    1    1    2  503  501 -0.49494051253E+02  0.13328827548E+02  0.52238581926E+01  0.51522882758E+02  0.00000000000E+00 0. -1.
         -1    1    1    2    0  502 -0.55991080055E+02 -0.43797710205E+02  0.21670878443E+03  0.22807002810E+03  0.00000000000E+00 0.  1.
<scales pt_clust_5="13000.00000" pt_clust_6="13000.00000" pt_clust_7="13000.00000" pt_clust_8="13000.00000" pt_clust_9="51.25738" pt_clust_10="71.92608"></scales>
<clustering>
<clus scale="   51.257">  2  9  1 -1</clus>
<clus scale="   71.926">  1 10  2 -1</clus>
<clus scale="   89.940">  7  8 -1 -1</clus>
<clus scale="   92.651">  5  6 -1 -1</clus>
<clus scale="  144.040">  1  7  2 -1</clus>
<clus scale="   71.926">  1  5  2 -1</clus>
</clustering>
</event>
<event>
10    2  0.3544405E-006  0.1154213E+03  0.7546771E-02  0.1251432E+00
         -1   -1    0    0    0  501 -0.00000000000E+00  0.00000000000E+00  0.25571846391E+03  0.25571846391E+03  0.00000000000E+00 0.  1.
         21   -1    0    0  503  502  0.00000000000E+00 -0.00000000000E+00 -0.24299822834E+03  0.24299822834E+03  0.00000000000E+00 0.  1.
         23    2    1    2    0    0 -0.49673740475E+02  0.51893510234E+02  0.18306949125E+03  0.21557977812E+03  0.88316392644E+02 0.  0.
         23    2    1    2    0    0  0.53370470215E+02 -0.52043366212E+02 -0.62375308608E+02  0.13249245553E+03  0.90036951246E+02 0.  0.
        -11    1    4    4    0    0  0.12293401390E+02  0.18052202465E+02 -0.44108296196E+02  0.49219422232E+02  0.00000000000E+00 0.  1.
         11    1    4    4    0    0  0.41077068826E+02 -0.70095568677E+02 -0.18267012412E+02  0.83273033294E+02  0.00000000000E+00 0. -1.
        -11    1    3    3    0    0 -0.43187494566E+02 -0.15682150128E+02  0.75301348266E+02  0.88212145253E+02  0.00000000000E+00 0.  1.
         11    1    3    3    0    0 -0.64862459087E+01  0.67575660361E+02  0.10776814298E+03  0.12736763286E+03  0.00000000000E+00 0. -1.
         21    1    1    2  503  501 -0.22400735542E+02  0.21326873528E+02  0.74488934196E+01  0.31813747036E+02  0.00000000000E+00 0.  1.
         -1    1    1    2    0  502  0.18704005801E+02 -0.21177017550E+02 -0.11542284049E+03  0.11883071157E+03  0.00000000000E+00 0.  1.
<scales pt_clust_5="13000.00000" pt_clust_6="13000.00000" pt_clust_7="13000.00000" pt_clust_8="13000.00000" pt_clust_9="28.20604" pt_clust_10="28.25431"></scales>
<clustering>
<clus scale="   28.254">  2 10  1 -1</clus>
<clus scale="   28.206">  2  9  1 -1</clus>
<clus scale="   88.316">  7  8 -1 -1</clus>
<clus scale="   90.037">  5  6 -1 -1</clus>
<clus scale="  114.084">  1  7  2 -1</clus>
<clus scale="   28.254">  2  5  1 -1</clus>
</clustering>
</event>
<event>
10    2  0.3544405E-006  0.1869920E+03  0.7546771E-02  0.1189337E+00
         -2   -1    0    0    0  501 -0.00000000000E+00  0.00000000000E+00  0.68677975769E+03  0.68677975769E+03  0.00000000000E+00 0.  1.
         21   -1    0    0  503  502  0.00000000000E+00 -0.00000000000E+00 -0.33779237019E+03  0.33779237019E+03  0.00000000000E+00 0.  1.
         23    2    1    2    0    0  0.48205017579E+01  0.40284691945E+02 -0.44752823615E+02  0.10927891856E+03  0.91065762929E+02 0.  0.
         23    2    1    2    0    0 -0.10177646079E+03 -0.10589431569E+03  0.43914039702E+03  0.47218438436E+03  0.92421590931E+02 0.  0.
        -13    1    4    4    0    0  0.14331851230E+02 -0.30153251671E+02  0.62790846158E+02  0.71114772778E+02  0.00000000000E+00 0. -1.
         13    1    4    4    0    0 -0.11610831202E+03 -0.75741064022E+02  0.37634955086E+03  0.40106961158E+03  0.00000000000E+00 0.  1.
        -13    1    3    3    0    0 -0.26131614926E+02  0.38838194433E+02  0.85870550532E+01  0.47592059841E+02  0.00000000000E+00 0. -1.
         13    1    3    3    0    0  0.30952116683E+02  0.14464975115E+01 -0.53339878669E+02  0.61686858719E+02  0.00000000000E+00 0.  1.
         21    1    1    2  503  501 -0.34423500729E+02 -0.31928966546E+02  0.16786265870E+03  0.17430521648E+03  0.00000000000E+00 0.  1.
         -2    1    1    2    0  502  0.13137945976E+03  0.97538590294E+02 -0.21326284460E+03  0.26880360848E+03  0.00000000000E+00 0.  1.
<scales pt_clust_5="13000.00000" pt_clust_6="13000.00000" pt_clust_7="13000.00000" pt_clust_8="13000.00000" pt_clust_9="46.95142" pt_clust_10="162.55543"></scales>
<clustering>
<clus scale="   46.951">  1  9  2 -1</clus>
<clus scale="   91.066">  7  8 -1 -1</clus>
<clus scale="   92.422">  5  6 -1 -1</clus>
<clus scale="   98.823">  1  7  2 -1</clus>
<clus scale="  162.555">  2 10  1 -1</clus>
<clus scale="  162.555">  2  5  1 -1</clus>
</clustering>
</event>
<event>
10    2  0.3544405E-006  0.1318710E+03  0.7546771E-02  0.1227833E+00
          1   -1    0    0  503    0 -0.00000000000E+00  0.00000000000E+00  0.14250805941E+03  0.14250805941E+03  0.00000000000E+00 0. -1.
         21   -1    0    0  501  502  0.00000000000E+00 -0.00000000000E+00 -0.21284708784E+03  0.21284708784E+03  0.00000000000E+00 0. -1.
         23    2    1    2    0    0 -0.73072571552E+01 -0.68491940507E+02  0.36345089086E+02  0.12068823769E+03  0.92196221699E+02 0.  0.
         23    2    1    2    0    0  0.43077035990E+02  0.74130440409E+02 -0.94644611127E+02  0.16409729013E+03  0.10305030319E+03 0.  0.
        -11    1    3    3    0    0  0.31631682228E+02 -0.18979748552E+01  0.29411996589E+02  0.43234606191E+02  0.00000000000E+00 0. -1.
         11    1    3    3    0    0 -0.38938939383E+02 -0.66593965652E+02  0.69330924976E+01  0.77453631504E+02  0.00000000000E+00 0.  1.
        -13    1    4    4    0    0  0.67418834353E+02  0.20488377133E+02 -0.72677707226E+02  0.10122806899E+03  0.00000000000E+00 0.  1.
         13    1    4    4    0    0 -0.24341798363E+02  0.53642063276E+02 -0.21966903901E+02  0.62869221142E+02  0.00000000000E+00 0. -1.
         21    1    1    2  503  502 -0.19320099912E+02 -0.21733894753E+02  0.16869452433E+02  0.33618549451E+02  0.00000000000E+00 0. -1.
          1    1    1    2  501    0 -0.16449678923E+02  0.16095394852E+02 -0.28908958825E+02  0.36951069977E+02  0.00000000000E+00 0. -1.
<scales pt_clust_5="13000.00000" pt_clust_6="13000.00000" pt_clust_7="13000.00000" pt_clust_8="13000.00000" pt_clust_9="29.04817" pt_clust_10="23.01421"></scales>
<clustering>
<clus scale="   23.014">  2 10  1 -1</clus>
<clus scale="   29.048">  1  9  2 -1</clus>
<clus scale="   92.196">  5  6 -1 -1</clus>
<clus scale="  103.050">  7  8 -1 -1</clus>
<clus scale="  123.575">  1  5  2 -1</clus>
<clus scale="   23.014">  2  5  1 -1</clus>
</clustering>
</event>
<event>
10    2  0.3544405E-006  0.1186353E+03  0.7546771E-02  0.1247812E+00
          2   -1    0    0  503    0 -0.00000000000E+00  0.00000000000E+00  0.75625424644E+03  0.75625424644E+03  0.00000000000E+00 0. -1.
         21   -1    0    0  501  502  0.00000000000E+00 -0.00000000000E+00 -0.28045709623E+02  0.28045709623E+02  0.00000000000E+00 0. -1.
         23    2    1    2    0    0  0.34835478314E+01 -0.61839468096E+02  0.28899141450E+03  0.30832765718E+03  0.87827396684E+02 0.  0.
         23    2    1    2    0    0 -0.27633869983E+01  0.82456061696E+02  0.28221380620E+03  0.30900225354E+03  0.95032214876E+02 0.  0.
        -13    1    4    4    0    0  0.24613645833E+02  0.21364928540E+01  0.15621540107E+02  0.29230612006E+02  0.00000000000E+00 0.  1.
         13    1    4    4    0    0 -0.27377032832E+02  0.80319568842E+02  0.26659226610E+03  0.27977164154E+03  0.00000000000E+00 0. -1.
        -13    1    3    3    0    0  0.28292714812E+02 -0.70037285015E+02  0.25172598961E+03  0.26281490226E+03  0.00000000000E+00 0. -1.
         13    1    3    3    0    0 -0.24809166981E+02  0.81978169188E+01  0.37265424891E+02  0.45512754925E+02  0.00000000000E+00 0.  1.
         21    1    1    2  503  502 -0.23587095712E+02 -0.36378592932E+01  0.10500079308E+03  0.10767892854E+03  0.00000000000E+00 0. -1.
          2    1    1    2  501    0  0.22866934879E+02 -0.16978734307E+02  0.52002523034E+02  0.59291116799E+02  0.00000000000E+00 0. -1.
<scales pt_clust_5="13000.00000" pt_clust_6="13000.00000" pt_clust_7="13000.00000" pt_clust_8="13000.00000" pt_clust_9="23.86598" pt_clust_10="27.08439"></scales>
<clustering>
<clus scale="   23.866">  1  9  2 -1</clus>
<clus scale="   27.084">  2 10  1 -1</clus>
<clus scale="   87.827">  7  8 -1 -1</clus>
<clus scale="   95.032">  5  6 -1 -1</clus>
<clus scale="  112.946">  1  7  2 -1</clus>
<clus scale="   27.084">  2  5  1 -1</clus>
</clustering>
</event>
<event>
10    2  0.3544405E-006  0.1044992E+03  0.7546771E-02  0.1272876E+00
         -1   -1    0    0    0  501 -0.00000000000E+00  0.00000000000E+00  0.17225569126E+03  0.17225569126E+03  0.00000000000E+00 0.  1.
         21   -1    0    0  503  502  0.00000000000E+00 -0.00000000000E+00 -0.21618279242E+03  0.21618279242E+03  0.00000000000E+00 0.  1.
         23    2    1    2    0    0  0.38279176147E+02 -0.18849109661E+02  0.46000069931E+02  0.11481050437E+03  0.96150201347E+02 0.  0.
         23    2    1    2    0    0 -0.62346810304E+01  0.65196761068E+02 -0.19848134297E+02  0.11493197953E+03  0.92335922493E+02 0.  0.
        -13    1    4    4    0    0 -0.45246997114E+02  0.56786496228E+02 -0.18829973554E+02  0.75010431312E+02  0.00000000000E+00 0.  1.
         13    1    4    4    0    0  0.39012316083E+02  0.84102648401E+01 -0.10181607431E+01  0.39921548219E+02  0.00000000000E+00 0. -1.
        -13    1    3    3    0    0  0.14294465835E+02 -0.56842388037E+02  0.35985144356E+02  0.68777317813E+02  0.00000000000E+00 0.  1.
         13    1    3    3    0    0  0.23984710312E+02  0.37993278376E+02  0.10014925575E+02  0.46033186560E+02  0.00000000000E+00 0. -1.
         21    1    1    2  503  501  0.82881016633E+01  0.24130117157E+02  0.23576820535E+02  0.34739338649E+02  0.00000000000E+00 0.  1.
         -1    1    1    2    0  502 -0.40332596780E+02 -0.70477768564E+02 -0.93655857333E+02  0.12395666113E+03  0.00000000000E+00 0.  1.
<scales pt_clust_5="13000.00000" pt_clust_6="13000.00000" pt_clust_7="13000.00000" pt_clust_8="13000.00000" pt_clust_9="25.51382" pt_clust_10="78.55087"></scales>
<clustering>
<clus scale="   25.514">  1  9  2 -1</clus>
<clus scale="   78.551">  2 10  1 -1</clus>
<clus scale="   92.336">  5  6 -1 -1</clus>
<clus scale="   96.150">  7  8 -1 -1</clus>
<clus scale="  101.001">  2  5  1 -1</clus>
<clus scale="   78.551">  2  5  1 -1</clus>
</clustering>
</event>
<event>
10    2  0.3544405E-006  0.9876437E+02  0.7546771E-02  0.1283661E+00
          1   -1    0    0  503    0 -0.00000000000E+00  0.00000000000E+00  0.11773783483E+03  0.11773783483E+03  0.00000000000E+00 0. -1.
         21   -1    0    0  501  502  0.00000000000E+00 -0.00000000000E+00 -0.36821495000E+03  0.36821495000E+03  0.00000000000E+00 0.  1.
         23    2    1    2    0    0 -0.24099595873E+02 -0.42016999314E+02  0.33913452103E+02  0.10818084685E+03  0.90591139964E+02 0.  0.
         23    2    1    2    0    0  0.35987445417E+02 -0.20230046460E+02 -0.15986871907E+03  0.18905157811E+03  0.92076820331E+02 0.  0.
        -11    1    3    3    0    0  0.30125823284E+02 -0.13795279992E+02 -0.79696645300E+01  0.34079180321E+02  0.00000000000E+00 0. -1.
         11    1    3    3    0    0 -0.54225419157E+02 -0.28221719322E+02  0.41883116633E+02  0.74101666534E+02  0.00000000000E+00 0.  1.
        -13    1    4    4    0    0 -0.35184661830E+01  0.33225063313E+02 -0.66730836539E+02  0.74627669009E+02  0.00000000000E+00 0.  1.
         13    1    4    4    0    0  0.39505911600E+02 -0.53455109773E+02 -0.93137882527E+02  0.11442390910E+03  0.00000000000E+00 0. -1.
         21    1    1    2  503  502 -0.96047291874E+01  0.24098758344E+02  0.24011714371E+02  0.35349164113E+02  0.00000000000E+00 0.  1.
          1    1    1    2  501    0 -0.22831203566E+01  0.38148287430E+02 -0.14853356258E+03  0.15337119575E+03  0.00000000000E+00 0. -1.
<scales pt_clust_5="13000.00000" pt_clust_6="13000.00000" pt_clust_7="13000.00000" pt_clust_8="13000.00000" pt_clust_9="25.94226" pt_clust_10="38.89373"></scales>
<clustering>
<clus scale="   25.942">  1  9  2 -1</clus>
<clus scale="   38.894">  2 10  1 -1</clus>
<clus scale="   90.591">  5  6 -1 -1</clus>
<clus scale="   92.077">  7  8 -1 -1</clus>
<clus scale="   97.381">  1  5  2 -1</clus>
<clus scale="   38.894">  2  5  1 -1</clus>
</clustering>
</event>
<event>
10    2  0.3544405E-006  0.1925157E+03  0.7546771E-02  0.1156810E+00
          1   -1    0    0  503    0 -0.00000000000E+00  0.00000000000E+00  0.25254650810E+03  0.25254650810E+03  0.00000000000E+00 0. -1.
         21   -1    0    0  501  502  0.00000000000E+00 -0.00000000000E+00 -0.10610084691E+04  0.10610084691E+04  0.00000000000E+00 0.  1.
         23    2    1    2    0    0 -0.42987535521E+02  0.17416553973E+03 -0.10979279252E+03  0.23119091664E+03  0.95985515616E+02 0.  0.
         23    2    1    2    0    0  0.59726071650E+02 -0.17637565381E+03 -0.84356194435E+03  0.86859709562E+03  0.90490804377E+02 0.  0.
        -11    1    3    3    0    0 -0.27659235879E+02  0.50220773884E+02 -0.87070396554E+02  0.10425168303E+03  0.00000000000E+00 0.  1.
         11    1    3    3    0    0 -0.15328299642E+02  0.12394476585E+03 -0.22722395963E+02  0.12693923361E+03  0.00000000000E+00 0. -1.
        -13    1    4    4    0    0  0.10127141843E+02 -0.14966570078E+03 -0.58026667792E+03  0.59934280550E+03  0.00000000000E+00 0.  1.
         13    1    4    4    0    0  0.49598929807E+02 -0.26709953032E+02 -0.26329526642E+03  0.26925429012E+03  0.00000000000E+00 0. -1.
         21    1    1    2  503  502 -0.79736771494E+01 -0.24355341892E+02  0.17254194276E+03  0.17443475633E+03  0.00000000000E+00 0. -1.
          1    1    1    2  501    0 -0.87648589802E+01  0.26565455975E+02 -0.27649166868E+02  0.39332208590E+02  0.00000000000E+00 0. -1.
<scales pt_clust_5="13000.00000" pt_clust_6="13000.00000" pt_clust_7="13000.00000" pt_clust_8="13000.00000" pt_clust_9="25.62737" pt_clust_10="26.47351"></scales>
<clustering>
<clus scale="   25.627">  1  9  2 -1</clus>
<clus scale="   26.474">  2 10  1 -1</clus>
<clus scale="   90.491">  7  8 -1 -1</clus>
<clus scale="   95.986">  5  6 -1 -1</clus>
<clus scale="  189.836">  2  7  1 -1</clus>
<clus scale="   26.474">  2  5  1 -1</clus>
</clustering>
</event>
<event>
10    2  0.3544405E-006  0.1421947E+03  0.7546771E-02  0.1210764E+00
          2   -1    0    0  503    0 -0.00000000000E+00  0.00000000000E+00  0.12946889390E+04  0.12946889390E+04  0.00000000000E+00 0. -1.
         21   -1    0    0  501  502  0.00000000000E+00 -0.00000000000E+00 -0.59279604185E+02  0.59279604185E+02  0.00000000000E+00 0. -1.
         23    2    1    2    0    0 -0.10335359657E+03 -0.72789170983E+02  0.60781927881E+03  0.62718774770E+03  0.89106485914E+02 0.  0.
         23    2    1    2    0    0  0.69246703586E+02  0.63137476494E+02  0.36478892827E+03  0.38742634638E+03  0.90811699600E+02 0.  0.
        -13    1    4    4    0    0  0.22852314190E+02  0.70941639454E+02  0.28697808415E+03  0.29649850801E+03  0.00000000000E+00 0. -1.
         13    1    4    4    0    0  0.46394389397E+02 -0.78041629601E+01  0.77810844124E+02  0.90927838368E+02  0.00000000000E+00 0.  1.
        -13    1    3    3    0    0 -0.78611790614E+02 -0.89626311018E+00  0.30485869959E+03  0.31483240562E+03  0.00000000000E+00 0. -1.
         13    1    3    3    0    0 -0.24741805955E+02 -0.71892907873E+02  0.30296057922E+03  0.31235534208E+03  0.00000000000E+00 0.  1.
         21    1    1    2  503  502 -0.12766478491E+02  0.40910959644E+02  0.27777211530E+03  0.28105877967E+03  0.00000000000E+00 0. -1.
          2    1    1    2  501    0  0.46873371473E+02 -0.31259265154E+02 -0.14970987534E+02  0.58295669470E+02  0.00000000000E+00 0. -1.
<scales pt_clust_5="13000.00000" pt_clust_6="13000.00000" pt_clust_7="13000.00000" pt_clust_8="13000.00000" pt_clust_9="42.85662" pt_clust_10="55.63257"></scales>
<clustering>
<clus scale="   42.857">  1  9  2 -1</clus>
<clus scale="   55.633">  2 10  1 -1</clus>
<clus scale="   89.106">  7  8 -1 -1</clus>
<clus scale="   90.812">  5  6 -1 -1</clus>
<clus scale="  141.112">  1  7  2 -1</clus>
<clus scale="   55.633">  2  5  1 -1</clus>
</clustering>
</event>
<event>
10    2  0.3544405E-006  0.1061518E+03  0.7546771E-02  0.1268239E+00
         21   -1    0    0  501  502  0.00000000000E+00  0.00000000000E+00  0.60514357429E+02  0.60514357429E+02  0.00000000000E+00 0. -1.
          2   -1    0    0  503    0 -0.00000000000E+00 -0.00000000000E+00 -0.13393934976E+04  0.13393934976E+04  0.00000000000E+00 0. -1.
         23    2    1    2    0    0  0.92728642226E+02  0.15121701899E+02 -0.41901756166E+03  0.43904900808E+03  0.91438764016E+02 0.  0.
         23    2    1    2    0    0 -0.58208270378E+02  0.12361240246E+02 -0.80099114247E+02  0.13593951462E+03  0.92318365076E+02 0.  0.
        -11    1    4    4    0    0 -0.41692004817E+02  0.32134061785E+02 -0.89028695515E+00  0.52646118597E+02  0.00000000000E+00 0. -1.
         11    1    4    4    0    0 -0.16516265561E+02 -0.19772821539E+02 -0.79208827291E+02  0.83293396020E+02  0.00000000000E+00 0.  1.
        -11    1    3    3    0    0  0.10119875103E+03 -0.12725228231E+02 -0.32697658524E+03  0.34251540978E+03  0.00000000000E+00 0.  1.
         11    1    3    3    0    0 -0.84701088077E+01  0.27846930130E+02 -0.92040976416E+02  0.96533598299E+02  0.00000000000E+00 0. -1.
         21    1    1    2  503  502 -0.98745823994E+02  0.54677019427E+02 -0.64353431943E+03  0.65335804463E+03  0.00000000000E+00 0. -1.
          2    1    1    2  501    0  0.64225452145E+02 -0.82159961571E+02 -0.13622814485E+03  0.17156128770E+03  0.00000000000E+00 0. -1.
<scales pt_clust_5="13000.00000" pt_clust_6="13000.00000" pt_clust_7="13000.00000" pt_clust_8="13000.00000" pt_clust_9="101.97673" pt_clust_10="104.28407"></scales>
<clustering>
<clus scale="   91.439">  7  8 -1 -1</clus>
<clus scale="   92.318">  5  6 -1 -1</clus>
<clus scale="  104.284">  1 10  2 -1</clus>
<clus scale="  101.977">  2  9  1 -1</clus>
<clus scale="  105.388">  2  7  1 -1</clus>
<clus scale="  104.284">  1  5  2 -1</clus>
</clustering>
</event>
<event>
10    2  0.3544405E-006  0.9627595E+02  0.7546771E-02  0.1298944E+00
         21   -1    0    0  501  502  0.00000000000E+00  0.00000000000E+00  0.10184152344E+03  0.10184152344E+03  0.00000000000E+00 0.  1.
          3   -1    0    0  503    0 -0.00000000000E+00 -0.00000000000E+00 -0.30619829969E+03  0.30619829969E+03  0.00000000000E+00 0. -1.
         23    2    1    2    0    0 -0.98452151251E+01  0.33515864114E+02 -0.12052868625E+03  0.14548599871E+03  0.73612296547E+02 0.  0.
         23    2    1    2    0    0  0.27631930191E+02 -0.31950528389E+02  0.18509331029E+02  0.10282385945E+03  0.91900984256E+02 0.  0.
        -13    1    3    3    0    0 -0.38194746281E+02  0.10702723097E+02 -0.88606222423E+02  0.97079604332E+02  0.00000000000E+00 0. -1.
         13    1    3    3    0    0  0.28349531156E+02  0.22813141018E+02 -0.31922463831E+02  0.48406394380E+02  0.00000000000E+00 0.  1.
        -13    1    4    4    0    0  0.54455401493E+02 -0.42399707192E+02  0.24839251836E+02  0.73349262801E+02  0.00000000000E+00 0.  1.
         13    1    4    4    0    0 -0.26823471302E+02  0.10449178803E+02 -0.63299208068E+01  0.29474596652E+02  0.00000000000E+00 0. -1.
         21    1    1    2  503  502 -0.16579408736E+02 -0.27297147605E+02 -0.12276630022E+03  0.12685257400E+03  0.00000000000E+00 0. -1.
          3    1    1    2  501    0 -0.12073063294E+01  0.25731811879E+02  0.20428879193E+02  0.32877390959E+02  0.00000000000E+00 0. -1.
<scales pt_clust_5="13000.00000" pt_clust_6="13000.00000" pt_clust_7="13000.00000" pt_clust_8="13000.00000" pt_clust_9="31.35945" pt_clust_10="25.76012"></scales>
<clustering>
<clus scale="   25.760">  1 10  2 -1</clus>
<clus scale="   31.359">  2  9  1 -1</clus>
<clus scale="   73.612">  5  6 -1 -1</clus>
<clus scale="   79.007">  2  5  1 -1</clus>
<clus scale="   91.901">  7  8 -1 -1</clus>
<clus scale="   25.760">  1  5  2 -1</clus>
</clustering>
</event>
<event>
10    2  0.3544405E-006  0.1062816E+03  0.7546771E-02  0.1269566E+00
         21   -1    0    0  501  502  0.00000000000E+00  0.00000000000E+00  0.37533788745E+02  0.37533788745E+02  0.00000000000E+00 0.  1.
          1   -1    0    0  503    0 -0.00000000000E+00 -0.00000000000E+00 -0.68251469533E+03  0.68251469533E+03  0.00000000000E+00 0. -1.
         23    2    1    2    0    0  0.95586968677E+00  0.35430649634E+02 -0.27138642966E+03  0.28857546303E+03  0.91482014818E+02 0.  0.
         23    2    1    2    0    0 -0.23537681032E+02 -0.62766311492E+02 -0.22883094248E+03  0.25700040447E+03  0.95874790075E+02 0.  0.
        -13    1    3    3    0    0  0.24001521315E+01  0.57288676480E+02 -0.25460198531E+03  0.26097878095E+03  0.00000000000E+00 0. -1.
         13    1    3    3    0    0 -0.14442824447E+01 -0.21858026846E+02 -0.16784444359E+02  0.27596682080E+02  0.00000000000E+00 0.  1.
        -13    1    4    4    0    0 -0.17199729200E+02  0.23044545175E+02 -0.37877321025E+02  0.47556000619E+02  0.00000000000E+00 0. -1.
         13    1    4    4    0    0 -0.63379518325E+01 -0.85810856667E+02 -0.19095362146E+03  0.20944440385E+03  0.00000000000E+00 0.  1.
         21    1    1    2  503  502  0.20630444351E+02 -0.11501291850E+02 -0.13116925594E+03  0.13327891301E+03  0.00000000000E+00 0. -1.
          1    1    1    2  501    0  0.19513669944E+01  0.38836953708E+02 -0.13594278499E+02  0.41193703576E+02  0.00000000000E+00 0. -1.
<scales pt_clust_5="13000.00000" pt_clust_6="13000.00000" pt_clust_7="13000.00000" pt_clust_8="13000.00000" pt_clust_9="23.61980" pt_clust_10="38.38015"></scales>
<clustering>
<clus scale="   23.620">  2  9  1 -1</clus>
<clus scale="   38.380">  1 10  2 -1</clus>
<clus scale="   91.482">  5  6 -1 -1</clus>
<clus scale="   95.875">  7  8 -1 -1</clus>
<clus scale="  102.337">  2  5  1 -1</clus>
<clus scale="   38.380">  1  5  2 -1</clus>
</clustering>
</event>
<event>
10    2  0.3544405E-006  0.1643110E+03  0.7546771E-02  0.1184130E+00
         21   -1    0    0  501  502  0.00000000000E+00  0.00000000000E+00  0.31288457972E+03  0.31288457972E+03  0.00000000000E+00 0. -1.
          2   -1    0    0  503    0 -0.00000000000E+00 -0.00000000000E+00 -0.25292709135E+03  0.25292709135E+03  0.00000000000E+00 0. -1.
         23    2    1    2    0    0  0.14508215187E+03  0.13404467438E+00 -0.26305971722E+02  0.17395583810E+03  0.92302658164E+02 0.  0.
         23    2    1    2    0    0 -0.13366714197E+03  0.35210954577E+02  0.14799686886E+02  0.16609235952E+03  0.90889630832E+02 0.  0.
        -11    1    3    3    0    0  0.24757824090E+02  0.19299973158E+02 -0.40554251836E+02  0.51284365644E+02  0.00000000000E+00 0.  1.
         11    1    3    3    0    0  0.12032432778E+03 -0.19165928483E+02  0.14248280114E+02  0.12267147246E+03  0.00000000000E+00 0. -1.
        -13    1    4    4    0    0 -0.26721068913E+02 -0.23594277915E+00  0.42377286873E+02  0.50098958428E+02  0.00000000000E+00 0.  1.
         13    1    4    4    0    0 -0.10694607306E+03  0.35446897356E+02 -0.27577599988E+02  0.11599340109E+03  0.00000000000E+00 0. -1.
         21    1    1    2  503  502 -0.33167777969E+02 -0.26063660199E+02 -0.70330212031E+02  0.82010698099E+02  0.00000000000E+00 0. -1.
          2    1    1    2  501    0  0.21752768078E+02 -0.92813390521E+01  0.14179398523E+03  0.14375277535E+03  0.00000000000E+00 0. -1.
<scales pt_clust_5="13000.00000" pt_clust_6="13000.00000" pt_clust_7="13000.00000" pt_clust_8="13000.00000" pt_clust_9="41.79886" pt_clust_10="23.65008"></scales>
<clustering>
<clus scale="   23.650">  1 10  2 -1</clus>
<clus scale="   41.799">  2  9  1 -1</clus>
<clus scale="   90.890">  7  8 -1 -1</clus>
<clus scale="   92.303">  5  6 -1 -1</clus>
<clus scale="  163.521">  1  7  2 -1</clus>
<clus scale="   23.650">  1  5  2 -1</clus>
</clustering>
</event>
<event>
10    2  0.3544405E-006  0.9455834E+02  0.7546771E-02  0.1295340E+00
         21   -1    0    0  501  502  0.00000000000E+00  0.00000000000E+00  0.17098636722E+03  0.17098636722E+03  0.00000000000E+00 0.  1.
          2   -1    0    0  503    0 -0.00000000000E+00 -0.00000000000E+00 -0.23284642153E+03  0.23284642153E+03  0.00000000000E+00 0. -1.
         23    2    1    2    0    0 -0.23348576671E+02 -0.14084908870E+02 -0.28901047663E+02  0.95768236995E+02  0.87136352750E+02 0.  0.
         23    2    1    2    0    0 -0.31109823354E+02  0.15821428209E+02  0.95257162246E+02  0.13740179653E+03  0.92667081698E+02 0.  0.
        -11    1    4    4    0    0 -0.47667062921E+02 -0.78875969875E+01  0.97067293616E+02  0.10842703797E+03  0.00000000000E+00 0.  1.
         11    1    4    4    0    0  0.16557239566E+02  0.23709025196E+02 -0.18101313694E+01  0.28974758556E+02  0.00000000000E+00 0. -1.
        -11    1    3    3    0    0 -0.24508791860E+02  0.32743425307E+02 -0.26760291705E+02  0.48876640550E+02  0.00000000000E+00 0.  1.
         11    1    3    3    0    0  0.11602151885E+01 -0.46828334177E+02 -0.21407559577E+01  0.46891596445E+02  0.00000000000E+00 0. -1.
         21    1    1    2  503  502  0.29304017786E+02 -0.87983244357E+01 -0.13905174364E+03  0.14237810007E+03  0.00000000000E+00 0. -1.
          2    1    1    2  501    0  0.25154382240E+02  0.70618050969E+01  0.10835574743E+02  0.28284655153E+02  0.00000000000E+00 0. -1.
<scales pt_clust_5="13000.00000" pt_clust_6="13000.00000" pt_clust_7="13000.00000" pt_clust_8="13000.00000" pt_clust_9="30.83903" pt_clust_10="26.12685"></scales>
<clustering>
<clus scale="   26.127">  1 10  2 -1</clus>
<clus scale="   30.839">  2  9  1 -1</clus>
<clus scale="   87.136">  7  8 -1 -1</clus>
<clus scale="   89.145">  2  7  1 -1</clus>
<clus scale="   92.667">  5  6 -1 -1</clus>
<clus scale="   26.127">  1  5  2 -1</clus>
</clustering>
</event>
<event>
10    2  0.3544405E-006  0.2285292E+03  0.7546771E-02  0.1128054E+00
         21   -1    0    0  501  502  0.00000000000E+00  0.00000000000E+00  0.29815376599E+03  0.29815376599E+03  0.00000000000E+00 0.  1.
          2   -1    0    0  503    0 -0.00000000000E+00 -0.00000000000E+00 -0.55679010017E+03  0.55679010017E+03  0.00000000000E+00 0. -1.
         23    2    1    2    0    0 -0.19310464351E+03 -0.10689541852E+01 -0.37428767753E+03  0.43042729245E+03  0.88802266442E+02 0.  0.
         23    2    1    2    0    0  0.19776538150E+03 -0.36493097940E+02  0.51725977259E+02  0.22794626206E+03  0.94026748039E+02 0.  0.
        -11    1    4    4    0    0  0.13200443394E+02 -0.15564232424E+02 -0.20241511129E+02  0.28743969969E+02  0.00000000000E+00 0. -1.
         11    1    4    4    0    0  0.18456493810E+03 -0.20928865515E+02  0.71967488388E+02  0.19920229209E+03  0.00000000000E+00 0.  1.
        -11    1    3    3    0    0 -0.27699399189E+02  0.69356360819E+01 -0.14386323542E+03  0.14666966376E+03  0.00000000000E+00 0.  1.
         11    1    3    3    0    0 -0.16540524432E+03 -0.80045902672E+01 -0.23042444211E+03  0.28375762869E+03  0.00000000000E+00 0. -1.
         21    1    1    2  503  502 -0.17945550143E+02  0.53959361424E+02 -0.53012746133E+02  0.77743210043E+02  0.00000000000E+00 0. -1.
          2    1    1    2  501    0  0.13284812161E+02 -0.16397309299E+02  0.11693811223E+03  0.11882710161E+03  0.00000000000E+00 0. -1.
<scales pt_clust_5="13000.00000" pt_clust_6="13000.00000" pt_clust_7="13000.00000" pt_clust_8="13000.00000" pt_clust_9="55.51276" pt_clust_10="21.10351"></scales>
<clustering>
<clus scale="   21.104">  1 10  2 -1</clus>
<clus scale="   55.513">  2  9  1 -1</clus>
<clus scale="   88.802">  7  8 -1 -1</clus>
<clus scale="   94.027">  5  6 -1 -1</clus>
<clus scale="  226.430">  2  7  1 -1</clus>
<clus scale="   21.104">  1  5  2 -1</clus>
</clustering>
</event>
<event>
10    2  0.3544405E-006  0.2556421E+03  0.7546771E-02  0.1110140E+00
         21   -1    0    0  501  502  0.00000000000E+00  0.00000000000E+00  0.37530487625E+03  0.37530487625E+03  0.00000000000E+00 0.  1.
          2   -1    0    0  503    0 -0.00000000000E+00 -0.00000000000E+00 -0.36165312240E+03  0.36165312240E+03  0.00000000000E+00 0. -1.
         23    2    1    2    0    0 -0.15285066600E+03  0.14520169754E+03 -0.76778984424E+02  0.24233035585E+03  0.91553972356E+02 0.  0.
         23    2    1    2    0    0  0.87008338433E+02 -0.27976571183E+03  0.37221415922E+02  0.31106709129E+03  0.97662669463E+02 0.  0.
        -11    1    3    3    0    0 -0.60935356615E+02  0.11972734555E+03 -0.40979114554E+02  0.14045299138E+03  0.00000000000E+00 0. -1.
         11    1    3    3    0    0 -0.91915309385E+02  0.25474351983E+02 -0.35799869870E+02  0.10187736447E+03  0.00000000000E+00 0.  1.
        -13    1    4    4    0    0 -0.10847257614E+02 -0.17570798220E+02 -0.16085263618E+02  0.26175019647E+02  0.00000000000E+00 0. -1.
         13    1    4    4    0    0  0.97855596046E+02 -0.26219491361E+03  0.53306679541E+02  0.28489207164E+03  0.00000000000E+00 0.  1.
         21    1    1    2  503  502 -0.31249171175E+01  0.24956021700E+02 -0.22334588744E+02  0.33636319366E+02  0.00000000000E+00 0. -1.
          2    1    1    2  501    0  0.68967244684E+02  0.10960799259E+03  0.75543911100E+02  0.14992423214E+03  0.00000000000E+00 0. -1.
<scales pt_clust_5="13000.00000" pt_clust_6="13000.00000" pt_clust_7="13000.00000" pt_clust_8="13000.00000" pt_clust_9="25.15091" pt_clust_10="131.68133"></scales>
<clustering>
<clus scale="   25.151">  2  9  1 -1</clus>
<clus scale="   91.554">  5  6 -1 -1</clus>
<clus scale="   97.663">  7  8 -1 -1</clus>
<clus scale="  131.681">  1 10  2 -1</clus>
<clus scale="  253.371">  2  5  1 -1</clus>
<clus scale="  131.681">  1  5  2 -1</clus>
</clustering>
</event>
<event>
10    2  0.3544405E-006  0.1543629E+03  0.7546771E-02  0.1195605E+00
         21   -1    0    0  501  502  0.00000000000E+00  0.00000000000E+00  0.38416485681E+03  0.38416485681E+03  0.00000000000E+00 0. -1.
          2   -1    0    0  503    0 -0.00000000000E+00 -0.00000000000E+00 -0.73842634759E+03  0.73842634759E+03  0.00000000000E+00 0. -1.
         23    2    1    2    0    0  0.28400803560E+01 -0.11233301890E+03 -0.38409681509E+03  0.40979969157E+03  0.88196658960E+02 0.  0.
         23    2    1    2    0    0 -0.21191905898E+02  0.17228392751E+03 -0.91330006334E+02  0.21600252878E+03  0.90471397851E+02 0.  0.
        -11    1    3    3    0    0 -0.35245529980E+02 -0.89252196345E+02 -0.29461255132E+03  0.30984634471E+03  0.00000000000E+00 0.  1.
         11    1    3    3    0    0  0.38085610336E+02 -0.23080822558E+02 -0.89484263778E+02  0.99953346859E+02  0.00000000000E+00 0. -1.
        -11    1    4    4    0    0  0.23546970692E+02  0.13363937225E+02 -0.28617549981E+02  0.39395669988E+02  0.00000000000E+00 0.  1.
         11    1    4    4    0    0 -0.44738876590E+02  0.15891999029E+03 -0.62712456354E+02  0.17660685879E+03  0.00000000000E+00 0. -1.
         21    1    1    2  503  502  0.44612886512E+02  0.55803696100E+01 -0.18099257569E+03  0.18649333131E+03  0.00000000000E+00 0. -1.
          2    1    1    2  501    0 -0.26261060971E+02 -0.65531278218E+02  0.30215790633E+03  0.31029565274E+03  0.00000000000E+00 0. -1.
<scales pt_clust_5="13000.00000" pt_clust_6="13000.00000" pt_clust_7="13000.00000" pt_clust_8="13000.00000" pt_clust_9="44.96054" pt_clust_10="70.43825"></scales>
<clustering>
<clus scale="   44.961">  2  9  1 -1</clus>
<clus scale="   70.438">  1 10  2 -1</clus>
<clus scale="   88.197">  5  6 -1 -1</clus>
<clus scale="   90.471">  7  8 -1 -1</clus>
<clus scale="  153.041">  2  5  1 -1</clus>
<clus scale="   70.438">  1  5  2 -1</clus>
</clustering>
</event>
<event>
10    2  0.3544405E-006  0.2045896E+03  0.7546771E-02  0.1170795E+00
          1   -1    0    0  503    0 -0.00000000000E+00  0.00000000000E+00  0.61335690654E+03  0.61335690654E+03  0.00000000000E+00 0. -1.
         21   -1    0    0  501  502  0.00000000000E+00 -0.00000000000E+00 -0.27314160037E+03  0.27314160037E+03  0.00000000000E+00 0.  1.
         23    2    1    2    0    0 -0.32104910009E+02 -0.37697684492E+02  0.26381008890E+03  0.28757310169E+03  0.10320215668E+03 0.  0.
         23    2    1    2    0    0 -0.61839787318E+02  0.18372295380E+03  0.14462900264E+03  0.25706328638E+03  0.87095934181E+02 0.  0.
        -13    1    3    3    0    0 -0.11869462298E+02 -0.62964605699E+02  0.88271441702E+02  0.10907462183E+03  0.00000000000E+00 0.  1.
         13    1    3    3    0    0 -0.20235447711E+02  0.25266921207E+02  0.17553864720E+03  0.17849847986E+03  0.00000000000E+00 0. -1.
        -13    1    4    4    0    0 -0.67104199569E+01  0.71651939514E+02  0.10252381422E+03  0.12526037943E+03  0.00000000000E+00 0. -1.
         13    1    4    4    0    0 -0.55129367361E+02  0.11207101428E+03  0.42105188418E+02  0.13180290695E+03  0.00000000000E+00 0.  1.
         21    1    1    2  503  502 -0.99194685421E+01 -0.21026414501E+03 -0.62596066911E+02  0.21960800105E+03  0.00000000000E+00 0.  1.
          1    1    1    2  501    0  0.10386416587E+03  0.64238875703E+02 -0.56277184712E+01  0.12225411780E+03  0.00000000000E+00 0. -1.
<scales pt_clust_5="13000.00000" pt_clust_6="13000.00000" pt_clust_7="13000.00000" pt_clust_8="13000.00000" pt_clust_9="185.12478" pt_clust_10="114.01483"></scales>
<clustering>
<clus scale="   87.096">  7  8 -1 -1</clus>
<clus scale="  103.202">  5  6 -1 -1</clus>
<clus scale="  114.466">  1  5  2 -1</clus>
<clus scale="  114.015">  2 10  1 -1</clus>
<clus scale="  185.125">  2  9  1 -1</clus>
<clus scale="  114.015">  2  5  1 -1</clus>
</clustering>
</event>
<event>
10    2  0.3544405E-006  0.1419416E+03  0.7546771E-02  0.1232817E+00
         21   -1    0    0  503  502  0.00000000000E+00  0.00000000000E+00  0.29849900355E+03  0.29849900355E+03  0.00000000000E+00 0.  1.
         -1   -1    0    0    0  501 -0.00000000000E+00 -0.00000000000E+00 -0.11935706582E+03  0.11935706582E+03  0.00000000000E+00 0.  1.
         23    2    1    2    0    0  0.12813734713E+01 -0.29304652106E+01  0.68597077019E+01  0.89273756773E+02  0.88952338441E+02 0.  0.
         23    2    1    2    0    0  0.62732105378E+02  0.68455001291E+02  0.75046993668E+02  0.15121854959E+03  0.92809451213E+02 0.  0.
        -11    1    4    4    0    0  0.42552809120E+02  0.73519190474E+02  0.13199318241E+02  0.85965312388E+02  0.00000000000E+00 0.  1.
         11    1    4    4    0    0  0.20179296258E+02 -0.50641891825E+01  0.61847675428E+02  0.65253237202E+02  0.00000000000E+00 0. -1.
        -13    1    3    3    0    0 -0.35268321667E+02  0.22864725851E+02 -0.66239865070E+01  0.42550292580E+02  0.00000000000E+00 0.  1.
         13    1    3    3    0    0  0.36549695138E+02 -0.25795191061E+02  0.13483694209E+02  0.46723464192E+02  0.00000000000E+00 0. -1.
         21    1    1    2  503  501  0.14442460940E+02  0.23541049294E+02  0.76516142234E+01  0.28658556839E+02  0.00000000000E+00 0.  1.
         -1    1    1    2    0  502 -0.78455939789E+02 -0.89065585375E+02  0.89583622137E+02  0.14870520617E+03  0.00000000000E+00 0.  1.
<scales pt_clust_5="13000.00000" pt_clust_6="13000.00000" pt_clust_7="13000.00000" pt_clust_8="13000.00000" pt_clust_9="27.61821" pt_clust_10="107.39570"></scales>
<clustering>
<clus scale="   27.618">  2  9  1 -1</clus>
<clus scale="   88.952">  7  8 -1 -1</clus>
<clus scale="   89.408">  2  7  1 -1</clus>
<clus scale="   92.809">  5  6 -1 -1</clus>
<clus scale="  107.396">  1 10  2 -1</clus>
<clus scale="  107.396">  1  5  2 -1</clus>
</clustering>
</event>
<event>
10    2  0.3544405E-006  0.1082155E+03  0.7546771E-02  0.1264814E+00
         21   -1    0    0  501  502  0.00000000000E+00  0.00000000000E+00  0.23534797425E+03  0.23534797425E+03  0.00000000000E+00 0. -1.
          2   -1    0    0  503    0 -0.00000000000E+00 -0.00000000000E+00 -0.32958851670E+03  0.32958851670E+03  0.00000000000E+00 0. -1.
         23    2    1    2    0    0 -0.30663356074E+02  0.31488373383E+02 -0.15423264603E+03  0.18556854693E+03  0.93360684680E+02 0.  0.
         23    2    1    2    0    0  0.43529802184E+02 -0.49855390676E+02 -0.10913567870E+03  0.15684936935E+03  0.91163175911E+02 0.  0.
        -13    1    3    3    0    0 -0.71127836483E+01  0.59300405115E+02 -0.60561654145E+02  0.85057884354E+02  0.00000000000E+00 0. -1.
         13    1    3    3    0    0 -0.23550572425E+02 -0.27812031732E+02 -0.93670991882E+02  0.10051066257E+03  0.00000000000E+00 0.  1.
        -13    1    4    4    0    0  0.23896178768E+02 -0.73308612596E+02 -0.55139972502E+02  0.94792386868E+02  0.00000000000E+00 0.  1.
         13    1    4    4    0    0  0.19633623417E+02  0.23453221921E+02 -0.53995706195E+02  0.62056982479E+02  0.00000000000E+00 0. -1.
         21    1    1    2  503  502  0.11672612726E+02  0.21413590823E+02 -0.20148014512E+02  0.31634383961E+02  0.00000000000E+00 0.  1.
          2    1    1    2  501    0 -0.24539058837E+02 -0.30465735301E+01  0.18927579679E+03  0.19088419072E+03  0.00000000000E+00 0. -1.
<scales pt_clust_5="13000.00000" pt_clust_6="13000.00000" pt_clust_7="13000.00000" pt_clust_8="13000.00000" pt_clust_9="24.38835" pt_clust_10="24.68985"></scales>
<clustering>
<clus scale="   24.388">  2  9  1 -1</clus>
<clus scale="   24.690">  1 10  2 -1</clus>
<clus scale="   91.163">  7  8 -1 -1</clus>
<clus scale="   93.361">  5  6 -1 -1</clus>
<clus scale="  106.325">  1  7  2 -1</clus>
<clus scale="   24.690">  1  5  2 -1</clus>
</clustering>
</event>
<event>
10    2  0.3544405E-006  0.1433627E+03  0.7546771E-02  0.1209778E+00
         21   -1    0    0  501  502  0.00000000000E+00  0.00000000000E+00  0.45150839321E+03  0.45150839321E+03  0.00000000000E+00 0. -1.
          3   -1    0    0  503    0 -0.00000000000E+00 -0.00000000000E+00 -0.11692609602E+03  0.11692609602E+03  0.00000000000E+00 0. -1.
         23    2    1    2    0    0  0.96744383201E+02 -0.63905273452E+01  0.32348232346E+02  0.13967986299E+03  0.95203684106E+02 0.  0.
         23    2    1    2    0    0 -0.10342432676E+03  0.81113948937E+02  0.11437799479E+03  0.19657810325E+03  0.91019563315E+02 0.  0.
        -13    1    3    3    0    0  0.58620978554E+02 -0.43716728375E+02 -0.68898835062E+01  0.73450949355E+02  0.00000000000E+00 0.  1.
         13    1    3    3    0    0  0.38123404647E+02  0.37326201030E+02  0.39238115852E+02  0.66228913631E+02  0.00000000000E+00 0. -1.
        -13    1    4    4    0    0 -0.16428020817E+02 -0.19979111131E+02  0.12390452210E+02  0.28680447268E+02  0.00000000000E+00 0.  1.
         13    1    4    4    0    0 -0.86996305948E+02  0.10109306007E+03  0.10198754258E+03  0.16789765598E+03  0.00000000000E+00 0. -1.
         21    1    1    2  503  502  0.16851854869E+02  0.16498806957E+02  0.55076155074E+00  0.23590230643E+02  0.00000000000E+00 0.  1.
          3    1    1    2  501    0 -0.10171911305E+02 -0.91222228549E+02  0.18730530850E+03  0.20858629235E+03  0.00000000000E+00 0. -1.
<scales pt_clust_5="13000.00000" pt_clust_6="13000.00000" pt_clust_7="13000.00000" pt_clust_8="13000.00000" pt_clust_9="23.58380" pt_clust_10="89.95643"></scales>
<clustering>
<clus scale="   23.584">  2  9  1 -1</clus>
<clus scale="   89.956">  1 10  2 -1</clus>
<clus scale="   91.020">  7  8 -1 -1</clus>
<clus scale="   95.204">  5  6 -1 -1</clus>
<clus scale="  140.619">  1  7  2 -1</clus>
<clus scale="   89.956">  1  5  2 -1</clus>
</clustering>
</event>
<event>
10    2  0.3544405E-006  0.9733452E+02  0.7546771E-02  0.1288021E+00
         21   -1    0    0  501  502  0.00000000000E+00  0.00000000000E+00  0.41093005166E+02  0.41093005166E+02  0.00000000000E+00 0.  1.
         -1   -1    0    0    0  501 -0.00000000000E+00 -0.00000000000E+00 -0.55020247945E+03  0.55020247945E+03  0.00000000000E+00 0.  1.
         23    2    1    2    0    0  0.20144262830E+02 -0.14035894491E+02 -0.25274518148E+03  0.27088651016E+03  0.94321667520E+02 0.  0.
         23    2    1    2    0    0  0.14554438306E+02  0.37726395815E+02 -0.14917700616E+03  0.17914400884E+03  0.90574191249E+02 0.  0.
        -11    1    4    4    0    0 -0.33551741314E+02  0.68852664809E+01 -0.92596093394E+02  0.98727720280E+02  0.00000000000E+00 0. -1.
         11    1    4    4    0    0  0.48106179620E+02  0.30841129334E+02 -0.56580912761E+02  0.80416288556E+02  0.00000000000E+00 0.  1.
        -13    1    3    3    0    0  0.21921171107E+02 -0.52126636302E+02 -0.11800610706E+03  0.13085551291E+03  0.00000000000E+00 0.  1.
         13    1    3    3    0    0 -0.17769082767E+01  0.38090741811E+02 -0.13473907442E+03  0.14003099725E+03  0.00000000000E+00 0. -1.
         21    1    1    2  503  502 -0.24585502703E+02  0.27480150021E+02 -0.27391924037E+02  0.45933899146E+02  0.00000000000E+00 0.  1.
         -1    1    1    2    0  503 -0.10113198433E+02 -0.51170651345E+02 -0.79795362612E+02  0.95331066479E+02  0.00000000000E+00 0.  1.
<scales pt_clust_5="13000.00000" pt_clust_6="13000.00000" pt_clust_7="13000.00000" pt_clust_8="13000.00000" pt_clust_9="36.87283" pt_clust_10="47.29280"></scales>
<clustering>
<clus scale="   36.873">  1  9  2 -1</clus>
<clus scale="   47.293">  1 10  2 -1</clus>
<clus scale="   90.574">  5  6 -1 -1</clus>
<clus scale="   93.708">  1  5  2 -1</clus>
<clus scale="   94.322">  7  8 -1 -1</clus>
<clus scale="   36.873">  1  5  2 -1</clus>
</clustering>
</event>
<event>
10    2  0.3544405E-006  0.1098798E+03  0.7546771E-02  0.1261304E+00
          1   -1    0    0  503    0 -0.00000000000E+00  0.00000000000E+00  0.49772660661E+03  0.49772660661E+03  0.00000000000E+00 0. -1.
         21   -1    0    0  501  502  0.00000000000E+00 -0.00000000000E+00 -0.18821086407E+03  0.18821086407E+03  0.00000000000E+00 0.  1.
         23    2    1    2    0    0 -0.58540583244E+02 -0.78875869469E+02  0.23523523859E+03  0.27106393648E+03  0.92150081454E+02 0.  0.
         23    2    1    2    0    0 -0.13311016651E+02  0.36624717817E+02 -0.88531199244E+02  0.13269530096E+03  0.90838959359E+02 0.  0.
        -11    1    3    3    0    0 -0.26160128594E+02 -0.17445172760E+02  0.66172649484E+01  0.32132142414E+02  0.00000000000E+00 0.  1.
         11    1    3    3    0    0 -0.32380454650E+02 -0.61430696709E+02  0.22861797365E+03  0.23893179406E+03  0.00000000000E+00 0. -1.
        -11    1    4    4    0    0 -0.22074448362E+02  0.64765502737E+02 -0.69961849123E+02  0.97859654342E+02  0.00000000000E+00 0.  1.
         11    1    4    4    0    0  0.87634317112E+01 -0.28140784920E+02 -0.18569350122E+02  0.34835646617E+02  0.00000000000E+00 0. -1.
         21    1    1    2  503  502  0.34457082115E+02  0.23796106460E+02  0.21291377859E+03  0.21699267800E+03  0.00000000000E+00 0. -1.
          1    1    1    2  501    0  0.37394517779E+02  0.18455045192E+02 -0.50102075397E+02  0.65185555241E+02  0.00000000000E+00 0. -1.
<scales pt_clust_5="13000.00000" pt_clust_6="13000.00000" pt_clust_7="13000.00000" pt_clust_8="13000.00000" pt_clust_9="42.51990" pt_clust_10="41.70058"></scales>
<clustering>
<clus scale="   41.701">  2 10  1 -1</clus>
<clus scale="   42.520">  1  9  2 -1</clus>
<clus scale="   90.839">  7  8 -1 -1</clus>
<clus scale="   92.150">  5  6 -1 -1</clus>
<clus scale="  108.783">  2  7  1 -1</clus>
<clus scale="   41.701">  2  5  1 -1</clus>
</clustering>
</event>
<event>
10    2  0.3544405E-006  0.1585790E+03  0.7546771E-02  0.1190761E+00
         21   -1    0    0  501  502  0.00000000000E+00  0.00000000000E+00  0.17933750268E+03  0.17933750268E+03  0.00000000000E+00 0. -1.
          1   -1    0    0  503    0 -0.00000000000E+00 -0.00000000000E+00 -0.99936903339E+03  0.99936903339E+03  0.00000000000E+00 0. -1.
         23    2    1    2    0    0  0.82335390562E+02 -0.13426483061E+03 -0.54496188987E+03  0.57462937513E+03  0.91702214085E+02 0.  0.
         23    2    1    2    0    0 -0.69720732201E+00  0.10944487990E+03 -0.30286306587E+03  0.33409340369E+03  0.88958967443E+02 0.  0.
        -13    1    4    4    0    0  0.37529573821E+02  0.90468552075E+02 -0.19876179166E+03  0.22158356810E+03  0.00000000000E+00 0.  1.
         13    1    4    4    0    0 -0.38226781143E+02  0.18976327827E+02 -0.10410127420E+03  0.11250983559E+03  0.00000000000E+00 0. -1.
        -13    1    3    3    0    0 -0.18213529574E+02 -0.13873646406E+02 -0.42797113721E+02  0.48536621915E+02  0.00000000000E+00 0.  1.
         13    1    3    3    0    0  0.10054892014E+03 -0.12039118421E+03 -0.50216477615E+03  0.52609275322E+03  0.00000000000E+00 0. -1.
         21    1    1    2  503  502 -0.93454267749E+02  0.70540448730E+01 -0.10195907174E+03  0.13848867109E+03  0.00000000000E+00 0. -1.
          1    1    1    2  501    0  0.11816084509E+02  0.17765905840E+02  0.12975249678E+03  0.13149508616E+03  0.00000000000E+00 0. -1.
<scales pt_clust_5="13000.00000" pt_clust_6="13000.00000" pt_clust_7="13000.00000" pt_clust_8="13000.00000" pt_clust_9="90.07423" pt_clust_10="21.33652"></scales>
<clustering>
<clus scale="   21.337">  1 10  2 -1</clus>
<clus scale="   88.959">  5  6 -1 -1</clus>
<clus scale="   90.074">  1  9  2 -1</clus>
<clus scale="   91.702">  7  8 -1 -1</clus>
<clus scale="  157.009">  1  5  2 -1</clus>
<clus scale="   21.337">  1  5  2 -1</clus>
</clustering>
</event>
<event>
10    2  0.3544405E-006  0.1741949E+03  0.7546771E-02  0.1189867E+00
          1   -1    0    0  503    0 -0.00000000000E+00  0.00000000000E+00  0.15738459908E+03  0.15738459908E+03  0.00000000000E+00 0. -1.
         21   -1    0    0  501  502  0.00000000000E+00 -0.00000000000E+00 -0.46401082578E+03  0.46401082578E+03  0.00000000000E+00 0. -1.
         23    2    1    2    0    0 -0.70346348794E+02  0.47698422094E+02 -0.78552049383E+02  0.14781667594E+03  0.91954319981E+02 0.  0.
         23    2    1    2    0    0  0.91747645208E+01  0.12854719639E+03 -0.15548219868E+02  0.15886885284E+03  0.91591523945E+02 0.  0.
        -11    1    4    4    0    0  0.26344540795E+02  0.19372949909E+01 -0.16408675436E+02  0.31097147315E+02  0.00000000000E+00 0.  1.
         11    1    4    4    0    0 -0.17169776274E+02  0.12660990140E+03  0.86045556756E+00  0.12777170552E+03  0.00000000000E+00 0. -1.
        -13    1    3    3    0    0 -0.15338566263E+02  0.55278698621E+02 -0.71764526765E+02  0.91875750000E+02  0.00000000000E+00 0.  1.
         13    1    3    3    0    0 -0.55007782531E+02 -0.75802765269E+01 -0.67875226185E+01  0.55940925935E+02  0.00000000000E+00 0. -1.
         21    1    1    2  503  502  0.12482544082E+02 -0.26768006651E+02  0.18807227559E+02  0.35015023851E+02  0.00000000000E+00 0. -1.
          1    1    1    2  501    0  0.48689040191E+02 -0.14947761183E+03 -0.23133318500E+03  0.27969487224E+03  0.00000000000E+00 0. -1.
<scales pt_clust_5="13000.00000" pt_clust_6="13000.00000" pt_clust_7="13000.00000" pt_clust_8="13000.00000" pt_clust_9="29.53540" pt_clust_10="148.17170"></scales>
<clustering>
<clus scale="   29.535">  1  9  2 -1</clus>
<clus scale="   91.592">  5  6 -1 -1</clus>
<clus scale="   91.954">  7  8 -1 -1</clus>
<clus scale="  120.817">  1  7  2 -1</clus>
<clus scale="  148.172">  2 10  1 -1</clus>
<clus scale="  148.172">  2  5  1 -1</clus>
</clustering>
</event>
<event>
10    2  0.3544405E-006  0.1013000E+03  0.7546771E-02  0.1278952E+00
         -1   -1    0    0    0  501 -0.00000000000E+00  0.00000000000E+00  0.43187783977E+03  0.43187783977E+03  0.00000000000E+00 0.  1.
         21   -1    0    0  503  502  0.00000000000E+00 -0.00000000000E+00 -0.13172402250E+03  0.13172402250E+03  0.00000000000E+00 0.  1.
         23    2    1    2    0    0  0.70468467392E+02 -0.37732460339E+02  0.14799483569E+03  0.18916863896E+03  0.86560725019E+02 0.  0.
         23    2    1    2    0    0  0.18409041870E+02  0.36434367343E+02 -0.42046371506E+02  0.10699799881E+03  0.89522725869E+02 0.  0.
        -11    1    4    4    0    0  0.53667508161E+02  0.11832439940E+02 -0.28588911166E+02  0.61947832156E+02  0.00000000000E+00 0.  1.
         11    1    4    4    0    0 -0.35258466291E+02  0.24601927403E+02 -0.13457460340E+02  0.45050166658E+02  0.00000000000E+00 0. -1.
        -13    1    3    3    0    0  0.34439675809E+02 -0.13358918922E+01  0.13061669670E+03  0.13508736926E+03  0.00000000000E+00 0.  1.
         13    1    3    3    0    0  0.36028791583E+02 -0.36396568447E+02  0.17378138990E+02  0.54081269701E+02  0.00000000000E+00 0. -1.
         21    1    1    2  503  501 -0.62263144532E+02 -0.13923662864E+02  0.21893702573E+03  0.22804383085E+03  0.00000000000E+00 0.  1.
         -1    1    1    2    0  502 -0.26614364731E+02  0.15221755860E+02 -0.24731672648E+02  0.39391393647E+02  0.00000000000E+00 0.  1.
<scales pt_clust_5="13000.00000" pt_clust_6="13000.00000" pt_clust_7="13000.00000" pt_clust_8="13000.00000" pt_clust_9="64.84275" pt_clust_10="30.65985"></scales>
<clustering>
<clus scale="   30.660">  2 10  1 -1</clus>
<clus scale="   64.843">  1  9  2 -1</clus>
<clus scale="   86.561">  7  8 -1 -1</clus>
<clus scale="   89.523">  5  6 -1 -1</clus>
<clus scale="   98.692">  1  7  2 -1</clus>
<clus scale="   30.660">  2  5  1 -1</clus>
</clustering>
</event>
<event>
10    2  0.3544405E-006  0.1059922E+03  0.7546771E-02  0.1271120E+00
          1   -1    0    0  503    0 -0.00000000000E+00  0.00000000000E+00  0.19088338179E+03  0.19088338179E+03  0.00000000000E+00 0. -1.
         21   -1    0    0  501  502  0.00000000000E+00 -0.00000000000E+00 -0.24041150187E+03  0.24041150187E+03  0.00000000000E+00 0.  1.
         23    2    1    2    0    0 -0.11943463470E+01 -0.52500669227E+02  0.80806720522E+02  0.13587434342E+03  0.95782902360E+02 0.  0.
         23    2    1    2    0    0  0.33624007196E+02  0.71509910540E+02 -0.51734544781E+02  0.12994467842E+03  0.89246373381E+02 0.  0.
        -11    1    3    3    0    0  0.39445377230E+02 -0.55939371442E+02  0.50341150393E+02  0.84966949369E+02  0.00000000000E+00 0. -1.
         11    1    3    3    0    0 -0.40639723577E+02  0.34387022155E+01  0.30465570129E+02  0.50907394047E+02  0.00000000000E+00 0.  1.
        -13    1    4    4    0    0 -0.20783635402E+01  0.78782072346E+02 -0.50274972132E+02  0.93479983638E+02  0.00000000000E+00 0.  1.
         13    1    4    4    0    0  0.35702370736E+02 -0.72721618058E+01 -0.14595726482E+01  0.36464694786E+02  0.00000000000E+00 0. -1.
         21    1    1    2  503  502  0.20929407693E+02  0.25122229657E+02  0.24794717610E+02  0.41035893443E+02  0.00000000000E+00 0. -1.
          1    1    1    2  501    0 -0.53359068542E+02 -0.44131470970E+02 -0.10339501343E+03  0.12443996837E+03  0.00000000000E+00 0. -1.
<scales pt_clust_5="13000.00000" pt_clust_6="13000.00000" pt_clust_7="13000.00000" pt_clust_8="13000.00000" pt_clust_9="32.69811" pt_clust_10="67.10469"></scales>
<clustering>
<clus scale="   32.698">  1  9  2 -1</clus>
<clus scale="   67.105">  2 10  1 -1</clus>
<clus scale="   89.246">  7  8 -1 -1</clus>
<clus scale="   95.783">  5  6 -1 -1</clus>
<clus scale="  100.124">  2  7  1 -1</clus>
<clus scale="   67.105">  2  5  1 -1</clus>
</clustering>
</event>
<event>
10    2  0.3544405E-006  0.3525618E+03  0.7546771E-02  0.1061598E+00
          2   -1    0    0  503    0 -0.00000000000E+00  0.00000000000E+00  0.21831367974E+04  0.21831367974E+04  0.00000000000E+00 0. -1.
         21   -1    0    0  501  502  0.00000000000E+00 -0.00000000000E+00 -0.21180111598E+03  0.21180111598E+03  0.00000000000E+00 0. -1.
         23    2    1    2    0    0  0.20087831826E+02  0.27634180566E+03  0.13946421584E+04  0.14249128844E+04  0.92637270069E+02 0.  0.
         23    2    1    2    0    0 -0.12447853837E+03 -0.28804806395E+03  0.11192347232E+03  0.34609457493E+03  0.93744319730E+02 0.  0.
        -11    1    3    3    0    0 -0.24680994434E+01  0.25317815056E+03  0.13112881701E+04  0.13355081177E+04  0.00000000000E+00 0. -1.
         11    1    3    3    0    0  0.22555931269E+02  0.23163655101E+02  0.83353988233E+02  0.89404766693E+02  0.00000000000E+00 0.  1.
        -13    1    4    4    0    0 -0.80673188077E+01 -0.52181848263E+02 -0.13781526614E+02  0.54570664250E+02  0.00000000000E+00 0.  1.
         13    1    4    4    0    0 -0.11641121957E+03 -0.23586621568E+03  0.12570499894E+03  0.29152391068E+03  0.00000000000E+00 0. -1.
         21    1    1    2  503  502  0.76349436648E+02  0.75631312731E+02  0.52244363324E+03  0.53338230366E+03  0.00000000000E+00 0. -1.
          2    1    1    2  501    0  0.28041269900E+02 -0.63925054441E+02 -0.57673582546E+02  0.90548150321E+02  0.00000000000E+00 0. -1.
<scales pt_clust_5="13000.00000" pt_clust_6="13000.00000" pt_clust_7="13000.00000" pt_clust_8="13000.00000" pt_clust_9="106.50359" pt_clust_10="69.80491"></scales>
<clustering>
<clus scale="   69.805">  2 10  1 -1</clus>
<clus scale="   92.637">  5  6 -1 -1</clus>
<clus scale="   93.744">  7  8 -1 -1</clus>
<clus scale="  106.504">  1  9  2 -1</clus>
<clus scale="  352.269">  1  5  2 -1</clus>
<clus scale="   69.805">  2  5  1 -1</clus>
</clustering>
</event>
<event>
10    2  0.3544405E-006  0.1076215E+03  0.7546771E-02  0.1268809E+00
         21   -1    0    0  503  502  0.00000000000E+00  0.00000000000E+00  0.25032311951E+03  0.25032311951E+03  0.00000000000E+00 0. -1.
          2   -1    0    0  502    0 -0.00000000000E+00 -0.00000000000E+00 -0.68476887331E+03  0.68476887331E+03  0.00000000000E+00 0. -1.
         23    2    1    2    0    0 -0.40263823340E+02  0.44669737162E+02 -0.34755681371E+03  0.36638044986E+03  0.99107690873E+02 0.  0.
         23    2    1    2    0    0 -0.19291946130E+02  0.45959576079E+02 -0.29885519927E+03  0.32124734597E+03  0.10677530308E+03 0.  0.
        -11    1    3    3    0    0 -0.19879055476E+02 -0.30732084808E+02 -0.87495704305E+02  0.94842691627E+02  0.00000000000E+00 0.  1.
         11    1    3    3    0    0 -0.20384767864E+02  0.75401821970E+02 -0.26006110941E+03  0.27153775823E+03  0.00000000000E+00 0. -1.
        -13    1    4    4    0    0  0.39814440939E+02 -0.45578356554E+01 -0.10349792383E+03  0.11098551171E+03  0.00000000000E+00 0.  1.
         13    1    4    4    0    0 -0.59106387070E+02  0.50517411735E+02 -0.19535727544E+03  0.21026183426E+03  0.00000000000E+00 0. -1.
         21    1    1    2  503  501  0.23953643798E+01 -0.27763967409E+02  0.11594908839E+03  0.11925085642E+03  0.00000000000E+00 0. -1.
          2    1    1    2  501    0  0.57160405090E+02 -0.62865345832E+02  0.96017170780E+02  0.12821334057E+03  0.00000000000E+00 0. -1.
<scales pt_clust_5="13000.00000" pt_clust_6="13000.00000" pt_clust_7="13000.00000" pt_clust_8="13000.00000" pt_clust_9="27.86711" pt_clust_10="104.65942"></scales>
<clustering>
<clus scale="   27.867">  1  9  2 -1</clus>
<clus scale="   99.108">  5  6 -1 -1</clus>
<clus scale="  104.659">  1 10  2 -1</clus>
<clus scale="  100.019">  2  5  1 -1</clus>
<clus scale="  106.775">  7  8 -1 -1</clus>
<clus scale="   27.867">  1  5  2 -1</clus>
</clustering>
</event>
<event>
10    2  0.3544405E-006  0.9955861E+02  0.7546771E-02  0.1282258E+00
         21   -1    0    0  503  502  0.00000000000E+00  0.00000000000E+00  0.13726997422E+03  0.13726997422E+03  0.00000000000E+00 0.  1.
         -4   -1    0    0    0  501 -0.00000000000E+00 -0.00000000000E+00 -0.30113994226E+03  0.30113994226E+03  0.00000000000E+00 0.  1.
         23    2    1    2    0    0  0.63666392250E+02 -0.29609846200E+02 -0.20376280077E+03  0.23444528582E+03  0.92277627665E+02 0.  0.
         23    2    1    2    0    0 -0.30842112904E+02  0.33028896077E+02  0.79859165256E+02  0.12866384371E+03  0.90192873877E+02 0.  0.
        -11    1    3    3    0    0  0.69757679110E+02  0.14615623816E+02 -0.12232850144E+03  0.14157687848E+03  0.00000000000E+00 0. -1.
         11    1    3    3    0    0 -0.60912868597E+01 -0.44225470016E+02 -0.81434299329E+02  0.92868407335E+02  0.00000000000E+00 0.  1.
        -13    1    4    4    0    0  0.16598584821E+02 -0.15261066170E+02  0.49659020726E+02  0.54538348877E+02  0.00000000000E+00 0.  1.
         13    1    4    4    0    0 -0.47440697725E+02  0.48289962248E+02  0.30200144530E+02  0.74125494832E+02  0.00000000000E+00 0. -1.
         21    1    1    2  503  501 -0.36480235622E+02  0.18052011822E+02 -0.33105138531E+02  0.52465540300E+02  0.00000000000E+00 0.  1.
         -4    1    1    2    0  502  0.36559562757E+01 -0.21471061699E+02 -0.68611939961E+01  0.22835246655E+02  0.00000000000E+00 0.  1.
<scales pt_clust_5="13000.00000" pt_clust_6="13000.00000" pt_clust_7="13000.00000" pt_clust_8="13000.00000" pt_clust_9="39.76590" pt_clust_10="21.78009"></scales>
<clustering>
<clus scale="   21.780">  1 10  2 -1</clus>
<clus scale="   39.766">  2  9  1 -1</clus>
<clus scale="   90.193">  7  8 -1 -1</clus>
<clus scale="   92.278">  5  6 -1 -1</clus>
<clus scale="   97.629">  1  7  2 -1</clus>
<clus scale="   21.780">  1  5  2 -1</clus>
</clustering>
</event>
<event>
10    2  0.3544405E-006  0.1008428E+03  0.7546771E-02  0.1278576E+00
          1   -1    0    0  503    0 -0.00000000000E+00  0.00000000000E+00  0.21557864151E+03  0.21557864151E+03  0.00000000000E+00 0. -1.
         21   -1    0    0  501  502  0.00000000000E+00 -0.00000000000E+00 -0.16313175713E+03  0.16313175713E+03  0.00000000000E+00 0. -1.
         23    2    1    2    0    0  0.27314881961E+02 -0.72218583095E+02  0.51293157017E+02  0.13127238783E+03  0.92950660725E+02 0.  0.
         23    2    1    2    0    0 -0.10125625651E+01 -0.52509408101E+01 -0.14564708076E+02  0.94323859921E+02  0.93039035715E+02 0.  0.
        -13    1    4    4    0    0  0.70376575481E+01  0.34817711069E+02 -0.33908458980E+02  0.49107893645E+02  0.00000000000E+00 0. -1.
         13    1    4    4    0    0 -0.80502201132E+01 -0.40068651879E+02  0.19343750905E+02  0.45215966276E+02  0.00000000000E+00 0.  1.
        -13    1    3    3    0    0  0.39348996435E+02 -0.16299002805E+02  0.59827604936E+02  0.73439385382E+02  0.00000000000E+00 0. -1.
         13    1    3    3    0    0 -0.12034114474E+02 -0.55919580290E+02 -0.85344479190E+01  0.57833002449E+02  0.00000000000E+00 0.  1.
         21    1    1    2  503  502  0.12753424987E+02  0.29333336309E+02  0.65970781580E+02  0.73316017965E+02  0.00000000000E+00 0. -1.
          1    1    1    2  501    0 -0.39055744383E+02  0.48136187596E+02 -0.50252346145E+02  0.79798132927E+02  0.00000000000E+00 0. -1.
<scales pt_clust_5="13000.00000" pt_clust_6="13000.00000" pt_clust_7="13000.00000" pt_clust_8="13000.00000" pt_clust_9="31.98585" pt_clust_10="63.54490"></scales>
<clustering>
<clus scale="   31.986">  1  9  2 -1</clus>
<clus scale="   63.545">  2 10  1 -1</clus>
<clus scale="   92.951">  7  8 -1 -1</clus>
<clus scale="   93.039">  5  6 -1 -1</clus>
<clus scale="  100.761">  1  7  2 -1</clus>
<clus scale="   63.545">  2  5  1 -1</clus>
</clustering>
</event>
<event>
10    2  0.3544405E-006  0.3076924E+03  0.7546771E-02  0.1081573E+00
         21   -1    0    0  501  502  0.00000000000E+00  0.00000000000E+00  0.16607616047E+03  0.16607616047E+03  0.00000000000E+00 0. -1.
          1   -1    0    0  503    0 -0.00000000000E+00 -0.00000000000E+00 -0.10741793859E+04  0.10741793859E+04  0.00000000000E+00 0. -1.
         23    2    1    2    0    0 -0.93366635549E+01 -0.26295907588E+03 -0.27954616447E+03  0.39460512420E+03  0.91282512552E+02 0.  0.
         23    2    1    2    0    0 -0.33649360635E+02  0.33027058326E+03 -0.42169049477E+03  0.54385375872E+03  0.87994885429E+02 0.  0.
        -11    1    4    4    0    0  0.17135460626E+01  0.29679213241E+02 -0.71429585531E+01  0.30574724783E+02  0.00000000000E+00 0.  1.
         11    1    4    4    0    0 -0.35362906698E+02  0.30059137001E+03 -0.41454753621E+03  0.51327903394E+03  0.00000000000E+00 0. -1.
        -13    1    3    3    0    0 -0.25843228788E+02 -0.18141226832E+03 -0.24141371099E+03  0.30308227171E+03  0.00000000000E+00 0. -1.
         13    1    3    3    0    0  0.16506565233E+02 -0.81546807561E+02 -0.38132453486E+02  0.91522852491E+02  0.00000000000E+00 0.  1.
         21    1    1    2  503  502 -0.51843644138E+02  0.37388486754E+02 -0.12000490963E+03  0.13596632199E+03  0.00000000000E+00 0.  1.
          1    1    1    2  501    0  0.94829668328E+02 -0.10469999413E+03 -0.86861656535E+02  0.16583034144E+03  0.00000000000E+00 0. -1.
<scales pt_clust_5="13000.00000" pt_clust_6="13000.00000" pt_clust_7="13000.00000" pt_clust_8="13000.00000" pt_clust_9="63.91919" pt_clust_10="132.92559"></scales>
<clustering>
<clus scale="   63.919">  2  9  1 -1</clus>
<clus scale="   87.995">  5  6 -1 -1</clus>
<clus scale="   91.283">  7  8 -1 -1</clus>
<clus scale="  132.926">  1 10  2 -1</clus>
<clus scale="  306.733">  1  5  2 -1</clus>
<clus scale="  132.926">  1  5  2 -1</clus>
</clustering>
</event>
<event>
10    2  0.3544405E-006  0.1113690E+03  0.7546771E-02  0.1258749E+00
          2   -1    0    0  503    0 -0.00000000000E+00  0.00000000000E+00  0.11867207417E+03  0.11867207417E+03  0.00000000000E+00 0. -1.
         21   -1    0    0  501  502  0.00000000000E+00 -0.00000000000E+00 -0.57913036181E+03  0.57913036181E+03  0.00000000000E+00 0. -1.
         23    2    1    2    0    0  0.63516083082E+02 -0.29566469236E+02  0.52918446383E+02  0.12485013457E+03  0.88762183504E+02 0.  0.
         23    2    1    2    0    0 -0.17959268604E+01  0.94339131866E+02 -0.28379122359E+03  0.31249586473E+03  0.90626208870E+02 0.  0.
        -11    1    4    4    0    0 -0.21207079880E+02 -0.10599757988E+02 -0.42687718945E+02  0.48829667777E+02  0.00000000000E+00 0.  1.
         11    1    4    4    0    0  0.19411153020E+02  0.10493888985E+03 -0.24110350464E+03  0.26366619695E+03  0.00000000000E+00 0. -1.
        -11    1    3    3    0    0 -0.17924761975E+02 -0.21833050934E+02  0.26893552566E+02  0.39003107242E+02  0.00000000000E+00 0.  1.
         11    1    3    3    0    0  0.81440845057E+02 -0.77334183018E+01  0.26024893817E+02  0.85847027324E+02  0.00000000000E+00 0. -1.
         21    1    1    2  503  502 -0.32329420559E+02 -0.23620585344E+02 -0.19810066741E+02  0.44671716219E+02  0.00000000000E+00 0.  1.
          2    1    1    2  501    0 -0.29390735662E+02 -0.41152077286E+02 -0.20977544370E+03  0.21578472047E+03  0.00000000000E+00 0. -1.
<scales pt_clust_5="13000.00000" pt_clust_6="13000.00000" pt_clust_7="13000.00000" pt_clust_8="13000.00000" pt_clust_9="40.03902" pt_clust_10="51.64607"></scales>
<clustering>
<clus scale="   40.039">  1  9  2 -1</clus>
<clus scale="   51.646">  2 10  1 -1</clus>
<clus scale="   88.762">  7  8 -1 -1</clus>
<clus scale="   90.626">  5  6 -1 -1</clus>
<clus scale="  109.857">  1  7  2 -1</clus>
<clus scale="   51.646">  2  5  1 -1</clus>
</clustering>
</event>
<event>
10    2  0.3544405E-006  0.1189277E+03  0.7546771E-02  0.1244885E+00
         21   -1    0    0  503  502  0.00000000000E+00  0.00000000000E+00  0.11306391494E+04  0.11306391494E+04  0.00000000000E+00 0.  1.
         -4   -1    0    0    0  501 -0.00000000000E+00 -0.00000000000E+00 -0.90531932761E+02  0.90531932761E+02  0.00000000000E+00 0.  1.
         23    2    1    2    0    0  0.78584179319E+01  0.10753845658E+03  0.22128389441E+02  0.14305370217E+03  0.91369697975E+02 0.  0.
         23    2    1    2    0    0 -0.27146116947E+02 -0.22942686903E+02  0.11067618282E+03  0.14783782573E+03  0.91342907368E+02 0.  0.
        -11    1    3    3    0    0  0.22193024726E+02  0.61690824418E+01  0.32844298632E+02  0.40116528730E+02  0.00000000000E+00 0. -1.
         11    1    3    3    0    0 -0.14334606794E+02  0.10136937414E+03 -0.10715909191E+02  0.10293717344E+03  0.00000000000E+00 0.  1.
        -13    1    4    4    0    0  0.33324684378E+02 -0.16106693056E+02  0.45800050400E+02  0.58886371656E+02  0.00000000000E+00 0. -1.
         13    1    4    4    0    0 -0.60470801325E+02 -0.68359938468E+01  0.64876132416E+02  0.88951454075E+02  0.00000000000E+00 0.  1.
         21    1    1    2  503  501 -0.53827473801E+02  0.15954270595E+02  0.11162903454E+03  0.12495189890E+03  0.00000000000E+00 0. -1.
         -4    1    1    2    0  502  0.73115172815E+02 -0.10055004027E+03  0.79567360984E+03  0.80532765536E+03  0.00000000000E+00 0.  1.
<scales pt_clust_5="13000.00000" pt_clust_6="13000.00000" pt_clust_7="13000.00000" pt_clust_8="13000.00000" pt_clust_9="56.14210" pt_clust_10="93.09070"></scales>
<clustering>
<clus scale="   56.142">  1  9  2 -1</clus>
<clus scale="   91.343">  7  8 -1 -1</clus>
<clus scale="   91.370">  5  6 -1 -1</clus>
<clus scale="   93.091">  1 10  2 -1</clus>
<clus scale="  118.907">  1  7  2 -1</clus>
<clus scale="   56.142">  1  5  2 -1</clus>
</clustering>
</event>
<event>
10    2  0.3544405E-006  0.1114848E+03  0.7546771E-02  0.1258175E+00
         21   -1    0    0  503  502  0.00000000000E+00  0.00000000000E+00  0.12021367346E+04  0.12021367346E+04  0.00000000000E+00 0.  1.
         -4   -1    0    0    0  501 -0.00000000000E+00 -0.00000000000E+00 -0.32500786921E+02  0.32500786921E+02  0.00000000000E+00 0.  1.
         23    2    1    2    0    0  0.51810397526E+02 -0.12595044669E+02  0.13169186434E+03  0.16877753979E+03  0.91105204915E+02 0.  0.
         23    2    1    2    0    0 -0.10520314742E+03 -0.54946646397E+00  0.61515585276E+03  0.63082950306E+03  0.91984425910E+02 0.  0.
        -11    1    3    3    0    0 -0.21848553130E+02 -0.20482609410E+02  0.25701618292E+02  0.39464791206E+02  0.00000000000E+00 0. -1.
         11    1    3    3    0    0  0.73658950656E+02  0.78875647404E+01  0.10599024605E+03  0.12931274859E+03  0.00000000000E+00 0.  1.
        -11    1    4    4    0    0 -0.14636981849E+02  0.38229342670E+02  0.19966944576E+03  0.20382249986E+03  0.00000000000E+00 0. -1.
         11    1    4    4    0    0 -0.90566165570E+02 -0.38778809134E+02  0.41548640700E+03  0.42700700320E+03  0.00000000000E+00 0.  1.
         21    1    1    2  503  501  0.33261518847E+02  0.50127695814E+02  0.26229176670E+03  0.26910236974E+03  0.00000000000E+00 0.  1.
         -4    1    1    2    0  502  0.20131231047E+02 -0.36983184681E+02  0.16049646386E+03  0.16592810890E+03  0.00000000000E+00 0.  1.
<scales pt_clust_5="13000.00000" pt_clust_6="13000.00000" pt_clust_7="13000.00000" pt_clust_8="13000.00000" pt_clust_9="55.94044" pt_clust_10="42.10727"></scales>
<clustering>
<clus scale="   42.107">  1 10  2 -1</clus>
<clus scale="   55.940">  1  9  2 -1</clus>
<clus scale="   91.105">  5  6 -1 -1</clus>
<clus scale="   91.984">  7  8 -1 -1</clus>
<clus scale="  110.760">  2  5  1 -1</clus>
<clus scale="   42.107">  1  5  2 -1</clus>
</clustering>
</event>
<event>
10    2  0.3544405E-006  0.9751003E+02  0.7546771E-02  0.1298609E+00
         21   -1    0    0  503  502  0.00000000000E+00  0.00000000000E+00  0.14118999230E+03  0.14118999230E+03  0.00000000000E+00 0.  1.
         -1   -1    0    0    0  501 -0.00000000000E+00 -0.00000000000E+00 -0.56813437546E+03  0.56813437546E+03  0.00000000000E+00 0.  1.
         23    2    1    2    0    0  0.22445862829E+02 -0.18373740559E+02 -0.25360576644E+03  0.27067095299E+03  0.90030377760E+02 0.  0.
         23    2    1    2    0    0  0.11072376011E+02  0.60126735160E+02 -0.17554950454E+03  0.19750296443E+03  0.66723089129E+02 0.  0.
        -11    1    3    3    0    0  0.23609929188E+02 -0.53514243903E+02 -0.13935441125E+03  0.15113191255E+03  0.00000000000E+00 0.  1.
         11    1    3    3    0    0 -0.11640663588E+01  0.35140503343E+02 -0.11425135519E+03  0.11953904043E+03  0.00000000000E+00 0. -1.
        -13    1    4    4    0    0  0.15499474249E+02  0.25152887307E+02 -0.15260999535E+03  0.15544359789E+03  0.00000000000E+00 0.  1.
         13    1    4    4    0    0 -0.44270982370E+01  0.34973847853E+02 -0.22939509188E+02  0.42059366545E+02  0.00000000000E+00 0. -1.
         21    1    1    2  503  501 -0.12689652798E+02 -0.51789785513E+02 -0.11230670010E+03  0.12432217847E+03  0.00000000000E+00 0.  1.
         -1    1    1    2    0  502 -0.20828586042E+02  0.10036790913E+02  0.11451758791E+03  0.11682827188E+03  0.00000000000E+00 0.  1.
<scales pt_clust_5="13000.00000" pt_clust_6="13000.00000" pt_clust_7="13000.00000" pt_clust_8="13000.00000" pt_clust_9="52.46459" pt_clust_10="23.12071"></scales>
<clustering>
<clus scale="   23.121">  1 10  2 -1</clus>
<clus scale="   52.465">  1  9  2 -1</clus>
<clus scale="   66.723">  7  8 -1 -1</clus>
<clus scale="   76.516">  1  7  2 -1</clus>
<clus scale="   90.030">  5  6 -1 -1</clus>
<clus scale="   23.121">  1  5  2 -1</clus>
</clustering>
</event>
<event>
10    2  0.3544405E-006  0.1221491E+03  0.7546771E-02  0.1253567E+00
         21   -1    0    0  501  502  0.00000000000E+00  0.00000000000E+00  0.23672861369E+03  0.23672861369E+03  0.00000000000E+00 0. -1.
          2   -1    0    0  503    0 -0.00000000000E+00 -0.00000000000E+00 -0.16471000057E+03  0.16471000057E+03  0.00000000000E+00 0. -1.
         23    2    1    2    0    0  0.37556534480E+02 -0.75077002341E+01 -0.47700404595E+02  0.13464833590E+03  0.11994993505E+03 0.  0.
         23    2    1    2    0    0 -0.13595124167E+02  0.37827697409E+01 -0.11363824363E+02  0.91136540140E+02  0.89317387425E+02 0.  0.
        -11    1    3    3    0    0  0.23752874359E+02 -0.63648503239E+02 -0.22311117405E+02  0.71506062434E+02  0.00000000000E+00 0.  1.
         11    1    3    3    0    0  0.13803660121E+02  0.56140803005E+02 -0.25389287190E+02  0.63142273469E+02  0.00000000000E+00 0. -1.
        -13    1    4    4    0    0 -0.22071782812E+02 -0.19521874657E+02 -0.42260320810E+02  0.51518947015E+02  0.00000000000E+00 0.  1.
         13    1    4    4    0    0  0.84766586449E+01  0.23304644397E+02  0.30896496447E+02  0.39617593125E+02  0.00000000000E+00 0. -1.
         21    1    1    2  503  502 -0.18295227080E+02  0.24462932258E+02 -0.10611256525E+02  0.32338044987E+02  0.00000000000E+00 0. -1.
          2    1    1    2  501    0 -0.56661832333E+01 -0.20738001765E+02  0.14169409859E+03  0.14331569323E+03  0.00000000000E+00 0. -1.
<scales pt_clust_5="13000.00000" pt_clust_6="13000.00000" pt_clust_7="13000.00000" pt_clust_8="13000.00000" pt_clust_9="29.08982" pt_clust_10="21.49815"></scales>
<clustering>
<clus scale="   21.498">  1 10  2 -1</clus>
<clus scale="   29.090">  2  9  1 -1</clus>
<clus scale="   89.317">  7  8 -1 -1</clus>
<clus scale="   92.250">  1  7  2 -1</clus>
<clus scale="  119.950">  5  6 -1 -1</clus>
<clus scale="   21.498">  1  5  2 -1</clus>
</clustering>
</event>
<event>
10    2  0.3544405E-006  0.1287923E+03  0.7546771E-02  0.1229729E+00
          1   -1    0    0  503    0 -0.00000000000E+00  0.00000000000E+00  0.30710128876E+03  0.30710128876E+03  0.00000000000E+00 0. -1.
         21   -1    0    0  501  502  0.00000000000E+00 -0.00000000000E+00 -0.22074291541E+03  0.22074291541E+03  0.00000000000E+00 0.  1.
         23    2    1    2    0    0 -0.51544037325E+02  0.73042298343E+02  0.16145065275E+03  0.20520407863E+03  0.89724219054E+02 0.  0.
         23    2    1    2    0    0  0.61319234083E+02 -0.85694514528E+02 -0.13478541211E+03  0.19401061844E+03  0.91484503932E+02 0.  0.
        -13    1    3    3    0    0 -0.22489711904E+02  0.65380739089E+02  0.39546615700E+02  0.79651509708E+02  0.00000000000E+00 0.  1.
         13    1    3    3    0    0 -0.29054325421E+02  0.76615592537E+01  0.12190403705E+03  0.12555256893E+03  0.00000000000E+00 0. -1.
        -13    1    4    4    0    0  0.28703844896E+02  0.11049071151E+02 -0.60108653338E+02  0.67520684914E+02  0.00000000000E+00 0. -1.
         13    1    4    4    0    0  0.32615389187E+02 -0.96743585679E+02 -0.74676758771E+02  0.12648993352E+03  0.00000000000E+00 0.  1.
         21    1    1    2  503  502  0.17757197014E+02  0.94141724592E+01  0.87253700182E+02  0.89538555295E+02  0.00000000000E+00 0. -1.
          1    1    1    2  501    0 -0.27532393773E+02  0.32380437260E+01 -0.27560567463E+02  0.39090951803E+02  0.00000000000E+00 0. -1.
<scales pt_clust_5="13000.00000" pt_clust_6="13000.00000" pt_clust_7="13000.00000" pt_clust_8="13000.00000" pt_clust_9="20.09838" pt_clust_10="27.28791"></scales>
<clustering>
<clus scale="   20.098">  1  9  2 -1</clus>
<clus scale="   27.288">  2 10  1 -1</clus>
<clus scale="   89.724">  5  6 -1 -1</clus>
<clus scale="   91.485">  7  8 -1 -1</clus>
<clus scale="  127.548">  1  5  2 -1</clus>
<clus scale="   27.288">  2  5  1 -1</clus>
</clustering>
</event>
<event>
10    2  0.3544405E-006  0.9512742E+02  0.7546771E-02  0.1291890E+00
         21   -1    0    0  501  502  0.00000000000E+00  0.00000000000E+00  0.16523242774E+03  0.16523242774E+03  0.00000000000E+00 0.  1.
          2   -1    0    0  503    0 -0.00000000000E+00 -0.00000000000E+00 -0.31249197859E+03  0.31249197859E+03  0.00000000000E+00 0. -1.
         23    2    1    2    0    0  0.59254148055E+00 -0.12969959745E+02 -0.11456667793E+03  0.14847378780E+03  0.93543417788E+02 0.  0.
         23    2    1    2    0    0 -0.98083377828E+01 -0.37130625150E+02  0.70946361336E+02  0.12217411590E+03  0.91750975984E+02 0.  0.
        -11    1    3    3    0    0  0.19044594315E+02 -0.34157203464E+02 -0.10234336543E+02  0.40424655417E+02  0.00000000000E+00 0.  1.
         11    1    3    3    0    0 -0.18452052834E+02  0.21187243719E+02 -0.10433234138E+03  0.10804913238E+03  0.00000000000E+00 0. -1.
        -13    1    4    4    0    0  0.20028857665E+02  0.20640029460E+02  0.42232120274E+02  0.51095185080E+02  0.00000000000E+00 0. -1.
         13    1    4    4    0    0 -0.29837195448E+02 -0.57770654609E+02  0.28714241062E+02  0.71078930816E+02  0.00000000000E+00 0.  1.
         21    1    1    2  503  502  0.24029302136E+02  0.78326084066E+01 -0.14435286227E+03  0.14654864708E+03  0.00000000000E+00 0. -1.
          2    1    1    2  501    0 -0.14813505834E+02  0.42267976488E+02  0.40713628011E+02  0.60527855549E+02  0.00000000000E+00 0. -1.
<scales pt_clust_5="13000.00000" pt_clust_6="13000.00000" pt_clust_7="13000.00000" pt_clust_8="13000.00000" pt_clust_9="25.27364" pt_clust_10="44.78076"></scales>
<clustering>
<clus scale="   25.274">  2  9  1 -1</clus>
<clus scale="   44.781">  1 10  2 -1</clus>
<clus scale="   91.751">  7  8 -1 -1</clus>
<clus scale="   93.365">  1  7  2 -1</clus>
<clus scale="   93.543">  5  6 -1 -1</clus>
<clus scale="   44.781">  1  5  2 -1</clus>
</clustering>
</event>
<event>
10    2  0.3544405E-006  0.1065272E+03  0.7546771E-02  0.1267756E+00
         21   -1    0    0  501  502  0.00000000000E+00  0.00000000000E+00  0.45028181119E+02  0.45028181119E+02  0.00000000000E+00 0.  1.
          1   -1    0    0  503    0 -0.00000000000E+00 -0.00000000000E+00 -0.56382660277E+03  0.56382660277E+03  0.00000000000E+00 0. -1.
         23    2    1    2    0    0  0.36453404990E+02 -0.37810495232E+02 -0.21522939938E+03  0.23919808978E+03  0.90186182481E+02 0.  0.
         23    2    1    2    0    0 -0.34199342847E+02  0.38210527549E+02 -0.14792689618E+03  0.18142230656E+03  0.91662681798E+02 0.  0.
        -13    1    3    3    0    0  0.51634887252E+02 -0.79067679768E+01 -0.56430650797E+02  0.76896663847E+02  0.00000000000E+00 0.  1.
         13    1    3    3    0    0 -0.15181482262E+02 -0.29903727256E+02 -0.15879874859E+03  0.16230142593E+03  0.00000000000E+00 0. -1.
        -13    1    4    4    0    0  0.41987929402E+01  0.60362336626E+02 -0.90780012457E+02  0.10909744363E+03  0.00000000000E+00 0.  1.
         13    1    4    4    0    0 -0.38398135787E+02 -0.22151809077E+02 -0.57146883728E+02  0.72324862925E+02  0.00000000000E+00 0. -1.
         21    1    1    2  503  502  0.27357581095E+02 -0.49290289420E+01 -0.15581770205E+03  0.15827788488E+03  0.00000000000E+00 0. -1.
          1    1    1    2  501    0 -0.29611643237E+02  0.45289966251E+01  0.17557596552E+00  0.29956502676E+02  0.00000000000E+00 0. -1.
<scales pt_clust_5="13000.00000" pt_clust_6="13000.00000" pt_clust_7="13000.00000" pt_clust_8="13000.00000" pt_clust_9="27.79807" pt_clust_10="28.93879"></scales>
<clustering>
<clus scale="   27.798">  2  9  1 -1</clus>
<clus scale="   28.939">  1 10  2 -1</clus>
<clus scale="   90.186">  5  6 -1 -1</clus>
<clus scale="   91.663">  7  8 -1 -1</clus>
<clus scale="  105.259">  2  5  1 -1</clus>
<clus scale="   28.939">  1  5  2 -1</clus>
</clustering>
</event>
<event>
10    2  0.3544405E-006  0.1151904E+03  0.7546771E-02  0.1251529E+00
         21   -1    0    0  501  502  0.00000000000E+00  0.00000000000E+00  0.78570150179E+02  0.78570150179E+02  0.00000000000E+00 0.  1.
          1   -1    0    0  503    0 -0.00000000000E+00 -0.00000000000E+00 -0.54639012021E+03  0.54639012021E+03  0.00000000000E+00 0. -1.
         23    2    1    2    0    0  0.18186717845E+02  0.61814303298E+02 -0.23718141659E+03  0.26205242753E+03  0.90910316248E+02 0.  0.
         23    2    1    2    0    0 -0.82899687354E+02 -0.66012936491E+02 -0.68788265707E+02  0.15517477141E+03  0.90096161044E+02 0.  0.
        -13    1    3    3    0    0 -0.26722069980E+02  0.49463824972E+02 -0.77682689319E+02  0.95892331418E+02  0.00000000000E+00 0.  1.
         13    1    3    3    0    0  0.44908787826E+02  0.12350478325E+02 -0.15949872727E+03  0.16616009611E+03  0.00000000000E+00 0. -1.
        -13    1    4    4    0    0 -0.71971385379E+01  0.19464037489E+02  0.19728355522E+01  0.20845614374E+02  0.00000000000E+00 0. -1.
         13    1    4    4    0    0 -0.75702548816E+02 -0.85476973980E+02 -0.70761101259E+02  0.13432915703E+03  0.00000000000E+00 0.  1.
         21    1    1    2  503  502 -0.30078211977E+02  0.10528958363E+02 -0.22224749547E+02  0.38852249515E+02  0.00000000000E+00 0.  1.
          1    1    1    2  501    0  0.94791181486E+02 -0.63303251691E+01 -0.13962553819E+03  0.16888082194E+03  0.00000000000E+00 0. -1.
<scales pt_clust_5="13000.00000" pt_clust_6="13000.00000" pt_clust_7="13000.00000" pt_clust_8="13000.00000" pt_clust_9="31.86782" pt_clust_10="88.62549"></scales>
<clustering>
<clus scale="   31.868">  1  9  2 -1</clus>
<clus scale="   88.625">  1 10  2 -1</clus>
<clus scale="   90.096">  7  8 -1 -1</clus>
<clus scale="   90.910">  5  6 -1 -1</clus>
<clus scale="  114.549">  1  7  2 -1</clus>
<clus scale="   31.868">  1  5  2 -1</clus>
</clustering>
</event>
<event>
10    2  0.3544405E-006  0.1021117E+03  0.7546771E-02  0.1277361E+00
          1   -1    0    0  503    0 -0.00000000000E+00  0.00000000000E+00  0.61769839654E+03  0.61769839654E+03  0.00000000000E+00 0. -1.
         21   -1    0    0  501  502  0.00000000000E+00 -0.00000000000E+00 -0.98064943053E+02  0.98064943053E+02  0.00000000000E+00 0. -1.
         23    2    1    2    0    0 -0.37879133779E+02 -0.42067665161E+02  0.43529527850E+03  0.44843956393E+03  0.91714479692E+02 0.  0.
         23    2    1    2    0    0  0.48717518183E+01  0.11801552990E+02  0.90469404068E+02  0.12727389993E+03  0.88605428225E+02 0.  0.
        -11    1    3    3    0    0  0.57067321889E+01  0.23135271610E+02  0.51960270067E+02  0.57163600745E+02  0.00000000000E+00 0.  1.
         11    1    3    3    0    0 -0.43585865967E+02 -0.65202936770E+02  0.38333500844E+03  0.39127596319E+03  0.00000000000E+00 0. -1.
        -13    1    4    4    0    0 -0.32592919005E+02 -0.12223175113E+02  0.11560198146E+02  0.36678911656E+02  0.00000000000E+00 0. -1.
         13    1    4    4    0    0  0.37464670823E+02  0.24024728103E+02  0.78909205922E+02  0.90594988269E+02  0.00000000000E+00 0.  1.
         21    1    1    2  503  502  0.40826953543E+02 -0.50449159203E+00  0.56571832927E+02  0.69767233915E+02  0.00000000000E+00 0. -1.
          1    1    1    2  501    0 -0.78195715825E+01  0.30770603763E+02 -0.62703062011E+02  0.70282641820E+02  0.00000000000E+00 0. -1.
<scales pt_clust_5="13000.00000" pt_clust_6="13000.00000" pt_clust_7="13000.00000" pt_clust_8="13000.00000" pt_clust_9="39.63831" pt_clust_10="31.74863"></scales>
<clustering>
<clus scale="   31.749">  2 10  1 -1</clus>
<clus scale="   39.638">  2  9  1 -1</clus>
<clus scale="   88.605">  7  8 -1 -1</clus>
<clus scale="   91.714">  5  6 -1 -1</clus>
<clus scale="   99.329">  2  7  1 -1</clus>
<clus scale="   31.749">  2  5  1 -1</clus>
</clustering>
</event>
<event>
10    2  0.3544405E-006  0.1116632E+03  0.7546771E-02  0.1258914E+00
         -3   -1    0    0    0  501 -0.00000000000E+00  0.00000000000E+00  0.61961483280E+03  0.61961483280E+03  0.00000000000E+00 0.  1.
         21   -1    0    0  503  502  0.00000000000E+00 -0.00000000000E+00 -0.52032543556E+02  0.52032543556E+02  0.00000000000E+00 0.  1.
         23    2    1    2    0    0  0.46981153352E+02 -0.27257649928E+02  0.35026398560E+03  0.36666195493E+03  0.93839870709E+02 0.  0.
         23    2    1    2    0    0 -0.29860538548E+02  0.48495897013E+02  0.13665850936E+03  0.17337432688E+03  0.90219760873E+02 0.  0.
        -11    1    3    3    0    0  0.30950399497E+02 -0.61710038150E+02  0.25265548491E+03  0.26191763990E+03  0.00000000000E+00 0.  1.
         11    1    3    3    0    0  0.16030753855E+02  0.34452388223E+02  0.97608500696E+02  0.10474431503E+03  0.00000000000E+00 0. -1.
        -13    1    4    4    0    0 -0.11561525786E+02 -0.19698588338E+02  0.41308747972E+01  0.23211363329E+02  0.00000000000E+00 0. -1.
         13    1    4    4    0    0 -0.18299012762E+02  0.68194485350E+02  0.13252763456E+03  0.15016296355E+03  0.00000000000E+00 0.  1.
         21    1    1    2  503  501  0.18091031380E+02 -0.11325880202E+02  0.91102582865E+02  0.93569447917E+02  0.00000000000E+00 0. -1.
         -3    1    1    2    0  502 -0.35211646184E+02 -0.99123668834E+01 -0.10442788587E+02  0.38041646622E+02  0.00000000000E+00 0.  1.
<scales pt_clust_5="13000.00000" pt_clust_6="13000.00000" pt_clust_7="13000.00000" pt_clust_8="13000.00000" pt_clust_9="21.34387" pt_clust_10="36.20719"></scales>
<clustering>
<clus scale="   21.344">  1  9  2 -1</clus>
<clus scale="   36.207">  2 10  1 -1</clus>
<clus scale="   90.220">  7  8 -1 -1</clus>
<clus scale="   93.840">  5  6 -1 -1</clus>
<clus scale="  108.639">  2  7  1 -1</clus>
<clus scale="   36.207">  2  5  1 -1</clus>
</clustering>
</event>
<event>
10    2  0.3544405E-006  0.1085312E+03  0.7546771E-02  0.1264222E+00
          1   -1    0    0  503    0 -0.00000000000E+00  0.00000000000E+00  0.30714554179E+03  0.30714554179E+03  0.00000000000E+00 0. -1.
         21   -1    0    0  501  502  0.00000000000E+00 -0.00000000000E+00 -0.15958687602E+03  0.15958687602E+03  0.00000000000E+00 0. -1.
         23    2    1    2    0    0 -0.42202441015E+02 -0.57171541931E+02  0.12238844349E+03  0.16784923639E+03  0.90248566861E+02 0.  0.
         23    2    1    2    0    0  0.58491897573E+02  0.12560219819E+02  0.12892808463E+02  0.11090828552E+03  0.92495200325E+02 0.  0.
        -11    1    4    4    0    0 -0.22332223889E+02  0.18528628035E+02  0.54262140674E+01  0.29520875322E+02  0.00000000000E+00 0.  1.
         11    1    4    4    0    0  0.80824121462E+02 -0.59684082152E+01  0.74665943959E+01  0.81387410197E+02  0.00000000000E+00 0. -1.
        -13    1    3    3    0    0 -0.35888418679E+02  0.36456784082E+01  0.62667846439E+01  0.36613414974E+02  0.00000000000E+00 0.  1.
         13    1    3    3    0    0 -0.63140223365E+01 -0.60817220339E+02  0.11612165885E+03  0.13123582141E+03  0.00000000000E+00 0. -1.
         21    1    1    2  503  502  0.76665842414E+01  0.20110729413E+02  0.95541449043E+02  0.97935623941E+02  0.00000000000E+00 0. -1.
          1    1    1    2  501    0 -0.23956040799E+02  0.24500592699E+02 -0.83264035224E+02  0.90039271960E+02  0.00000000000E+00 0. -1.
<scales pt_clust_5="13000.00000" pt_clust_6="13000.00000" pt_clust_7="13000.00000" pt_clust_8="13000.00000" pt_clust_9="21.52250" pt_clust_10="34.41283"></scales>
<clustering>
<clus scale="   21.522">  1  9  2 -1</clus>
<clus scale="   34.413">  2 10  1 -1</clus>
<clus scale="   90.249">  7  8 -1 -1</clus>
<clus scale="   92.495">  5  6 -1 -1</clus>
<clus scale="  106.623">  1  7  2 -1</clus>
<clus scale="   34.413">  2  5  1 -1</clus>
</clustering>
</event>
<event>
10    2  0.3544405E-006  0.1321591E+03  0.7546771E-02  0.1226644E+00
         21   -1    0    0  501  502  0.00000000000E+00  0.00000000000E+00  0.25506193580E+03  0.25506193580E+03  0.00000000000E+00 0. -1.
          1   -1    0    0  503    0 -0.00000000000E+00 -0.00000000000E+00 -0.29559371864E+03  0.29559371864E+03  0.00000000000E+00 0. -1.
         23    2    1    2    0    0  0.90805920224E+02 -0.56343895773E+02 -0.62745305542E+02  0.14855703073E+03  0.81925992650E+02 0.  0.
         23    2    1    2    0    0 -0.10486974073E+03 -0.87114040815E+02  0.10359333194E+03  0.19406741643E+03  0.91345854146E+02 0.  0.
        -11    1    3    3    0    0  0.98894131868E+02 -0.24835856010E+02 -0.50644439228E+02  0.11384958624E+03  0.00000000000E+00 0.  1.
         11    1    3    3    0    0 -0.80882116441E+01 -0.31508039763E+02 -0.12100866314E+02  0.34707444488E+02  0.00000000000E+00 0. -1.
        -13    1    4    4    0    0 -0.71508083462E+02 -0.76309761319E+00  0.43584475100E+02  0.83747207643E+02  0.00000000000E+00 0. -1.
         13    1    4    4    0    0 -0.33361657269E+02 -0.86350943202E+02  0.60008856836E+02  0.11032020878E+03  0.00000000000E+00 0.  1.
         21    1    1    2  503  502 -0.15729732910E+02  0.11931575559E+03 -0.10771477109E+03  0.16151206128E+03  0.00000000000E+00 0. -1.
          1    1    1    2  501    0  0.29793553417E+02  0.24142180999E+02  0.26334961858E+02  0.46519146001E+02  0.00000000000E+00 0. -1.
<scales pt_clust_5="13000.00000" pt_clust_6="13000.00000" pt_clust_7="13000.00000" pt_clust_8="13000.00000" pt_clust_9="122.87963" pt_clust_10="38.34711"></scales>
<clustering>
<clus scale="   38.347">  1 10  2 -1</clus>
<clus scale="   81.926">  5  6 -1 -1</clus>
<clus scale="   91.346">  7  8 -1 -1</clus>
<clus scale="  122.880">  2  9  1 -1</clus>
<clus scale="  125.833">  2  5  1 -1</clus>
<clus scale="   38.347">  1  5  2 -1</clus>
</clustering>
</event>
<event>
10    2  0.3544405E-006  0.9619404E+02  0.7546771E-02  0.1296449E+00
          1   -1    0    0  503    0 -0.00000000000E+00  0.00000000000E+00  0.50686863188E+03  0.50686863188E+03  0.00000000000E+00 0. -1.
         21   -1    0    0  501  502  0.00000000000E+00 -0.00000000000E+00 -0.11573239284E+03  0.11573239284E+03  0.00000000000E+00 0. -1.
         23    2    1    2    0    0  0.29776078827E+00  0.68706394684E+01  0.34764886592E+03  0.35606183028E+03  0.76635492188E+02 0.  0.
         23    2    1    2    0    0 -0.59483831334E+02 -0.29602359262E+02 -0.30519899286E+02  0.11658336555E+03  0.90805236672E+02 0.  0.
        -11    1    4    4    0    0 -0.16219560040E+02 -0.50452679120E+02  0.97777706992E+01  0.53890182391E+02  0.00000000000E+00 0.  1.
         11    1    4    4    0    0 -0.43264271294E+02  0.20850319858E+02 -0.40297669985E+02  0.62693183162E+02  0.00000000000E+00 0. -1.
        -11    1    3    3    0    0 -0.35396950800E+02 -0.98923374629E+01  0.19269436255E+03  0.19616809074E+03  0.00000000000E+00 0.  1.
         11    1    3    3    0    0  0.35694711589E+02  0.16762976931E+02  0.15495450337E+03  0.15989373954E+03  0.00000000000E+00 0. -1.
         21    1    1    2  503  502  0.23187654197E+02  0.15629654591E+02  0.10074576551E+03  0.10455459186E+03  0.00000000000E+00 0. -1.
          1    1    1    2  501    0  0.35998416349E+02  0.71020652026E+01 -0.26738493112E+02  0.45401237028E+02  0.00000000000E+00 0. -1.
<scales pt_clust_5="13000.00000" pt_clust_6="13000.00000" pt_clust_7="13000.00000" pt_clust_8="13000.00000" pt_clust_9="27.96343" pt_clust_10="37.28815"></scales>
<clustering>
<clus scale="   27.963">  1  9  2 -1</clus>
<clus scale="   37.288">  2 10  1 -1</clus>
<clus scale="   76.635">  7  8 -1 -1</clus>
<clus scale="   82.950">  1  7  2 -1</clus>
<clus scale="   90.805">  5  6 -1 -1</clus>
<clus scale="   37.288">  2  5  1 -1</clus>
</clustering>
</event>
<event>
10    2  0.3544405E-006  0.1350195E+03  0.7546771E-02  0.1223223E+00
          1   -1    0    0  503    0 -0.00000000000E+00  0.00000000000E+00  0.34578728766E+03  0.34578728766E+03  0.00000000000E+00 0. -1.
         21   -1    0    0  501  502  0.00000000000E+00 -0.00000000000E+00 -0.15842777798E+03  0.15842777798E+03  0.00000000000E+00 0.  1.
         23    2    1    2    0    0  0.77273162050E+02 -0.50021081494E+02  0.77180349604E+02  0.15803508169E+03  0.10268899898E+03 0.  0.
         23    2    1    2    0    0 -0.36984131475E+02  0.52237817616E+02 -0.58299107959E+02  0.12596644127E+03  0.91499414030E+02 0.  0.
        -11    1    4    4    0    0  0.19743638352E+00  0.65582778971E+02 -0.14849598155E+02  0.67243218573E+02  0.00000000000E+00 0. -1.
         11    1    4    4    0    0 -0.37181567859E+02 -0.13344961356E+02 -0.43449509804E+02  0.58723222699E+02  0.00000000000E+00 0.  1.
        -13    1    3    3    0    0 -0.22425558484E+02  0.27418529441E+01  0.24464333092E+01  0.22724622480E+02  0.00000000000E+00 0.  1.
         13    1    3    3    0    0  0.99698720535E+02 -0.52762934438E+02  0.74733916295E+02  0.13531045921E+03  0.00000000000E+00 0. -1.
         21    1    1    2  503  502 -0.72079114409E+01 -0.32788763629E+02  0.17179743316E+03  0.17504689385E+03  0.00000000000E+00 0. -1.
          1    1    1    2  501    0 -0.33081119134E+02  0.30572027507E+02 -0.33191651202E+01  0.45166648826E+02  0.00000000000E+00 0. -1.
<scales pt_clust_5="13000.00000" pt_clust_6="13000.00000" pt_clust_7="13000.00000" pt_clust_8="13000.00000" pt_clust_9="33.57167" pt_clust_10="43.12931"></scales>
<clustering>
<clus scale="   33.572">  1  9  2 -1</clus>
<clus scale="   43.129">  2 10  1 -1</clus>
<clus scale="   91.499">  5  6 -1 -1</clus>
<clus scale="  102.689">  7  8 -1 -1</clus>
<clus scale="  126.718">  2  5  1 -1</clus>
<clus scale="   43.129">  2  5  1 -1</clus>
</clustering>
</event>
<event>
10    2  0.3544405E-006  0.9821149E+02  0.7546771E-02  0.1284695E+00
          1   -1    0    0  502    0 -0.00000000000E+00  0.00000000000E+00  0.71566050882E+03  0.71566050882E+03  0.00000000000E+00 0. -1.
         21   -1    0    0  503  502  0.00000000000E+00 -0.00000000000E+00 -0.47646823898E+02  0.47646823898E+02  0.00000000000E+00 0.  1.
         23    2    1    2    0    0  0.33871019770E+02 -0.47790589601E+01  0.34114254658E+03  0.35455665187E+03  0.90344324211E+02 0.  0.
         23    2    1    2    0    0 -0.24498087050E+02  0.39570561169E+02  0.27169086181E+03  0.29044388812E+03  0.91519080905E+02 0.  0.
        -11    1    4    4    0    0 -0.25586406482E+02 -0.20940497560E+02  0.16029394951E+03  0.16366831973E+03  0.00000000000E+00 0. -1.
         11    1    4    4    0    0  0.10883194326E+01  0.60511058730E+02  0.11139691231E+03  0.12677556839E+03  0.00000000000E+00 0.  1.
        -11    1    3    3    0    0  0.64865837949E+02 -0.45205550137E-01  0.21471406068E+03  0.22429825419E+03  0.00000000000E+00 0.  1.
         11    1    3    3    0    0 -0.30994818179E+02 -0.47338534099E+01  0.12642848590E+03  0.13025839769E+03  0.00000000000E+00 0. -1.
         21    1    1    2  503  501 -0.16897513747E+02  0.23481370786E+02  0.51949520814E+02  0.59461361048E+02  0.00000000000E+00 0.  1.
          1    1    1    2  501    0  0.75245810272E+01 -0.58272872995E+02  0.32307557100E+01  0.58845431677E+02  0.00000000000E+00 0. -1.
<scales pt_clust_5="13000.00000" pt_clust_6="13000.00000" pt_clust_7="13000.00000" pt_clust_8="13000.00000" pt_clust_9="28.92924" pt_clust_10="43.51254"></scales>
<clustering>
<clus scale="   28.929">  2  9  1 -1</clus>
<clus scale="   43.513">  2 10  1 -1</clus>
<clus scale="   90.344">  7  8 -1 -1</clus>
<clus scale="   91.519">  5  6 -1 -1</clus>
<clus scale="   97.118">  1  7  2 -1</clus>
<clus scale="   28.929">  2  5  1 -1</clus>
</clustering>
</event>
<event>
10    2  0.3544405E-006  0.1157723E+03  0.7546771E-02  0.1255968E+00
         21   -1    0    0  501  502  0.00000000000E+00  0.00000000000E+00  0.34889722151E+03  0.34889722151E+03  0.00000000000E+00 0.  1.
          2   -1    0    0  503    0 -0.00000000000E+00 -0.00000000000E+00 -0.22868230914E+03  0.22868230914E+03  0.00000000000E+00 0.  1.
         23    2    1    2    0    0 -0.37697552709E+02  0.25061505843E+02 -0.18679510326E+02  0.11485332381E+03  0.10389021768E+03 0.  0.
         23    2    1    2    0    0  0.24760650262E+02 -0.53943880502E+02 -0.40895242567E+02  0.11514730729E+03  0.89796711888E+02 0.  0.
        -11    1    3    3    0    0  0.52789440125E+01 -0.25684206350E+02 -0.37485714777E+02  0.45746306060E+02  0.00000000000E+00 0.  1.
         11    1    3    3    0    0 -0.42976496722E+02  0.50745712193E+02  0.18806204451E+02  0.69107017750E+02  0.00000000000E+00 0. -1.
        -13    1    4    4    0    0  0.80292991278E+01 -0.68252574219E+02 -0.55830985182E+02  0.88543675316E+02  0.00000000000E+00 0.  1.
         13    1    4    4    0    0  0.16731351134E+02  0.14308693717E+02  0.14935742614E+02  0.26603631972E+02  0.00000000000E+00 0. -1.
         21    1    1    2  503  502  0.25779502753E+02 -0.37434368514E+02 -0.72959315879E+02  0.85959155893E+02  0.00000000000E+00 0.  1.
          2    1    1    2  501    0 -0.12842600305E+02  0.66316743174E+02  0.25274898114E+03  0.26161974366E+03  0.00000000000E+00 0.  1.
<scales pt_clust_5="13000.00000" pt_clust_6="13000.00000" pt_clust_7="13000.00000" pt_clust_8="13000.00000" pt_clust_9="45.45233" pt_clust_10="66.31297"></scales>
<clustering>
<clus scale="   45.452">  2  9  1 -1</clus>
<clus scale="   66.313">  1 10  2 -1</clus>
<clus scale="   89.797">  7  8 -1 -1</clus>
<clus scale="  103.313">  1  7  2 -1</clus>
<clus scale="  103.890">  5  6 -1 -1</clus>
<clus scale="   66.313">  1  5  2 -1</clus>
</clustering>
</event>
<event>
10    2  0.3544405E-006  0.1709234E+03  0.7546771E-02  0.1177918E+00
          1   -1    0    0  503    0 -0.00000000000E+00  0.00000000000E+00  0.28989644935E+03  0.28989644935E+03  0.00000000000E+00 0. -1.
         21   -1    0    0  501  502  0.00000000000E+00 -0.00000000000E+00 -0.16879486054E+03  0.16879486054E+03  0.00000000000E+00 0.  1.
         23    2    1    2    0    0  0.12629787661E+03  0.50289040597E+02  0.80376555443E+02  0.18722119564E+03  0.10055468259E+03 0.  0.
         23    2    1    2    0    0 -0.14204025736E+03 -0.31096492968E+01  0.36105527619E+02  0.17398850739E+03  0.93719192012E+02 0.  0.
        -11    1    3    3    0    0  0.31259396919E+02 -0.29891224580E+02  0.31987932979E+02  0.53794637826E+02  0.00000000000E+00 0.  1.
         11    1    3    3    0    0  0.95038479693E+02  0.80180265177E+02  0.48388622464E+02  0.13342655781E+03  0.00000000000E+00 0. -1.
        -13    1    4    4    0    0 -0.12000053214E+03 -0.15078689204E+02  0.63704843879E+02  0.13669601938E+03  0.00000000000E+00 0.  1.
         13    1    4    4    0    0 -0.22039725222E+02  0.11969039907E+02 -0.27599316260E+02  0.37292488013E+02  0.00000000000E+00 0. -1.
         21    1    1    2  503  502  0.19636334065E+02  0.19685873282E+02  0.11625690374E+02  0.30137616015E+02  0.00000000000E+00 0.  1.
          1    1    1    2  501    0 -0.38939533196E+01 -0.66865264583E+02 -0.70061846277E+01  0.67343990847E+02  0.00000000000E+00 0. -1.
<scales pt_clust_5="13000.00000" pt_clust_6="13000.00000" pt_clust_7="13000.00000" pt_clust_8="13000.00000" pt_clust_9="27.80502" pt_clust_10="64.67970"></scales>
<clustering>
<clus scale="   27.805">  1  9  2 -1</clus>
<clus scale="   64.680">  2 10  1 -1</clus>
<clus scale="   93.719">  7  8 -1 -1</clus>
<clus scale="  100.555">  5  6 -1 -1</clus>
<clus scale="  166.994">  2  7  1 -1</clus>
<clus scale="   64.680">  2  5  1 -1</clus>
</clustering>
</event>
<event>
10    2  0.3544405E-006  0.1177143E+03  0.7546771E-02  0.1247327E+00
         21   -1    0    0  503  502  0.00000000000E+00  0.00000000000E+00  0.13822199407E+03  0.13822199407E+03  0.00000000000E+00 0. -1.
         -1   -1    0    0    0  501 -0.00000000000E+00 -0.00000000000E+00 -0.20745123382E+03  0.20745123382E+03  0.00000000000E+00 0.  1.
         23    2    1    2    0    0 -0.14607229077E+02  0.39944126714E+02 -0.24462167095E+02  0.10442068808E+03  0.92175799856E+02 0.  0.
         23    2    1    2    0    0  0.40878004910E+02 -0.10052408144E+03 -0.10992280998E+02  0.14201007670E+03  0.90939152232E+02 0.  0.
        -13    1    3    3    0    0  0.34240614431E+02  0.78469773300E+01  0.10056422591E+02  0.36539381018E+02  0.00000000000E+00 0.  1.
         13    1    3    3    0    0 -0.48847843508E+02  0.32097149384E+02 -0.34518589686E+02  0.67881307058E+02  0.00000000000E+00 0. -1.
        -13    1    4    4    0    0 -0.15817624688E+02 -0.47142346892E+02  0.25646677422E+02  0.55949532474E+02  0.00000000000E+00 0. -1.
         13    1    4    4    0    0  0.56695629598E+02 -0.53381734548E+02 -0.36638958420E+02  0.86060544229E+02  0.00000000000E+00 0.  1.
         21    1    1    2  503  501  0.12871118212E+02  0.49449214720E+02 -0.27625724217E+02  0.58086755453E+02  0.00000000000E+00 0.  1.
         -1    1    1    2    0  502 -0.39141894045E+02  0.11130740005E+02 -0.61490674322E+01  0.41155707658E+02  0.00000000000E+00 0.  1.
<scales pt_clust_5="13000.00000" pt_clust_6="13000.00000" pt_clust_7="13000.00000" pt_clust_8="13000.00000" pt_clust_9="51.46854" pt_clust_10="40.69375"></scales>
<clustering>
<clus scale="   40.694">  1 10  2 -1</clus>
<clus scale="   51.469">  2  9  1 -1</clus>
<clus scale="   90.939">  7  8 -1 -1</clus>
<clus scale="   92.176">  5  6 -1 -1</clus>
<clus scale="  116.748">  1  7  2 -1</clus>
<clus scale="   40.694">  1  5  2 -1</clus>
</clustering>
</event>
<event>
10    2  0.3544405E-006  0.1279866E+03  0.7546771E-02  0.1233090E+00
          2   -1    0    0  503    0 -0.00000000000E+00  0.00000000000E+00  0.53076821500E+03  0.53076821500E+03  0.00000000000E+00 0. -1.
         21   -1    0    0  501  502  0.00000000000E+00 -0.00000000000E+00 -0.15068151839E+03  0.15068151839E+03  0.00000000000E+00 0. -1.
         23    2    1    2    0    0  0.83412589737E+02  0.28456269423E+02  0.34356233034E+03  0.36612887940E+03  0.90817741121E+02 0.  0.
         23    2    1    2    0    0 -0.12071567802E+03  0.10190110406E+02 -0.14296527235E+02  0.14647840841E+03  0.81088964542E+02 0.  0.
        -13    1    4    4    0    0 -0.11202953755E+03  0.34221100544E+02  0.11946370111E+00  0.11713972545E+03  0.00000000000E+00 0. -1.
         13    1    4    4    0    0 -0.86861404631E+01 -0.24030990139E+02 -0.14415990936E+02  0.29338682961E+02  0.00000000000E+00 0.  1.
        -13    1    3    3    0    0  0.12612312932E+02 -0.31398801271E+02  0.93060083806E+02  0.99020878388E+02  0.00000000000E+00 0. -1.
         13    1    3    3    0    0  0.70800276805E+02  0.59855070694E+02  0.25050224654E+03  0.26710800101E+03  0.00000000000E+00 0.  1.
         21    1    1    2  503  502  0.21622098588E+01 -0.26894151814E+02  0.10208422306E+03  0.10558957880E+03  0.00000000000E+00 0. -1.
          2    1    1    2  501    0  0.35140878421E+02 -0.11752228015E+02 -0.51263329556E+02  0.63252866787E+02  0.00000000000E+00 0. -1.
<scales pt_clust_5="13000.00000" pt_clust_6="13000.00000" pt_clust_7="13000.00000" pt_clust_8="13000.00000" pt_clust_9="26.98093" pt_clust_10="37.20416"></scales>
<clustering>
<clus scale="   26.981">  1  9  2 -1</clus>
<clus scale="   37.204">  2 10  1 -1</clus>
<clus scale="   81.089">  5  6 -1 -1</clus>
<clus scale="   90.818">  7  8 -1 -1</clus>
<clus scale="  121.277">  2  5  1 -1</clus>
<clus scale="   37.204">  2  5  1 -1</clus>
</clustering>
</event>
<event>
10    2  0.3544405E-006  0.1047144E+03  0.7546771E-02  0.1271052E+00
         21   -1    0    0  501  502  0.00000000000E+00  0.00000000000E+00  0.25363626642E+03  0.25363626642E+03  0.00000000000E+00 0.  1.
          1   -1    0    0  503    0 -0.00000000000E+00 -0.00000000000E+00 -0.40161077722E+03  0.40161077722E+03  0.00000000000E+00 0. -1.
         23    2    1    2    0    0  0.68274440667E+01 -0.72139013242E-01 -0.24046863085E+03  0.25772681125E+03  0.92473388700E+02 0.  0.
         23    2    1    2    0    0  0.65120104971E+02 -0.56660220524E+02  0.14654785729E+03  0.19319342083E+03  0.91631952472E+02 0.  0.
        -11    1    4    4    0    0  0.44886610316E+02 -0.48820038357E+02  0.26855730677E+02  0.71550221530E+02  0.00000000000E+00 0. -1.
         11    1    4    4    0    0  0.20233494655E+02 -0.78401821673E+01  0.11969212661E+03  0.12164319930E+03  0.00000000000E+00 0.  1.
        -13    1    3    3    0    0  0.18567286627E+02 -0.43611972264E+02 -0.13229233165E+03  0.14052761035E+03  0.00000000000E+00 0. -1.
         13    1    3    3    0    0 -0.11739842560E+02  0.43539833251E+02 -0.10817629920E+03  0.11719920090E+03  0.00000000000E+00 0.  1.
         21    1    1    2  503  502 -0.26775062341E+02  0.48485393578E+02 -0.11522062680E+03  0.12784181708E+03  0.00000000000E+00 0. -1.
          1    1    1    2  501    0 -0.45172486697E+02  0.82469659596E+01  0.61166889568E+02  0.76484994485E+02  0.00000000000E+00 0. -1.
<scales pt_clust_5="13000.00000" pt_clust_6="13000.00000" pt_clust_7="13000.00000" pt_clust_8="13000.00000" pt_clust_9="56.39240" pt_clust_10="45.91912"></scales>
<clustering>
<clus scale="   45.919">  1 10  2 -1</clus>
<clus scale="   56.392">  2  9  1 -1</clus>
<clus scale="   91.632">  5  6 -1 -1</clus>
<clus scale="   92.473">  7  8 -1 -1</clus>
<clus scale="  103.972">  1  5  2 -1</clus>
<clus scale="   45.919">  1  5  2 -1</clus>
</clustering>
</event>
<event>
10    2  0.3544405E-006  0.1635907E+03  0.7546771E-02  0.1184774E+00
         21   -1    0    0  501  502  0.00000000000E+00  0.00000000000E+00  0.56013597291E+03  0.56013597291E+03  0.00000000000E+00 0. -1.
          2   -1    0    0  503    0 -0.00000000000E+00 -0.00000000000E+00 -0.15356925253E+03  0.15356925253E+03  0.00000000000E+00 0. -1.
         23    2    1    2    0    0 -0.83066638422E+02 -0.13308019503E+03 -0.21934407147E+01  0.18105453569E+03  0.90363316567E+02 0.  0.
         23    2    1    2    0    0  0.99581406076E+02  0.12473117930E+03  0.35347375502E+03  0.39833396224E+03  0.90840114827E+02 0.  0.
        -11    1    3    3    0    0  0.18606726120E+02 -0.10723236354E+02 -0.45399529003E+01  0.21950153237E+02  0.00000000000E+00 0.  1.
         11    1    3    3    0    0 -0.10167336454E+03 -0.12235695868E+03  0.23465121856E+01  0.15910438245E+03  0.00000000000E+00 0. -1.
        -13    1    4    4    0    0  0.73849714876E+02  0.25808259381E+02  0.19077384462E+03  0.20619046154E+03  0.00000000000E+00 0.  1.
         13    1    4    4    0    0  0.25731691200E+02  0.98922919918E+02  0.16269991040E+03  0.19214350070E+03  0.00000000000E+00 0. -1.
         21    1    1    2  503  502  0.92049452808E+01  0.35178153931E+02 -0.26157540134E+02  0.44793419578E+02  0.00000000000E+00 0.  1.
          2    1    1    2  501    0 -0.25719712935E+02 -0.26829138197E+02  0.81443946203E+02  0.89523307931E+02  0.00000000000E+00 0. -1.
<scales pt_clust_5="13000.00000" pt_clust_6="13000.00000" pt_clust_7="13000.00000" pt_clust_8="13000.00000" pt_clust_9="36.36253" pt_clust_10="36.08444"></scales>
<clustering>
<clus scale="   36.363">  2  9  1 -1</clus>
<clus scale="   36.084">  1 10  2 -1</clus>
<clus scale="   90.363">  5  6 -1 -1</clus>
<clus scale="   90.840">  7  8 -1 -1</clus>
<clus scale="  163.326">  2  5  1 -1</clus>
<clus scale="   36.084">  1  5  2 -1</clus>
</clustering>
</event>
<event>
10    2  0.3544405E-006  0.1013182E+03  0.7546771E-02  0.1278538E+00
          1   -1    0    0  503    0 -0.00000000000E+00  0.00000000000E+00  0.32721184782E+03  0.32721184782E+03  0.00000000000E+00 0. -1.
         21   -1    0    0  501  502  0.00000000000E+00 -0.00000000000E+00 -0.99360369086E+02  0.99360369086E+02  0.00000000000E+00 0.  1.
         23    2    1    2    0    0  0.58291942280E+02  0.23789051838E+02  0.10689110590E+03  0.15425788847E+03  0.91683794157E+02 0.  0.
         23    2    1    2    0    0  0.20716324835E+02 -0.39536571860E+02  0.60001913710E+02  0.11991304781E+03  0.93736880459E+02 0.  0.
        -11    1    3    3    0    0  0.77987796747E+02  0.36299750151E+02  0.94681163476E+02  0.12792298863E+03  0.00000000000E+00 0.  1.
         11    1    3    3    0    0 -0.19695854467E+02 -0.12510698312E+02  0.12209942425E+02  0.26334899838E+02  0.00000000000E+00 0. -1.
        -13    1    4    4    0    0  0.14845894084E+02 -0.66271484321E+02  0.18835920775E+02  0.70477671050E+02  0.00000000000E+00 0.  1.
         13    1    4    4    0    0  0.58704307509E+01  0.26734912461E+02  0.41165992935E+02  0.49435376764E+02  0.00000000000E+00 0. -1.
         21    1    1    2  503  502  0.17776236565E+02 -0.14913739203E+02  0.43618010150E+02  0.49405920828E+02  0.00000000000E+00 0.  1.
          1    1    1    2  501    0 -0.96784503680E+02  0.30661259225E+02  0.17340448976E+02  0.10299535980E+03  0.00000000000E+00 0. -1.
<scales pt_clust_5="13000.00000" pt_clust_6="13000.00000" pt_clust_7="13000.00000" pt_clust_8="13000.00000" pt_clust_9="23.20375" pt_clust_10="96.94584"></scales>
<clustering>
<clus scale="   23.204">  1  9  2 -1</clus>
<clus scale="   91.684">  5  6 -1 -1</clus>
<clus scale="   93.737">  7  8 -1 -1</clus>
<clus scale="   96.946">  2 10  1 -1</clus>
<clus scale="   99.422">  1  5  2 -1</clus>
<clus scale="   96.946">  2  5  1 -1</clus>
</clustering>
</event>
<event>
10    2  0.3544405E-006  0.1039961E+03  0.7546771E-02  0.1272381E+00
         21   -1    0    0  501  502  0.00000000000E+00  0.00000000000E+00  0.15161829505E+03  0.15161829505E+03  0.00000000000E+00 0.  1.
          4   -1    0    0  503    0 -0.00000000000E+00 -0.00000000000E+00 -0.20312501815E+03  0.20312501815E+03  0.00000000000E+00 0. -1.
         23    2    1    2    0    0  0.47157656775E+02  0.99921536016E+01 -0.13040079601E+03  0.16702028375E+03  0.92561978469E+02 0.  0.
         23    2    1    2    0    0 -0.37301036771E+02 -0.14057142259E+01  0.56247864518E+02  0.11407293347E+03  0.91953621523E+02 0.  0.
        -11    1    3    3    0    0 -0.37664686538E+01  0.41791432585E+02 -0.71569507333E+02  0.82963272015E+02  0.00000000000E+00 0.  1.
         11    1    3    3    0    0  0.50924125429E+02 -0.31799278983E+02 -0.58831288676E+02  0.84057011735E+02  0.00000000000E+00 0. -1.
        -13    1    4    4    0    0 -0.60240781233E+02  0.14095149543E+02  0.59940034260E+02  0.86141933292E+02  0.00000000000E+00 0.  1.
         13    1    4    4    0    0  0.22939744462E+02 -0.15500863769E+02 -0.36921697425E+01  0.27931000178E+02  0.00000000000E+00 0. -1.
         21    1    1    2  503  502  0.32253669889E+01 -0.24947120680E+02 -0.15914889204E+02  0.29766516773E+02  0.00000000000E+00 0. -1.
          4    1    1    2  501    0 -0.13081986993E+02  0.16360681304E+02  0.38561097590E+02  0.43883579204E+02  0.00000000000E+00 0. -1.
<scales pt_clust_5="13000.00000" pt_clust_6="13000.00000" pt_clust_7="13000.00000" pt_clust_8="13000.00000" pt_clust_9="24.04128" pt_clust_10="20.94780"></scales>
<clustering>
<clus scale="   20.948">  1 10  2 -1</clus>
<clus scale="   24.041">  2  9  1 -1</clus>
<clus scale="   91.954">  7  8 -1 -1</clus>
<clus scale="   92.562">  5  6 -1 -1</clus>
<clus scale="  103.455">  1  7  2 -1</clus>
<clus scale="   20.948">  1  5  2 -1</clus>
</clustering>
</event>
<event>
10    2  0.3544405E-006  0.1137844E+03  0.7546771E-02  0.1255048E+00
         -3   -1    0    0    0  501 -0.00000000000E+00  0.00000000000E+00  0.24678973736E+03  0.24678973736E+03  0.00000000000E+00 0.  1.
         21   -1    0    0  503  502  0.00000000000E+00 -0.00000000000E+00 -0.35568077873E+03  0.35568077873E+03  0.00000000000E+00 0.  1.
         23    2    1    2    0    0 -0.55309800131E+02 -0.11864811916E+02  0.17558472797E+03  0.20500694912E+03  0.89431005481E+02 0.  0.
         23    2    1    2    0    0  0.55235865571E+02 -0.66722485222E+02 -0.98957025700E+02  0.15693268342E+03  0.85629920656E+02 0.  0.
        -11    1    3    3    0    0 -0.26651371874E+01 -0.36332970019E+02  0.11695991277E+03  0.12250228105E+03  0.00000000000E+00 0.  1.
         11    1    3    3    0    0 -0.52644662944E+02  0.24468158103E+02  0.58624815194E+02  0.82504668073E+02  0.00000000000E+00 0. -1.
        -11    1    4    4    0    0  0.33480477432E+02 -0.79298578373E+02 -0.99796636416E+02  0.13178989165E+03  0.00000000000E+00 0.  1.
         11    1    4    4    0    0  0.21755388139E+02  0.12576093151E+02  0.83961071631E+00  0.25142791774E+02  0.00000000000E+00 0. -1.
         21    1    1    2  503  501 -0.21808984435E+02  0.24132827929E+01  0.13876663874E+02  0.25961847704E+02  0.00000000000E+00 0.  1.
         -3    1    1    2    0  502  0.21882918994E+02  0.76174014345E+02 -0.19939540751E+03  0.21456903584E+03  0.00000000000E+00 0.  1.
<scales pt_clust_5="13000.00000" pt_clust_6="13000.00000" pt_clust_7="13000.00000" pt_clust_8="13000.00000" pt_clust_9="21.94210" pt_clust_10="79.13442"></scales>
<clustering>
<clus scale="   21.942">  1  9  2 -1</clus>
<clus scale="   79.134">  2 10  1 -1</clus>
<clus scale="   85.630">  7  8 -1 -1</clus>
<clus scale="   89.431">  5  6 -1 -1</clus>
<clus scale="  110.822">  2  7  1 -1</clus>
<clus scale="   79.134">  2  5  1 -1</clus>
</clustering>
</event>
<event>
10    2  0.3544405E-006  0.1320188E+03  0.7546771E-02  0.1225229E+00
         21   -1    0    0  501  502  0.00000000000E+00  0.00000000000E+00  0.64834667899E+02  0.64834667899E+02  0.00000000000E+00 0.  1.
          1   -1    0    0  503    0 -0.00000000000E+00 -0.00000000000E+00 -0.45302467418E+03  0.45302467418E+03  0.00000000000E+00 0. -1.
         23    2    1    2    0    0  0.81610494154E+02  0.68710847579E+02 -0.19582305642E+03  0.24195760917E+03  0.93890158565E+02 0.  0.
         23    2    1    2    0    0 -0.71095953538E+02 -0.35703872387E+02 -0.12735739028E+03  0.17560380787E+03  0.91035110615E+02 0.  0.
        -11    1    3    3    0    0  0.61794001668E+02  0.75379747192E+02 -0.19824323825E+03  0.22090945304E+03  0.00000000000E+00 0. -1.
         11    1    3    3    0    0  0.19816492486E+02 -0.66688996133E+01  0.24201818245E+01  0.21048156132E+02  0.00000000000E+00 0.  1.
        -13    1    4    4    0    0 -0.38295918245E+02 -0.65681192751E+02 -0.73081028934E+02  0.10545820606E+03  0.00000000000E+00 0.  1.
         13    1    4    4    0    0 -0.32800035293E+02  0.29977320364E+02 -0.54276361350E+02  0.70145601807E+02  0.00000000000E+00 0. -1.
         21    1    1    2  503  502  0.15527419870E+02 -0.19857789954E+02 -0.66468680834E+02  0.71088101124E+02  0.00000000000E+00 0. -1.
          1    1    1    2  501    0 -0.26041960486E+02 -0.13149185238E+02  0.14591212650E+01  0.29209823917E+02  0.00000000000E+00 0. -1.
<scales pt_clust_5="13000.00000" pt_clust_6="13000.00000" pt_clust_7="13000.00000" pt_clust_8="13000.00000" pt_clust_9="25.20779" pt_clust_10="29.00979"></scales>
<clustering>
<clus scale="   25.208">  2  9  1 -1</clus>
<clus scale="   29.010">  1 10  2 -1</clus>
<clus scale="   91.035">  7  8 -1 -1</clus>
<clus scale="   93.890">  5  6 -1 -1</clus>
<clus scale="  130.004">  1  7  2 -1</clus>
<clus scale="   29.010">  1  5  2 -1</clus>
</clustering>
</event>
<event>
10    2  0.3544405E-006  0.1051044E+03  0.7546771E-02  0.1270681E+00
          1   -1    0    0  503    0 -0.00000000000E+00  0.00000000000E+00  0.32494663169E+03  0.32494663169E+03  0.00000000000E+00 0. -1.
         21   -1    0    0  501  502  0.00000000000E+00 -0.00000000000E+00 -0.30652404770E+03  0.30652404770E+03  0.00000000000E+00 0. -1.
         23    2    1    2    0    0 -0.95708536162E+02  0.12641594302E+02  0.12502173465E+03  0.18311208147E+03  0.92626488892E+02 0.  0.
         23    2    1    2    0    0  0.50920112676E+01 -0.25331836666E+02  0.83764178393E+02  0.12625763841E+03  0.90867613299E+02 0.  0.
        -11    1    3    3    0    0 -0.12607947802E+02  0.43363154331E+02  0.40296949162E+02  0.60524107702E+02  0.00000000000E+00 0.  1.
         11    1    3    3    0    0 -0.83100588360E+02 -0.30721560029E+02  0.84724785485E+02  0.12258797377E+03  0.00000000000E+00 0. -1.
        -11    1    4    4    0    0  0.19940585345E+01  0.31435171644E+02  0.98379197782E+01  0.32998953791E+02  0.00000000000E+00 0.  1.
         11    1    4    4    0    0  0.30979527332E+01 -0.56767008310E+02  0.73926258614E+02  0.93258684616E+02  0.00000000000E+00 0. -1.
         21    1    1    2  503  502  0.35871183360E+02 -0.37229615344E+02  0.49184556201E+02  0.71357596814E+02  0.00000000000E+00 0. -1.
          1    1    1    2  501    0  0.54745341534E+02  0.49919857708E+02 -0.23954788525E+03  0.25074336270E+03  0.00000000000E+00 0. -1.
<scales pt_clust_5="13000.00000" pt_clust_6="13000.00000" pt_clust_7="13000.00000" pt_clust_8="13000.00000" pt_clust_9="51.69899" pt_clust_10="74.12620"></scales>
<clustering>
<clus scale="   51.699">  1  9  2 -1</clus>
<clus scale="   74.126">  2 10  1 -1</clus>
<clus scale="   90.868">  7  8 -1 -1</clus>
<clus scale="   92.626">  5  6 -1 -1</clus>
<clus scale="  103.558">  2  7  1 -1</clus>
<clus scale="   74.126">  2  5  1 -1</clus>
</clustering>
</event>
<event>
10    2  0.3544405E-006  0.1046502E+03  0.7546771E-02  0.1277065E+00
         21   -1    0    0  503  502  0.00000000000E+00  0.00000000000E+00  0.48111609257E+03  0.48111609257E+03  0.00000000000E+00 0. -1.
         -1   -1    0    0    0  501 -0.00000000000E+00 -0.00000000000E+00 -0.62992702114E+02  0.62992702114E+02  0.00000000000E+00 0.  1.
         23    2    1    2    0    0  0.11673904123E+02  0.14229347697E+02  0.18398672350E+03  0.20605032544E+03  0.90922317480E+02 0.  0.
         23    2    1    2    0    0 -0.46231537791E+01 -0.16098322135E+02  0.26046893229E+03  0.28059179612E+03  0.10299107648E+03 0.  0.
        -11    1    4    4    0    0  0.37192938724E+02 -0.41095294141E+02  0.14724180879E+03  0.15732859926E+03  0.00000000000E+00 0. -1.
         11    1    4    4    0    0 -0.41816092503E+02  0.24996972006E+02  0.11322712350E+03  0.12326319685E+03  0.00000000000E+00 0.  1.
        -11    1    3    3    0    0 -0.33111114410E+01 -0.36873251664E+02  0.99674498047E+02  0.10632782189E+03  0.00000000000E+00 0.  1.
         11    1    3    3    0    0  0.14985015564E+02  0.51102599361E+02  0.84312225451E+02  0.99722503546E+02  0.00000000000E+00 0. -1.
         21    1    1    2  503  501  0.16013416717E+01  0.21605766977E+02 -0.28509165714E+02  0.35807066224E+02  0.00000000000E+00 0.  1.
         -1    1    1    2    0  502 -0.86520920157E+01 -0.19736792539E+02  0.21769003808E+01  0.21659606904E+02  0.00000000000E+00 0.  1.
<scales pt_clust_5="13000.00000" pt_clust_6="13000.00000" pt_clust_7="13000.00000" pt_clust_8="13000.00000" pt_clust_9="21.50705" pt_clust_10="21.54995"></scales>
<clustering>
<clus scale="   21.550">  1 10  2 -1</clus>
<clus scale="   21.507">  2  9  1 -1</clus>
<clus scale="   90.922">  7  8 -1 -1</clus>
<clus scale="   92.797">  2  7  1 -1</clus>
<clus scale="  102.991">  5  6 -1 -1</clus>
<clus scale="   21.550">  1  5  2 -1</clus>
</clustering>
</event>
<event>
10    2  0.3544405E-006  0.9450423E+02  0.7546771E-02  0.1293603E+00
         21   -1    0    0  503  502  0.00000000000E+00  0.00000000000E+00  0.29428832700E+03  0.29428832700E+03  0.00000000000E+00 0.  1.
         -3   -1    0    0    0  501 -0.00000000000E+00 -0.00000000000E+00 -0.74567242087E+02  0.74567242087E+02  0.00000000000E+00 0.  1.
         23    2    1    2    0    0 -0.38662148234E+01  0.16221870446E+02  0.49376817746E+01  0.93560162263E+02  0.91929465154E+02 0.  0.
         23    2    1    2    0    0  0.42031063332E+00 -0.35857823441E+02  0.10838636821E+03  0.14512014149E+03  0.89589566866E+02 0.  0.
        -11    1    3    3    0    0 -0.37936208352E+02  0.37375224174E+02  0.46383751733E+01  0.53456316844E+02  0.00000000000E+00 0.  1.
         11    1    3    3    0    0  0.34069993529E+02 -0.21153353728E+02  0.29930660130E+00  0.40103845420E+02  0.00000000000E+00 0. -1.
        -13    1    4    4    0    0 -0.34891429542E+02 -0.40366528686E+02  0.91033227150E+02  0.10551737743E+03  0.00000000000E+00 0.  1.
         13    1    4    4    0    0  0.35311740175E+02  0.45087052450E+01  0.17353141057E+02  0.39602764067E+02  0.00000000000E+00 0. -1.
         21    1    1    2  503  501 -0.31563737656E+02  0.13666330686E+02  0.28888526077E+02  0.44917536310E+02  0.00000000000E+00 0.  1.
         -3    1    1    2    0  502  0.35009641846E+02  0.59696223092E+01  0.77508508851E+02  0.85257729017E+02  0.00000000000E+00 0.  1.
<scales pt_clust_5="13000.00000" pt_clust_6="13000.00000" pt_clust_7="13000.00000" pt_clust_8="13000.00000" pt_clust_9="34.39532" pt_clust_10="27.06241"></scales>
<clustering>
<clus scale="   34.395">  1  9  2 -1</clus>
<clus scale="   27.062">  1 10  2 -1</clus>
<clus scale="   89.590">  7  8 -1 -1</clus>
<clus scale="   91.929">  5  6 -1 -1</clus>
<clus scale="   92.230">  1  7  2 -1</clus>
<clus scale="   34.395">  1  5  2 -1</clus>
</clustering>
</event>
<event>
10    2  0.3544405E-006  0.9964334E+02  0.7546771E-02  0.1284634E+00
         21   -1    0    0  501  502  0.00000000000E+00  0.00000000000E+00  0.74233882176E+02  0.74233882176E+02  0.00000000000E+00 0.  1.
          2   -1    0    0  503    0 -0.00000000000E+00 -0.00000000000E+00 -0.79218018563E+03  0.79218018563E+03  0.00000000000E+00 0. -1.
         23    2    1    2    0    0  0.49856979695E+02  0.26675479975E+02 -0.43065705450E+03  0.44360625743E+03  0.90131644773E+02 0.  0.
         23    2    1    2    0    0 -0.19593921605E+02  0.35803662735E+02 -0.91489923980E+02  0.13936058343E+03  0.96876942531E+02 0.  0.
        -11    1    4    4    0    0 -0.57661012012E+02  0.29348314034E+02 -0.69383718608E+02  0.94869469540E+02  0.00000000000E+00 0. -1.
         11    1    4    4    0    0  0.38067090407E+02  0.64553487006E+01 -0.22106205372E+02  0.44491113887E+02  0.00000000000E+00 0.  1.
        -13    1    3    3    0    0  0.38817243805E+02  0.59368790669E+02 -0.26043745586E+03  0.26992424889E+03  0.00000000000E+00 0. -1.
         13    1    3    3    0    0  0.11039735890E+02 -0.32693310694E+02 -0.17021959864E+03  0.17368200855E+03  0.00000000000E+00 0.  1.
         21    1    1    2  503  502 -0.42222366833E+02 -0.42603864034E+02 -0.23245485204E+03  0.24006889788E+03  0.00000000000E+00 0. -1.
          2    1    1    2  501    0  0.11959308743E+02 -0.19875278676E+02  0.36655527066E+02  0.43378329066E+02  0.00000000000E+00 0. -1.
<scales pt_clust_5="13000.00000" pt_clust_6="13000.00000" pt_clust_7="13000.00000" pt_clust_8="13000.00000" pt_clust_9="60.66745" pt_clust_10="23.19594"></scales>
<clustering>
<clus scale="   23.196">  1 10  2 -1</clus>
<clus scale="   60.667">  2  9  1 -1</clus>
<clus scale="   90.132">  7  8 -1 -1</clus>
<clus scale="   93.099">  2  7  1 -1</clus>
<clus scale="   96.877">  5  6 -1 -1</clus>
<clus scale="   23.196">  1  5  2 -1</clus>
</clustering>
</event>
<event>
10    2  0.3544405E-006  0.2789745E+03  0.7546771E-02  0.1124468E+00
         21   -1    0    0  503  502  0.00000000000E+00  0.00000000000E+00  0.97416129338E+02  0.97416129338E+02  0.00000000000E+00 0. -1.
          2   -1    0    0  502    0 -0.00000000000E+00 -0.00000000000E+00 -0.13209370214E+04  0.13209370214E+04  0.00000000000E+00 0. -1.
         23    2    1    2    0    0 -0.72813736732E+02 -0.74982448911E+02 -0.15469697856E+03  0.20598535721E+03  0.87032202706E+02 0.  0.
         23    2    1    2    0    0 -0.17524219035E+03  0.19045933417E+03 -0.62101732699E+03  0.67905252734E+03  0.92006691119E+02 0.  0.
        -11    1    3    3    0    0 -0.76671096232E+02 -0.28517317788E+02 -0.63484180482E+02  0.10354677968E+03  0.00000000000E+00 0. -1.
         11    1    3    3    0    0  0.38573595001E+01 -0.46465131123E+02 -0.91212798078E+02  0.10243857753E+03  0.00000000000E+00 0.  1.
        -13    1    4    4    0    0  0.15492569380E+01  0.45661507389E+02 -0.11904814766E+03  0.12751405771E+03  0.00000000000E+00 0.  1.
         13    1    4    4    0    0 -0.17679144729E+03  0.14479782678E+03 -0.50196917934E+03  0.55153846963E+03  0.00000000000E+00 0. -1.
         21    1    1    2  503  501  0.82596537940E+01 -0.34817624251E+02 -0.70098778687E+02  0.78704050802E+02  0.00000000000E+00 0. -1.
          2    1    1    2  501    0  0.23979627329E+03 -0.80659261008E+02 -0.37770780785E+03  0.45461121541E+03  0.00000000000E+00 0. -1.
<scales pt_clust_5="13000.00000" pt_clust_6="13000.00000" pt_clust_7="13000.00000" pt_clust_8="13000.00000" pt_clust_9="35.73350" pt_clust_10="35.73350"></scales>
<clustering>
<clus scale="   35.734">  9 10 -1 -1</clus>
<clus scale="   87.032">  5  6 -1 -1</clus>
<clus scale="   92.007">  7  8 -1 -1</clus>
<clus scale="  136.010">  2  5  1 -1</clus>
<clus scale="  277.964">  2  7  1 -1</clus>
<clus scale="  278.974">  1  5  2 -1</clus>
</clustering>
</event>
<event>
10    2  0.3544405E-006  0.1238941E+03  0.7546771E-02  0.1238325E+00
         21   -1    0    0  501  502  0.00000000000E+00  0.00000000000E+00  0.33110583642E+03  0.33110583642E+03  0.00000000000E+00 0.  1.
          1   -1    0    0  503    0 -0.00000000000E+00 -0.00000000000E+00 -0.34892804043E+03  0.34892804043E+03  0.00000000000E+00 0. -1.
         23    2    1    2    0    0  0.82127501981E+02 -0.54961079881E+02 -0.20808642174E+03  0.24938910623E+03  0.95547477778E+02 0.  0.
         23    2    1    2    0    0 -0.22543248264E+01  0.46752927405E+02  0.98751169901E+02  0.14195417977E+03  0.90599544122E+02 0.  0.
        -11    1    3    3    0    0  0.46937354755E+02 -0.27759330145E+02 -0.19579073040E+03  0.20324297230E+03  0.00000000000E+00 0. -1.
         11    1    3    3    0    0  0.35190147227E+02 -0.27201749736E+02 -0.12295691341E+02  0.46146133924E+02  0.00000000000E+00 0.  1.
        -13    1    4    4    0    0 -0.30888592120E+02 -0.14489483936E+02  0.37915262626E+02  0.51006052660E+02  0.00000000000E+00 0.  1.
         13    1    4    4    0    0  0.28634267294E+02  0.61242411342E+02  0.60835907275E+02  0.90948127107E+02  0.00000000000E+00 0. -1.
         21    1    1    2  503  502 -0.21478287050E+02 -0.39939956605E+01 -0.92606079009E+02  0.95148067166E+02  0.00000000000E+00 0. -1.
          1    1    1    2  501    0 -0.58394890105E+02  0.12202148136E+02  0.18411912684E+03  0.19354252369E+03  0.00000000000E+00 0. -1.
<scales pt_clust_5="13000.00000" pt_clust_6="13000.00000" pt_clust_7="13000.00000" pt_clust_8="13000.00000" pt_clust_9="21.84648" pt_clust_10="60.02964"></scales>
<clustering>
<clus scale="   21.846">  2  9  1 -1</clus>
<clus scale="   60.030">  1 10  2 -1</clus>
<clus scale="   90.600">  7  8 -1 -1</clus>
<clus scale="   95.547">  5  6 -1 -1</clus>
<clus scale="  120.120">  1  7  2 -1</clus>
<clus scale="   60.030">  1  5  2 -1</clus>
</clustering>
</event>
<event>
10    2  0.3544405E-006  0.2202623E+03  0.7546771E-02  0.1133732E+00
          1   -1    0    0  503    0 -0.00000000000E+00  0.00000000000E+00  0.78460523301E+03  0.78460523301E+03  0.00000000000E+00 0. -1.
         21   -1    0    0  501  502  0.00000000000E+00 -0.00000000000E+00 -0.22282230223E+03  0.22282230223E+03  0.00000000000E+00 0. -1.
         23    2    1    2    0    0  0.16203446059E+03 -0.19295425723E+03  0.44870605210E+03  0.52258583593E+03  0.90952311221E+02 0.  0.
         23    2    1    2    0    0 -0.16570047333E+03  0.47315317400E+02  0.89252317838E+01  0.19532563842E+03  0.91526275671E+02 0.  0.
        -11    1    4    4    0    0 -0.20744863012E+02 -0.25195740120E+02  0.62109390480E+01  0.33222739584E+02  0.00000000000E+00 0.  1.
         11    1    4    4    0    0 -0.14495561032E+03  0.72511057520E+02  0.27142927359E+01  0.16210289883E+03  0.00000000000E+00 0. -1.
        -13    1    3    3    0    0  0.49853043092E+01 -0.53844091628E+02  0.59257931567E+02  0.80221829423E+02  0.00000000000E+00 0.  1.
         13    1    3    3    0    0  0.15704915628E+03 -0.13911016560E+03  0.38944812054E+03  0.44236400650E+03  0.00000000000E+00 0. -1.
         21    1    1    2  503  502 -0.77132317868E+01  0.61576886486E+02  0.17074364597E+03  0.18167168060E+03  0.00000000000E+00 0. -1.
          1    1    1    2  501    0  0.11379244530E+02  0.84062053344E+02 -0.66591999084E+02  0.10784438029E+03  0.00000000000E+00 0. -1.
<scales pt_clust_5="13000.00000" pt_clust_6="13000.00000" pt_clust_7="13000.00000" pt_clust_8="13000.00000" pt_clust_9="62.05809" pt_clust_10="86.86408"></scales>
<clustering>
<clus scale="   62.058">  1  9  2 -1</clus>
<clus scale="   86.864">  2 10  1 -1</clus>
<clus scale="   90.952">  7  8 -1 -1</clus>
<clus scale="   91.526">  5  6 -1 -1</clus>
<clus scale="  220.024">  1  7  2 -1</clus>
<clus scale="   86.864">  2  5  1 -1</clus>
</clustering>
</event>
<event>
10    2  0.3544405E-006  0.9145600E+02  0.7546771E-02  0.1300049E+00
         21   -1    0    0  501  502  0.00000000000E+00  0.00000000000E+00  0.15032468692E+03  0.15032468692E+03  0.00000000000E+00 0.  1.
          1   -1    0    0  503    0 -0.00000000000E+00 -0.00000000000E+00 -0.24901685743E+03  0.24901685743E+03  0.00000000000E+00 0. -1.
         23    2    1    2    0    0 -0.17021656432E+02  0.11531699165E+02 -0.58828512436E+02  0.10900257351E+03  0.89431819186E+02 0.  0.
         23    2    1    2    0    0 -0.62448485048E+01  0.36279695709E+02 -0.65074206984E+02  0.11745893789E+03  0.90591032787E+02 0.  0.
        -13    1    4    4    0    0  0.38037802145E+02  0.59938477810E+01 -0.83867145562E+01  0.39409866586E+02  0.00000000000E+00 0.  1.
         13    1    4    4    0    0 -0.44282650650E+02  0.30285847928E+02 -0.56687492428E+02  0.78049071301E+02  0.00000000000E+00 0. -1.
        -13    1    3    3    0    0 -0.67076264052E+01 -0.31373073118E+02 -0.56304675308E+02  0.64803382862E+02  0.00000000000E+00 0. -1.
         13    1    3    3    0    0 -0.10314030027E+02  0.42904772283E+02 -0.25238371278E+01  0.44199190647E+02  0.00000000000E+00 0.  1.
         21    1    1    2  503  502  0.48229336822E+02  0.16751185259E+02 -0.49443614181E+02  0.71072794522E+02  0.00000000000E+00 0. -1.
          1    1    1    2  501    0 -0.24962831885E+02 -0.64562580133E+02  0.74654163093E+02  0.10180723843E+03  0.00000000000E+00 0. -1.
<scales pt_clust_5="13000.00000" pt_clust_6="13000.00000" pt_clust_7="13000.00000" pt_clust_8="13000.00000" pt_clust_9="51.05557" pt_clust_10="66.90435"></scales>
<clustering>
<clus scale="   51.056">  2  9  1 -1</clus>
<clus scale="   66.904">  1 10  2 -1</clus>
<clus scale="   89.432">  7  8 -1 -1</clus>
<clus scale="   90.308">  2  7  1 -1</clus>
<clus scale="   90.591">  5  6 -1 -1</clus>
<clus scale="   66.904">  1  5  2 -1</clus>
</clustering>
</event>
<event>
10    2  0.3544405E-006  0.1208127E+03  0.7546771E-02  0.1242218E+00
         21   -1    0    0  501  502  0.00000000000E+00  0.00000000000E+00  0.46370396150E+02  0.46370396150E+02  0.00000000000E+00 0.  1.
          1   -1    0    0  503    0 -0.00000000000E+00 -0.00000000000E+00 -0.75343763328E+03  0.75343763328E+03  0.00000000000E+00 0. -1.
         23    2    1    2    0    0  0.42471248418E+02 -0.29560996336E+02 -0.28816709231E+03  0.30668825374E+03  0.91322245080E+02 0.  0.
         23    2    1    2    0    0 -0.10757738137E+03  0.54410393553E+02 -0.18580345623E+03  0.23901717369E+03  0.89849324222E+02 0.  0.
        -11    1    4    4    0    0 -0.38772630565E+02  0.49542132248E+02 -0.32277037398E+02  0.70707474087E+02  0.00000000000E+00 0.  1.
         11    1    4    4    0    0 -0.68804750803E+02  0.48682613054E+01 -0.15352641883E+03  0.16830969960E+03  0.00000000000E+00 0. -1.
        -13    1    3    3    0    0  0.21797624717E+02  0.31887778098E+02 -0.13367627094E+03  0.13914493253E+03  0.00000000000E+00 0.  1.
         13    1    3    3    0    0  0.20673623701E+02 -0.61448774434E+02 -0.15449082137E+03  0.16754332121E+03  0.00000000000E+00 0. -1.
         21    1    1    2  503  502  0.31896476491E+02  0.94421812667E+01 -0.17852804022E+03  0.18160066394E+03  0.00000000000E+00 0. -1.
          1    1    1    2  501    0  0.33209656459E+02 -0.34291578484E+02 -0.54568648382E+02  0.72501938066E+02  0.00000000000E+00 0. -1.
<scales pt_clust_5="13000.00000" pt_clust_6="13000.00000" pt_clust_7="13000.00000" pt_clust_8="13000.00000" pt_clust_9="33.26470" pt_clust_10="49.55177"></scales>
<clustering>
<clus scale="   33.265">  2  9  1 -1</clus>
<clus scale="   49.552">  1 10  2 -1</clus>
<clus scale="   89.849">  5  6 -1 -1</clus>
<clus scale="   91.322">  7  8 -1 -1</clus>
<clus scale="  119.703">  1  5  2 -1</clus>
<clus scale="   49.552">  1  5  2 -1</clus>
</clustering>
</event>
<event>
10    2  0.3544405E-006  0.9641009E+02  0.7546771E-02  0.1289157E+00
         21   -1    0    0  501  502  0.00000000000E+00  0.00000000000E+00  0.79752630124E+02  0.79752630124E+02  0.00000000000E+00 0. -1.
          2   -1    0    0  503    0 -0.00000000000E+00 -0.00000000000E+00 -0.41052533298E+03  0.41052533298E+03  0.00000000000E+00 0. -1.
         23    2    1    2    0    0 -0.21376579168E+02 -0.68867545134E+01 -0.19141902996E+03  0.21315948159E+03  0.91056762729E+02 0.  0.
         23    2    1    2    0    0  0.23170429622E+02  0.27676242983E+02 -0.94077924700E+02  0.13438795026E+03  0.88919188172E+02 0.  0.
        -11    1    4    4    0    0  0.38500871135E+02  0.42637833921E+02 -0.26071275065E+02  0.63087346933E+02  0.00000000000E+00 0.  1.
         11    1    4    4    0    0 -0.15330441513E+02 -0.14961590938E+02 -0.68006649636E+02  0.71300603329E+02  0.00000000000E+00 0. -1.
        -13    1    3    3    0    0  0.30832903786E+02  0.18063056837E+02 -0.66642104141E+02  0.75618199016E+02  0.00000000000E+00 0.  1.
         13    1    3    3    0    0 -0.52209482954E+02 -0.24949811350E+02 -0.12477692582E+03  0.13754128258E+03  0.00000000000E+00 0. -1.
         21    1    1    2  503  502 -0.21788215970E+02 -0.36017434091E+01 -0.88985083792E+02  0.91684480956E+02  0.00000000000E+00 0. -1.
          2    1    1    2  501    0  0.19994365516E+02 -0.17187745060E+02  0.43709335593E+02  0.51046050294E+02  0.00000000000E+00 0. -1.
<scales pt_clust_5="13000.00000" pt_clust_6="13000.00000" pt_clust_7="13000.00000" pt_clust_8="13000.00000" pt_clust_9="22.08391" pt_clust_10="26.20484"></scales>
<clustering>
<clus scale="   22.084">  2  9  1 -1</clus>
<clus scale="   26.205">  1 10  2 -1</clus>
<clus scale="   88.919">  5  6 -1 -1</clus>
<clus scale="   91.057">  7  8 -1 -1</clus>
<clus scale="   94.394">  1  5  2 -1</clus>
<clus scale="   26.205">  1  5  2 -1</clus>
</clustering>
</event>
<event>
10    2  0.3544405E-006  0.1359491E+03  0.7546771E-02  0.1219081E+00
          2   -1    0    0  503    0 -0.00000000000E+00  0.00000000000E+00  0.59698298520E+03  0.59698298520E+03  0.00000000000E+00 0. -1.
         21   -1    0    0  501  502  0.00000000000E+00 -0.00000000000E+00 -0.61029862943E+02  0.61029862943E+02  0.00000000000E+00 0. -1.
         23    2    1    2    0    0 -0.44981651060E+02  0.81760131479E+02  0.29431845883E+03  0.32217658649E+03  0.92012660232E+02 0.  0.
         23    2    1    2    0    0  0.59580090730E+02 -0.84182677301E+02  0.13381994482E+03  0.19198838481E+03  0.91188003068E+02 0.  0.
        -11    1    3    3    0    0 -0.50785018988E+02  0.52225486343E+01  0.15392135835E+03  0.16216712899E+03  0.00000000000E+00 0.  1.
         11    1    3    3    0    0  0.58033679274E+01  0.76537582844E+02  0.14039710047E+03  0.16000945750E+03  0.00000000000E+00 0. -1.
        -13    1    4    4    0    0  0.35637250503E+02  0.12228668396E+02  0.45402207264E+02  0.58999274390E+02  0.00000000000E+00 0. -1.
         13    1    4    4    0    0  0.23942840227E+02 -0.96411345697E+02  0.88417737551E+02  0.13298911042E+03  0.00000000000E+00 0.  1.
         21    1    1    2  503  502  0.11728904103E+02  0.20293404003E+02  0.10950290626E+03  0.11198337340E+03  0.00000000000E+00 0. -1.
          2    1    1    2  501    0 -0.26327343773E+02 -0.17870858181E+02 -0.16881876485E+01  0.31864503445E+02  0.00000000000E+00 0. -1.
<scales pt_clust_5="13000.00000" pt_clust_6="13000.00000" pt_clust_7="13000.00000" pt_clust_8="13000.00000" pt_clust_9="23.43906" pt_clust_10="31.16657"></scales>
<clustering>
<clus scale="   23.439">  1  9  2 -1</clus>
<clus scale="   31.167">  2 10  1 -1</clus>
<clus scale="   91.188">  7  8 -1 -1</clus>
<clus scale="   92.013">  5  6 -1 -1</clus>
<clus scale="  135.392">  2  7  1 -1</clus>
<clus scale="   31.167">  2  5  1 -1</clus>
</clustering>
</event>
<event>
10    2  0.3544405E-006  0.1400061E+03  0.7546771E-02  0.1213680E+00
         21   -1    0    0  503  502  0.00000000000E+00  0.00000000000E+00  0.26282353971E+03  0.26282353971E+03  0.00000000000E+00 0.  1.
         -1   -1    0    0    0  501 -0.00000000000E+00 -0.00000000000E+00 -0.33548445540E+03  0.33548445540E+03  0.00000000000E+00 0.  1.
         23    2    1    2    0    0  0.84741824901E+02  0.36363372609E+02 -0.77801042023E+02  0.15034441091E+03  0.89704893939E+02 0.  0.
         23    2    1    2    0    0 -0.77826194920E+02 -0.92184368340E+02  0.32865699206E+02  0.15484953378E+03  0.91341937490E+02 0.  0.
        -11    1    3    3    0    0  0.59638822064E+02  0.61647973324E+02 -0.30306793586E+02  0.90971223195E+02  0.00000000000E+00 0.  1.
         11    1    3    3    0    0  0.25103002838E+02 -0.25284600715E+02 -0.47494248437E+02  0.59373187714E+02  0.00000000000E+00 0. -1.
        -13    1    4    4    0    0 -0.19645967630E+02 -0.90927528407E+02  0.17445580714E+02  0.94647386403E+02  0.00000000000E+00 0.  1.
         13    1    4    4    0    0 -0.58180227290E+02 -0.12568399327E+01  0.15420118492E+02  0.60202147374E+02  0.00000000000E+00 0. -1.
         21    1    1    2  503  501  0.25068908919E+02  0.34839705337E+01 -0.15223067362E+03  0.15432033643E+03  0.00000000000E+00 0. -1.
         -1    1    1    2    0  502 -0.31984538900E+02  0.52337025197E+02  0.12450510074E+03  0.13879371400E+03  0.00000000000E+00 0.  1.
<scales pt_clust_5="13000.00000" pt_clust_6="13000.00000" pt_clust_7="13000.00000" pt_clust_8="13000.00000" pt_clust_9="25.30984" pt_clust_10="60.94736"></scales>
<clustering>
<clus scale="   25.310">  2  9  1 -1</clus>
<clus scale="   60.947">  1 10  2 -1</clus>
<clus scale="   89.705">  5  6 -1 -1</clus>
<clus scale="   91.342">  7  8 -1 -1</clus>
<clus scale="  138.944">  2  5  1 -1</clus>
<clus scale="   60.947">  1  5  2 -1</clus>
</clustering>
</event>
<event>
10    2  0.3544405E-006  0.1064293E+03  0.7546771E-02  0.1269255E+00
          1   -1    0    0  503    0 -0.00000000000E+00  0.00000000000E+00  0.81397543838E+03  0.81397543838E+03  0.00000000000E+00 0. -1.
         21   -1    0    0  501  502  0.00000000000E+00 -0.00000000000E+00 -0.45499246840E+02  0.45499246840E+02  0.00000000000E+00 0.  1.
         23    2    1    2    0    0 -0.21752528337E+02 -0.47997553383E+02  0.48938182854E+03  0.50160524616E+03  0.96624589241E+02 0.  0.
         23    2    1    2    0    0 -0.25415348646E+01  0.30680851999E+02  0.13250849154E+03  0.16439919763E+03  0.92308297420E+02 0.  0.
        -13    1    4    4    0    0  0.22954411450E+02 -0.21534076219E+02  0.80432391922E+02  0.86371240085E+02  0.00000000000E+00 0. -1.
         13    1    4    4    0    0 -0.25495946314E+02  0.52214928217E+02  0.52076099616E+02  0.78027957543E+02  0.00000000000E+00 0.  1.
        -13    1    3    3    0    0  0.21609701784E+02 -0.58827046695E+02  0.33810450336E+03  0.34386371694E+03  0.00000000000E+00 0. -1.
         13    1    3    3    0    0 -0.43362230120E+02  0.10829493311E+02  0.15127732518E+03  0.15774152922E+03  0.00000000000E+00 0.  1.
         21    1    1    2  503  502  0.22777770278E+02 -0.33125927387E+01  0.16450231875E+03  0.16610482523E+03  0.00000000000E+00 0. -1.
          1    1    1    2  501    0  0.15162929237E+01  0.20629294123E+02 -0.17916447294E+02  0.27365416202E+02  0.00000000000E+00 0. -1.
<scales pt_clust_5="13000.00000" pt_clust_6="13000.00000" pt_clust_7="13000.00000" pt_clust_8="13000.00000" pt_clust_9="22.97730" pt_clust_10="20.68494"></scales>
<clustering>
<clus scale="   20.685">  2 10  1 -1</clus>
<clus scale="   22.977">  1  9  2 -1</clus>
<clus scale="   92.308">  5  6 -1 -1</clus>
<clus scale="   96.625">  7  8 -1 -1</clus>
<clus scale="  102.527">  2  5  1 -1</clus>
<clus scale="   20.685">  2  5  1 -1</clus>
</clustering>
</event>
<event>
10    2  0.3544405E-006  0.9356256E+02  0.7546771E-02  0.1296212E+00
          1   -1    0    0  503    0 -0.00000000000E+00  0.00000000000E+00  0.14576023639E+03  0.14576023639E+03  0.00000000000E+00 0. -1.
         21   -1    0    0  501  502  0.00000000000E+00 -0.00000000000E+00 -0.24498008372E+03  0.24498008372E+03  0.00000000000E+00 0.  1.
         23    2    1    2    0    0 -0.28345188630E+02  0.13307772657E+01 -0.72838894422E+01  0.93199744234E+02  0.88475514089E+02 0.  0.
         23    2    1    2    0    0 -0.50568321691E+01 -0.27991878378E+02 -0.27081151163E+02  0.99628966156E+02  0.91561047080E+02 0.  0.
        -11    1    3    3    0    0 -0.47301545984E+02 -0.28246819897E+02 -0.15273815759E+02  0.57171745947E+02  0.00000000000E+00 0.  1.
         11    1    3    3    0    0  0.18956357354E+02  0.29577597163E+02  0.79899263169E+01  0.36027998287E+02  0.00000000000E+00 0. -1.
        -13    1    4    4    0    0 -0.78766214526E+01  0.29688789746E+02  0.84085307765E+01  0.31846016892E+02  0.00000000000E+00 0. -1.
         13    1    4    4    0    0  0.28197892835E+01 -0.57680668124E+02 -0.35489681939E+02  0.67782949264E+02  0.00000000000E+00 0.  1.
         21    1    1    2  503  502  0.13549333055E+02  0.18170403957E+02  0.63670796815E+02  0.67584897523E+02  0.00000000000E+00 0. -1.
          1    1    1    2  501    0  0.19852687744E+02  0.84906971558E+01 -0.12852560354E+03  0.13032671220E+03  0.00000000000E+00 0. -1.
<scales pt_clust_5="13000.00000" pt_clust_6="13000.00000" pt_clust_7="13000.00000" pt_clust_8="13000.00000" pt_clust_9="22.98301" pt_clust_10="21.59215"></scales>
<clustering>
<clus scale="   21.592">  2 10  1 -1</clus>
<clus scale="   22.983">  1  9  2 -1</clus>
<clus scale="   88.476">  5  6 -1 -1</clus>
<clus scale="   90.545">  1  5  2 -1</clus>
<clus scale="   91.561">  7  8 -1 -1</clus>
<clus scale="   21.592">  2  5  1 -1</clus>
</clustering>
</event>
<event>
10    2  0.3544405E-006  0.9615708E+02  0.7546771E-02  0.1289231E+00
          1   -1    0    0  503    0 -0.00000000000E+00  0.00000000000E+00  0.31208063237E+03  0.31208063237E+03  0.00000000000E+00 0. -1.
         21   -1    0    0  501  502  0.00000000000E+00 -0.00000000000E+00 -0.10995361840E+03  0.10995361840E+03  0.00000000000E+00 0.  1.
         23    2    1    2    0    0  0.12490472766E+02 -0.83257714078E+02  0.68182939797E+02  0.14145172965E+03  0.90949544689E+02 0.  0.
         23    2    1    2    0    0 -0.26115632875E+02 -0.29468069406E+02  0.28547876257E+02  0.10419447629E+03  0.92147242253E+02 0.  0.
        -11    1    3    3    0    0 -0.35707407960E+02 -0.43852755024E+02  0.12476900578E+02  0.57911623656E+02  0.00000000000E+00 0.  1.
         11    1    3    3    0    0  0.48197880726E+02 -0.39404959054E+02  0.55706039220E+02  0.83540105998E+02  0.00000000000E+00 0. -1.
        -13    1    4    4    0    0 -0.27859521243E+02  0.21826356929E+02 -0.13466519143E+02  0.37866738948E+02  0.00000000000E+00 0. -1.
         13    1    4    4    0    0  0.17438883685E+01 -0.51294426335E+02  0.42014395400E+02  0.66327737339E+02  0.00000000000E+00 0.  1.
         21    1    1    2  503  502  0.53191233019E+01  0.84367888777E+02  0.11725249000E+03  0.14454888495E+03  0.00000000000E+00 0. -1.
          1    1    1    2  501    0  0.83060368072E+01  0.28357894707E+02 -0.11856292083E+02  0.31839159876E+02  0.00000000000E+00 0. -1.
<scales pt_clust_5="13000.00000" pt_clust_6="13000.00000" pt_clust_7="13000.00000" pt_clust_8="13000.00000" pt_clust_9="89.00619" pt_clust_10="29.54929"></scales>
<clustering>
<clus scale="   29.549">  2 10  1 -1</clus>
<clus scale="   89.006">  1  9  2 -1</clus>
<clus scale="   90.950">  5  6 -1 -1</clus>
<clus scale="   92.147">  7  8 -1 -1</clus>
<clus scale="   95.010">  1  5  2 -1</clus>
<clus scale="   29.549">  2  5  1 -1</clus>
</clustering>
</event>
<event>
10    2  0.3544405E-006  0.1444389E+03  0.7546771E-02  0.1227079E+00
         -3   -1    0    0    0  501 -0.00000000000E+00  0.00000000000E+00  0.67509143128E+03  0.67509143128E+03  0.00000000000E+00 0.  1.
         21   -1    0    0  503  502  0.00000000000E+00 -0.00000000000E+00 -0.21016708575E+03  0.21016708575E+03  0.00000000000E+00 0.  1.
         23    2    1    2    0    0  0.23591464091E+02  0.17156247922E+02  0.25735388353E+03  0.27468577907E+03  0.91489681559E+02 0.  0.
         23    2    1    2    0    0 -0.87530296560E+02  0.33992980748E+02  0.12669941036E+02  0.13169760126E+03  0.91469422296E+02 0.  0.
        -11    1    4    4    0    0 -0.29906734362E+02 -0.26447283961E+02 -0.16560918211E+02  0.43221934259E+02  0.00000000000E+00 0.  1.
         11    1    4    4    0    0 -0.57623562199E+02  0.60440264709E+02  0.29230859248E+02  0.88475666999E+02  0.00000000000E+00 0. -1.
        -13    1    3    3    0    0  0.59528919296E+01  0.54136488291E+02  0.16173432122E+03  0.17065809957E+03  0.00000000000E+00 0.  1.
         13    1    3    3    0    0  0.17638572162E+02 -0.36980240369E+02  0.95619562312E+02  0.10402767950E+03  0.00000000000E+00 0. -1.
         21    1    1    2  503  501  0.89505825142E+02 -0.59058199894E+02  0.32697827385E+03  0.34411328843E+03  0.00000000000E+00 0.  1.
         -3    1    1    2    0  502 -0.25566992673E+02  0.79089712240E+01 -0.13207775289E+03  0.13476184826E+03  0.00000000000E+00 0.  1.
<scales pt_clust_5="13000.00000" pt_clust_6="13000.00000" pt_clust_7="13000.00000" pt_clust_8="13000.00000" pt_clust_9="111.78529" pt_clust_10="26.76234"></scales>
<clustering>
<clus scale="   26.762">  2 10  1 -1</clus>
<clus scale="   91.469">  5  6 -1 -1</clus>
<clus scale="   91.490">  7  8 -1 -1</clus>
<clus scale="   95.524">  1  7  2 -1</clus>
<clus scale="  111.785">  1  9  2 -1</clus>
<clus scale="   26.762">  2  5  1 -1</clus>
</clustering>
</event>
<event>
10    2  0.3544405E-006  0.1260861E+03  0.7546771E-02  0.1233384E+00
         21   -1    0    0  501  502  0.00000000000E+00  0.00000000000E+00  0.66488460424E+03  0.66488460424E+03  0.00000000000E+00 0. -1.
         -3   -1    0    0    0  501 -0.00000000000E+00 -0.00000000000E+00 -0.50343308755E+02  0.50343308755E+02  0.00000000000E+00 0.  1.
         23    2    1    2    0    0 -0.59444458538E+02  0.10548438501E+03  0.22101697618E+03  0.27069684081E+03  0.98831557393E+02 0.  0.
         23    2    1    2    0    0  0.23256929949E+02 -0.25596375733E+02  0.24433591809E+03  0.26582369112E+03  0.98823755507E+02 0.  0.
        -11    1    3    3    0    0 -0.14660131018E+02  0.96930604113E+02  0.19486571601E+03  0.21813552835E+03  0.00000000000E+00 0. -1.
         11    1    3    3    0    0 -0.44784327520E+02  0.85537808964E+01  0.26151260169E+02  0.52561312460E+02  0.00000000000E+00 0.  1.
        -11    1    4    4    0    0 -0.14383814471E+02 -0.50996783874E+02  0.17578307848E+03  0.18359536150E+03  0.00000000000E+00 0.  1.
         11    1    4    4    0    0  0.37640744420E+02  0.25400408141E+02  0.68552839608E+02  0.82228329622E+02  0.00000000000E+00 0. -1.
         21    1    1    2  503  502  0.33372703973E+02 -0.31159171262E+02  0.97241593259E+02  0.10742699281E+03  0.00000000000E+00 0. -1.
         -3    1    1    2    0  503  0.28148246156E+01 -0.48728838015E+02  0.51946807962E+02  0.71280388252E+02  0.00000000000E+00 0.  1.
<scales pt_clust_5="13000.00000" pt_clust_6="13000.00000" pt_clust_7="13000.00000" pt_clust_8="13000.00000" pt_clust_9="43.11795" pt_clust_10="98.38272"></scales>
<clustering>
<clus scale="   43.118">  9 10 -1 -1</clus>
<clus scale="   98.383">  1  9  2 -1</clus>
<clus scale="   98.824">  7  8 -1 -1</clus>
<clus scale="   98.832">  5  6 -1 -1</clus>
<clus scale="  126.080">  1  7  2 -1</clus>
<clus scale="   98.383">  1  5  2 -1</clus>
</clustering>
</event>
<event>
10    2  0.3544405E-006  0.9639692E+02  0.7546771E-02  0.1288684E+00
         21   -1    0    0  501  502  0.00000000000E+00  0.00000000000E+00  0.26332023523E+03  0.26332023523E+03  0.00000000000E+00 0.  1.
          2   -1    0    0  503    0 -0.00000000000E+00 -0.00000000000E+00 -0.20844186241E+03  0.20844186241E+03  0.00000000000E+00 0. -1.
         23    2    1    2    0    0 -0.30659423442E+02  0.28711636741E+02 -0.10793276338E+03  0.14732821056E+03  0.91059112049E+02 0.  0.
         23    2    1    2    0    0  0.24368561114E+02 -0.20050416907E+02  0.88710520999E+02  0.13016161372E+03  0.89870146105E+02 0.  0.
        -11    1    4    4    0    0  0.50948854993E+02  0.12207786749E+02  0.39609690798E+02  0.65679094752E+02  0.00000000000E+00 0.  1.
         11    1    4    4    0    0 -0.26580293879E+02 -0.32258203655E+02  0.49100830201E+02  0.64482518966E+02  0.00000000000E+00 0. -1.
        -13    1    3    3    0    0 -0.99845635405E+00  0.33302614479E+02  0.19943889743E+01  0.33377217284E+02  0.00000000000E+00 0.  1.
         13    1    3    3    0    0 -0.29660967088E+02 -0.45909777375E+01 -0.10992715235E+03  0.11395099328E+03  0.00000000000E+00 0. -1.
         21    1    1    2  503  502  0.53970853042E+02  0.75813685712E+01 -0.41284324972E+02  0.68371965131E+02  0.00000000000E+00 0.  1.
          2    1    1    2  501    0 -0.47679990713E+02 -0.16242588406E+02  0.11538494018E+03  0.12590030823E+03  0.00000000000E+00 0. -1.
<scales pt_clust_5="13000.00000" pt_clust_6="13000.00000" pt_clust_7="13000.00000" pt_clust_8="13000.00000" pt_clust_9="49.81227" pt_clust_10="50.37066"></scales>
<clustering>
<clus scale="   50.371">  1 10  2 -1</clus>
<clus scale="   49.812">  2  9  1 -1</clus>
<clus scale="   89.870">  5  6 -1 -1</clus>
<clus scale="   91.059">  7  8 -1 -1</clus>
<clus scale="   95.275">  1  5  2 -1</clus>
<clus scale="   50.371">  1  5  2 -1</clus>
</clustering>
</event>
<event>
10    2  0.3544405E-006  0.3350850E+03  0.7546771E-02  0.1069059E+00
         -1   -1    0    0    0  501 -0.00000000000E+00  0.00000000000E+00  0.24548451130E+03  0.24548451130E+03  0.00000000000E+00 0.  1.
         21   -1    0    0  503  502  0.00000000000E+00 -0.00000000000E+00 -0.10540164820E+04  0.10540164820E+04  0.00000000000E+00 0.  1.
         23    2    1    2    0    0 -0.23884340341E+03 -0.19713131961E+03 -0.28277601018E+03  0.42694551465E+03  0.80082907175E+02 0.  0.
         23    2    1    2    0    0  0.23873749388E+03  0.22519121769E+03 -0.48390721843E+03  0.59094064803E+03  0.85661998240E+02 0.  0.
        -11    1    3    3    0    0 -0.11565988917E+03 -0.10988697013E+03 -0.19639234843E+03  0.25302630434E+03  0.00000000000E+00 0.  1.
         11    1    3    3    0    0 -0.12318351424E+03 -0.87244349480E+02 -0.86383661757E+02  0.17391921031E+03  0.00000000000E+00 0. -1.
        -13    1    4    4    0    0  0.13975610310E+03  0.16941882411E+03 -0.26392738118E+03  0.34335429057E+03  0.00000000000E+00 0.  1.
         13    1    4    4    0    0  0.98981390776E+02  0.55772393580E+02 -0.21997983724E+03  0.24758635746E+03  0.00000000000E+00 0. -1.
         21    1    1    2  503  501 -0.80688390491E+02 -0.13965816234E+02  0.92919086564E+02  0.12385320759E+03  0.00000000000E+00 0.  1.
         -1    1    1    2    0  502  0.80794300026E+02 -0.14094081847E+02 -0.13476782869E+03  0.15776162306E+03  0.00000000000E+00 0.  1.
<scales pt_clust_5="13000.00000" pt_clust_6="13000.00000" pt_clust_7="13000.00000" pt_clust_8="13000.00000" pt_clust_9="81.88810" pt_clust_10="75.58540"></scales>
<clustering>
<clus scale="   80.083">  5  6 -1 -1</clus>
<clus scale="   81.888">  1  9  2 -1</clus>
<clus scale="   75.585">  2 10  1 -1</clus>
<clus scale="   85.662">  7  8 -1 -1</clus>
<clus scale="  333.702">  1  5  2 -1</clus>
<clus scale="   75.585">  2  5  1 -1</clus>
</clustering>
</event>
<event>
10    2  0.3544405E-006  0.1716139E+03  0.7546771E-02  0.1176183E+00
         -3   -1    0    0    0  501 -0.00000000000E+00  0.00000000000E+00  0.61237268569E+03  0.61237268569E+03  0.00000000000E+00 0.  1.
         21   -1    0    0  503  502  0.00000000000E+00 -0.00000000000E+00 -0.44148823829E+03  0.44148823829E+03  0.00000000000E+00 0. -1.
         23    2    1    2    0    0 -0.14012043449E+02  0.10898895914E+03  0.22689690461E+03  0.26837430019E+03  0.92019721290E+02 0.  0.
         23    2    1    2    0    0  0.90087020376E+02 -0.71769784712E+02 -0.32088977661E+03  0.35312077862E+03  0.91964462266E+02 0.  0.
        -11    1    4    4    0    0  0.23727681078E+02 -0.72174981688E+02 -0.12480632931E+03  0.14611245897E+03  0.00000000000E+00 0.  1.
         11    1    4    4    0    0  0.66359339298E+02  0.40519697621E+00 -0.19608344731E+03  0.20700831965E+03  0.00000000000E+00 0. -1.
        -13    1    3    3    0    0  0.27957487361E+02  0.88829153877E+02  0.12094385429E+03  0.15264224700E+03  0.00000000000E+00 0. -1.
         13    1    3    3    0    0 -0.41969530810E+02  0.20159805264E+02  0.10595305032E+03  0.11573205319E+03  0.00000000000E+00 0.  1.
         21    1    1    2  503  501 -0.45855591370E+02  0.35331166977E+02  0.32706335603E+03  0.33214675292E+03  0.00000000000E+00 0.  1.
         -3    1    1    2    0  502 -0.30219385557E+02 -0.72550341407E+02 -0.62186036621E+02  0.10021909225E+03  0.00000000000E+00 0.  1.
<scales pt_clust_5="13000.00000" pt_clust_6="13000.00000" pt_clust_7="13000.00000" pt_clust_8="13000.00000" pt_clust_9="57.88805" pt_clust_10="77.67583"></scales>
<clustering>
<clus scale="   57.888">  1  9  2 -1</clus>
<clus scale="   77.676">  2 10  1 -1</clus>
<clus scale="   91.964">  5  6 -1 -1</clus>
<clus scale="   92.020">  7  8 -1 -1</clus>
<clus scale="  171.584">  2  5  1 -1</clus>
<clus scale="   77.676">  2  5  1 -1</clus>
</clustering>
</event>
<event>
10    2  0.3544405E-006  0.1007628E+03  0.7546771E-02  0.1280070E+00
          2   -1    0    0  503    0 -0.00000000000E+00  0.00000000000E+00  0.29074150658E+03  0.29074150658E+03  0.00000000000E+00 0. -1.
         21   -1    0    0  501  502  0.00000000000E+00 -0.00000000000E+00 -0.12127412198E+03  0.12127412198E+03  0.00000000000E+00 0.  1.
         23    2    1    2    0    0  0.16485637671E+02  0.40893448716E+02  0.17673066842E+03  0.20280522506E+03  0.89174995108E+02 0.  0.
         23    2    1    2    0    0 -0.37155941416E+02 -0.78785256449E+01 -0.45310289419E+02  0.10938175821E+03  0.92025602701E+02 0.  0.
        -13    1    3    3    0    0  0.35629323171E+02  0.61175334734E+02  0.13771869523E+03  0.15484931148E+03  0.00000000000E+00 0. -1.
         13    1    3    3    0    0 -0.19143685499E+02 -0.20281886018E+02  0.39011973194E+02  0.47955913582E+02  0.00000000000E+00 0.  1.
        -13    1    4    4    0    0 -0.28858462544E+02 -0.42621765216E+02 -0.51858035135E+02  0.73066281817E+02  0.00000000000E+00 0.  1.
         13    1    4    4    0    0 -0.82974788726E+01  0.34743239571E+02  0.65477457164E+01  0.36315476391E+02  0.00000000000E+00 0. -1.
         21    1    1    2  503  502  0.33253863435E+02 -0.56418829738E+02  0.30231708105E+02  0.72130853020E+02  0.00000000000E+00 0. -1.
          2    1    1    2  501    0 -0.12583559689E+02  0.23403906667E+02  0.78152974932E+01  0.27697792270E+02  0.00000000000E+00 0. -1.
<scales pt_clust_5="13000.00000" pt_clust_6="13000.00000" pt_clust_7="13000.00000" pt_clust_8="13000.00000" pt_clust_9="60.49376" pt_clust_10="26.57233"></scales>
<clustering>
<clus scale="   26.572">  2 10  1 -1</clus>
<clus scale="   60.494">  2  9  1 -1</clus>
<clus scale="   89.175">  5  6 -1 -1</clus>
<clus scale="   92.026">  7  8 -1 -1</clus>
<clus scale="   98.166">  1  5  2 -1</clus>
<clus scale="   26.572">  2  5  1 -1</clus>
</clustering>
</event>
<event>
10    2  0.3544405E-006  0.1365637E+03  0.7546771E-02  0.1218135E+00
         21   -1    0    0  501  502  0.00000000000E+00  0.00000000000E+00  0.38460846029E+03  0.38460846029E+03  0.00000000000E+00 0. -1.
          2   -1    0    0  503    0 -0.00000000000E+00 -0.00000000000E+00 -0.61645834982E+03  0.61645834982E+03  0.00000000000E+00 0. -1.
         23    2    1    2    0    0  0.81510523974E+02 -0.34609184691E+02 -0.52771596112E+03  0.54226769515E+03  0.87911070980E+02 0.  0.
         23    2    1    2    0    0 -0.13852883320E+03  0.68179264423E+02  0.32683824360E+03  0.37212019904E+03  0.88383003605E+02 0.  0.
        -11    1    3    3    0    0 -0.87758080927E+01 -0.21100207744E+02 -0.39882055129E+02  0.45965333631E+02  0.00000000000E+00 0.  1.
         11    1    3    3    0    0  0.90286332067E+02 -0.13508976947E+02 -0.48783390599E+03  0.49630236152E+03  0.00000000000E+00 0. -1.
        -13    1    4    4    0    0 -0.61552249758E+02  0.78884355786E+02  0.17685422781E+03  0.20319655246E+03  0.00000000000E+00 0.  1.
         13    1    4    4    0    0 -0.76976583444E+02 -0.10705091363E+02  0.14998401579E+03  0.16892364658E+03  0.00000000000E+00 0. -1.
         21    1    1    2  503  502  0.34275587960E+01 -0.24887288316E+02 -0.17873204054E+02  0.30831423940E+02  0.00000000000E+00 0. -1.
          2    1    1    2  501    0  0.53590750433E+02 -0.86827914159E+01 -0.13098967957E+02  0.55847491978E+02  0.00000000000E+00 0. -1.
<scales pt_clust_5="13000.00000" pt_clust_6="13000.00000" pt_clust_7="13000.00000" pt_clust_8="13000.00000" pt_clust_9="25.12221" pt_clust_10="54.73621"></scales>
<clustering>
<clus scale="   25.122">  2  9  1 -1</clus>
<clus scale="   54.736">  1 10  2 -1</clus>
<clus scale="   87.911">  5  6 -1 -1</clus>
<clus scale="   88.383">  7  8 -1 -1</clus>
<clus scale="  136.259">  2  5  1 -1</clus>
<clus scale="   54.736">  1  5  2 -1</clus>
</clustering>
</event>
<event>
10    2  0.3544405E-006  0.1021577E+03  0.7546771E-02  0.1277633E+00
         21   -1    0    0  501  502  0.00000000000E+00  0.00000000000E+00  0.13032649996E+03  0.13032649996E+03  0.00000000000E+00 0.  1.
          3   -1    0    0  503    0 -0.00000000000E+00 -0.00000000000E+00 -0.17451706346E+03  0.17451706346E+03  0.00000000000E+00 0. -1.
         23    2    1    2    0    0  0.48618977987E+02  0.56169104140E+01 -0.52844256065E+02  0.11611661338E+03  0.91077976483E+02 0.  0.
         23    2    1    2    0    0 -0.35489238158E+02  0.22333818900E+02  0.11409379967E+02  0.10431599988E+03  0.94833371701E+02 0.  0.
        -11    1    3    3    0    0 -0.17430186949E+02 -0.15369508088E+02  0.72962805238E+01  0.24357112009E+02  0.00000000000E+00 0.  1.
         11    1    3    3    0    0  0.66049164936E+02  0.20986418502E+02 -0.60140536589E+02  0.91759501369E+02  0.00000000000E+00 0. -1.
        -13    1    4    4    0    0 -0.38862084206E+01 -0.28970626425E+02 -0.20909607424E+02  0.35938996841E+02  0.00000000000E+00 0.  1.
         13    1    4    4    0    0 -0.31603029737E+02  0.51304445325E+02  0.32318987391E+02  0.68377003040E+02  0.00000000000E+00 0. -1.
         21    1    1    2  503  502 -0.21716375761E+02 -0.39700424396E+01 -0.36182342236E+02  0.42385423236E+02  0.00000000000E+00 0.  1.
          3    1    1    2  501    0  0.85866359321E+01 -0.23980686874E+02  0.33426654841E+02  0.42025526927E+02  0.00000000000E+00 0. -1.
<scales pt_clust_5="13000.00000" pt_clust_6="13000.00000" pt_clust_7="13000.00000" pt_clust_8="13000.00000" pt_clust_9="22.07628" pt_clust_10="25.36717"></scales>
<clustering>
<clus scale="   22.076">  2  9  1 -1</clus>
<clus scale="   25.367">  1 10  2 -1</clus>
<clus scale="   91.078">  5  6 -1 -1</clus>
<clus scale="   94.833">  7  8 -1 -1</clus>
<clus scale="   98.681">  2  5  1 -1</clus>
<clus scale="   25.367">  1  5  2 -1</clus>
</clustering>
</event>
<event>
10    2  0.3544405E-006  0.1069667E+03  0.7546771E-02  0.1266529E+00
         -1   -1    0    0    0  501 -0.00000000000E+00  0.00000000000E+00  0.40241957576E+03  0.40241957576E+03  0.00000000000E+00 0.  1.
         21   -1    0    0  503  502  0.00000000000E+00 -0.00000000000E+00 -0.81927550409E+02  0.81927550409E+02  0.00000000000E+00 0. -1.
         23    2    1    2    0    0  0.11690105203E+02 -0.44114373201E+02  0.23115611528E+03  0.25335536099E+03  0.93129226493E+02 0.  0.
         23    2    1    2    0    0 -0.26132703724E+02  0.37042046709E+02  0.96558588833E+02  0.14197375934E+03  0.93690745724E+02 0.  0.
        -11    1    4    4    0    0 -0.31400522388E+02  0.10990950449E+02  0.10802176946E+03  0.11302874181E+03  0.00000000000E+00 0.  1.
         11    1    4    4    0    0  0.52678186636E+01  0.26051096260E+02 -0.11463180622E+02  0.28945017530E+02  0.00000000000E+00 0. -1.
        -13    1    3    3    0    0 -0.31865284745E+02 -0.38133801570E+02  0.67025395414E+02  0.83438521226E+02  0.00000000000E+00 0.  1.
         13    1    3    3    0    0  0.43555389948E+02 -0.59805716312E+01  0.16413071987E+03  0.16991683976E+03  0.00000000000E+00 0. -1.
         21    1    1    2  503  501  0.11929117463E+02 -0.24385405133E+02  0.29839486950E+02  0.40340386815E+02  0.00000000000E+00 0. -1.
         -1    1    1    2    0  502  0.25134810588E+01  0.31457731626E+02 -0.37062165719E+02  0.48677619024E+02  0.00000000000E+00 0.  1.
<scales pt_clust_5="13000.00000" pt_clust_6="13000.00000" pt_clust_7="13000.00000" pt_clust_8="13000.00000" pt_clust_9="27.14686" pt_clust_10="31.18945"></scales>
<clustering>
<clus scale="   27.147">  1  9  2 -1</clus>
<clus scale="   31.189">  2 10  1 -1</clus>
<clus scale="   93.129">  7  8 -1 -1</clus>
<clus scale="   93.691">  5  6 -1 -1</clus>
<clus scale="  106.475">  1  7  2 -1</clus>
<clus scale="   31.189">  2  5  1 -1</clus>
</clustering>
</event>
<event>
10    2  0.3544405E-006  0.9656128E+02  0.7546771E-02  0.1288671E+00
          2   -1    0    0  503    0 -0.00000000000E+00  0.00000000000E+00  0.55385072781E+03  0.55385072781E+03  0.00000000000E+00 0. -1.
         21   -1    0    0  501  502  0.00000000000E+00 -0.00000000000E+00 -0.14525046697E+03  0.14525046697E+03  0.00000000000E+00 0. -1.
         23    2    1    2    0    0  0.37798826271E+02 -0.90448416366E+00  0.34637945406E+03  0.35982875295E+03  0.89824472667E+02 0.  0.
         23    2    1    2    0    0 -0.75053204486E+01 -0.26829515899E+02  0.14204250813E+03  0.17133410080E+03  0.91668681804E+02 0.  0.
        -13    1    4    4    0    0  0.55724729950E+01 -0.59934293364E+02  0.87495086514E+02  0.10620057505E+03  0.00000000000E+00 0. -1.
         13    1    4    4    0    0 -0.13077793444E+02  0.33104777465E+02  0.54547421619E+02  0.65133525757E+02  0.00000000000E+00 0.  1.
        -13    1    3    3    0    0  0.20231259449E+01 -0.42145757547E+02  0.17214753358E+03  0.17724314157E+03  0.00000000000E+00 0.  1.
         13    1    3    3    0    0  0.35775700326E+02  0.41241273383E+02  0.17423192049E+03  0.18258561137E+03  0.00000000000E+00 0. -1.
         21    1    1    2  503  502 -0.41201217123E+01  0.23664098899E+02  0.39216892279E+02  0.45988363959E+02  0.00000000000E+00 0.  1.
          2    1    1    2  501    0 -0.26173384110E+02  0.40699011629E+01 -0.11903859364E+03  0.12194997706E+03  0.00000000000E+00 0. -1.
<scales pt_clust_5="13000.00000" pt_clust_6="13000.00000" pt_clust_7="13000.00000" pt_clust_8="13000.00000" pt_clust_9="24.02010" pt_clust_10="26.50995"></scales>
<clustering>
<clus scale="   24.020">  1  9  2 -1</clus>
<clus scale="   26.510">  2 10  1 -1</clus>
<clus scale="   89.824">  7  8 -1 -1</clus>
<clus scale="   91.669">  5  6 -1 -1</clus>
<clus scale="   94.812">  1  7  2 -1</clus>
<clus scale="   26.510">  2  5  1 -1</clus>
</clustering>
</event>
<event>
10    2  0.3544405E-006  0.1075612E+03  0.7546771E-02  0.1265373E+00
          2   -1    0    0  503    0 -0.00000000000E+00  0.00000000000E+00  0.76254405067E+03  0.76254405067E+03  0.00000000000E+00 0. -1.
         21   -1    0    0  501  502  0.00000000000E+00 -0.00000000000E+00 -0.63006983262E+02  0.63006983262E+02  0.00000000000E+00 0.  1.
         23    2    1    2    0    0 -0.53700940562E+01  0.70931068138E+02  0.46695568586E+03  0.48103193955E+03  0.91016811442E+02 0.  0.
         23    2    1    2    0    0  0.24830066434E+02 -0.49538257876E+02  0.93425939427E+02  0.14206077684E+03  0.91554830383E+02 0.  0.
        -13    1    3    3    0    0 -0.25291334019E+02  0.84066065928E+02  0.40975688481E+03  0.41905543746E+03  0.00000000000E+00 0. -1.
         13    1    3    3    0    0  0.19921239963E+02 -0.13134997790E+02  0.57198801056E+02  0.61976502086E+02  0.00000000000E+00 0.  1.
        -13    1    4    4    0    0 -0.31514656694E+02 -0.71869742555E+01  0.12285041952E+02  0.34579595736E+02  0.00000000000E+00 0. -1.
         13    1    4    4    0    0  0.56344723128E+02 -0.42351283620E+02  0.81140897475E+02  0.10748118110E+03  0.00000000000E+00 0.  1.
         21    1    1    2  503  502  0.13593761432E+02 -0.17174663668E+02  0.16108535255E+03  0.16256767891E+03  0.00000000000E+00 0.  1.
          2    1    1    2  501    0 -0.33053733810E+02 -0.42181465940E+01 -0.21929910427E+02  0.39890638636E+02  0.00000000000E+00 0. -1.
<scales pt_clust_5="13000.00000" pt_clust_6="13000.00000" pt_clust_7="13000.00000" pt_clust_8="13000.00000" pt_clust_9="21.90341" pt_clust_10="33.15390"></scales>
<clustering>
<clus scale="   21.903">  1  9  2 -1</clus>
<clus scale="   33.154">  2 10  1 -1</clus>
<clus scale="   91.017">  5  6 -1 -1</clus>
<clus scale="   91.555">  7  8 -1 -1</clus>
<clus scale="  107.104">  1  5  2 -1</clus>
<clus scale="   33.154">  2  5  1 -1</clus>
</clustering>
</event>
<event>
10    2  0.3544405E-006  0.1333058E+03  0.7546771E-02  0.1227119E+00
         21   -1    0    0  501  502  0.00000000000E+00  0.00000000000E+00  0.25239828465E+03  0.25239828465E+03  0.00000000000E+00 0. -1.
          2   -1    0    0  503    0 -0.00000000000E+00 -0.00000000000E+00 -0.55209139223E+03  0.55209139223E+03  0.00000000000E+00 0. -1.
         23    2    1    2    0    0 -0.51804443429E+02 -0.26290780290E+01 -0.34113203852E+03  0.35661584133E+03  0.90073182321E+02 0.  0.
         23    2    1    2    0    0  0.83130848678E+02 -0.14007790709E+03 -0.18264813660E+02  0.17874508607E+03  0.71299679669E+02 0.  0.
        -13    1    3    3    0    0 -0.74041520118E+02 -0.18583327906E+02 -0.24017323469E+03  0.25201323266E+03  0.00000000000E+00 0. -1.
         13    1    3    3    0    0  0.22237076688E+02  0.15954249877E+02 -0.10095880383E+03  0.10460260867E+03  0.00000000000E+00 0.  1.
        -13    1    4    4    0    0  0.12801702138E+02 -0.18229183799E+02  0.23111008854E+02  0.32098371452E+02  0.00000000000E+00 0.  1.
         13    1    4    4    0    0  0.70329146540E+02 -0.12184872329E+03 -0.41375822514E+02  0.14664671462E+03  0.00000000000E+00 0. -1.
         21    1    1    2  503  502  0.49162092243E+01  0.84045334769E+02 -0.78226726035E+02  0.11492261777E+03  0.00000000000E+00 0. -1.
          2    1    1    2  501    0 -0.36242614473E+02  0.58661650349E+02  0.13793047064E+03  0.15420613171E+03  0.00000000000E+00 0. -1.
<scales pt_clust_5="13000.00000" pt_clust_6="13000.00000" pt_clust_7="13000.00000" pt_clust_8="13000.00000" pt_clust_9="94.17729" pt_clust_10="68.95445"></scales>
<clustering>
<clus scale="   68.954">  1 10  2 -1</clus>
<clus scale="   71.300">  7  8 -1 -1</clus>
<clus scale="   90.073">  5  6 -1 -1</clus>
<clus scale="   94.177">  2  9  1 -1</clus>
<clus scale="  121.412">  1  7  2 -1</clus>
<clus scale="   68.954">  1  5  2 -1</clus>
</clustering>
</event>
<event>
10    2  0.3544405E-006  0.1489678E+03  0.7546771E-02  0.1203492E+00
         -4   -1    0    0    0  501 -0.00000000000E+00  0.00000000000E+00  0.30116557846E+03  0.30116557846E+03  0.00000000000E+00 0.  1.
         21   -1    0    0  503  502  0.00000000000E+00 -0.00000000000E+00 -0.21394084939E+03  0.21394084939E+03  0.00000000000E+00 0.  1.
         23    2    1    2    0    0  0.54155091539E+02  0.69678739191E+02  0.10384157257E+03  0.16441526609E+03  0.91985905966E+02 0.  0.
         23    2    1    2    0    0 -0.63651273445E+02 -0.12391537639E+03 -0.12038821097E+03  0.20969923744E+03  0.10036903768E+03 0.  0.
        -11    1    3    3    0    0  0.19319578552E+02  0.74590552503E+02  0.10375309548E+03  0.12923506281E+03  0.00000000000E+00 0.  1.
         11    1    3    3    0    0  0.34835512987E+02 -0.49118133116E+01  0.88477093155E-01  0.35180203286E+02  0.00000000000E+00 0. -1.
        -13    1    4    4    0    0 -0.88866132944E+02 -0.74902351514E+02 -0.87895885750E+02  0.14571629483E+03  0.00000000000E+00 0.  1.
         13    1    4    4    0    0  0.25214859499E+02 -0.49013024878E+02 -0.32492325225E+02  0.63982942616E+02  0.00000000000E+00 0. -1.
         21    1    1    2  503  501 -0.51639432859E+01  0.30643869656E+02  0.10845847834E+03  0.11282266874E+03  0.00000000000E+00 0.  1.
         -4    1    1    2    0  502  0.14660125192E+02  0.23592767544E+02 -0.46871108640E+01  0.28169255569E+02  0.00000000000E+00 0.  1.
<scales pt_clust_5="13000.00000" pt_clust_6="13000.00000" pt_clust_7="13000.00000" pt_clust_8="13000.00000" pt_clust_9="31.30669" pt_clust_10="27.77657"></scales>
<clustering>
<clus scale="   27.777">  2 10  1 -1</clus>
<clus scale="   31.307">  1  9  2 -1</clus>
<clus scale="   91.986">  5  6 -1 -1</clus>
<clus scale="  100.369">  7  8 -1 -1</clus>
<clus scale="  143.453">  1  5  2 -1</clus>
<clus scale="   27.777">  2  5  1 -1</clus>
</clustering>
</event>
<event>
10    2  0.3544405E-006  0.9931960E+02  0.7546771E-02  0.1284109E+00
         21   -1    0    0  503  502  0.00000000000E+00  0.00000000000E+00  0.50626653197E+03  0.50626653197E+03  0.00000000000E+00 0.  1.
         -2   -1    0    0    0  501 -0.00000000000E+00 -0.00000000000E+00 -0.10988689194E+03  0.10988689194E+03  0.00000000000E+00 0.  1.
         23    2    1    2    0    0 -0.22499936460E+01 -0.78950020589E+01 -0.17584485271E+01  0.90439941664E+02  0.90049416311E+02 0.  0.
         23    2    1    2    0    0  0.43884417072E+02  0.32974450256E+02  0.28388643859E+03  0.30424108257E+03  0.94646552381E+02 0.  0.
        -13    1    3    3    0    0 -0.11194347174E+02  0.32934576147E+02  0.23148950726E+02  0.41783652717E+02  0.00000000000E+00 0.  1.
         13    1    3    3    0    0  0.89443535279E+01 -0.40829578206E+02 -0.24907399253E+02  0.48656288947E+02  0.00000000000E+00 0. -1.
        -13    1    4    4    0    0 -0.22751658606E+02  0.22642000760E+02  0.40452135748E+02  0.51639843670E+02  0.00000000000E+00 0.  1.
         13    1    4    4    0    0  0.66636075678E+02  0.10332449496E+02  0.24343430284E+03  0.25260123890E+03  0.00000000000E+00 0. -1.
         21    1    1    2  503  501 -0.12068914984E+02 -0.20632879702E+02 -0.49523568257E+02  0.54990528698E+02  0.00000000000E+00 0.  1.
         -2    1    1    2    0  502 -0.29565508443E+02 -0.44465684948E+01  0.16377521822E+03  0.16648187098E+03  0.00000000000E+00 0.  1.
<scales pt_clust_5="13000.00000" pt_clust_6="13000.00000" pt_clust_7="13000.00000" pt_clust_8="13000.00000" pt_clust_9="23.90344" pt_clust_10="30.25349"></scales>
<clustering>
<clus scale="   23.903">  2  9  1 -1</clus>
<clus scale="   30.253">  1 10  2 -1</clus>
<clus scale="   90.049">  5  6 -1 -1</clus>
<clus scale="   94.647">  7  8 -1 -1</clus>
<clus scale="   94.949">  2  5  1 -1</clus>
<clus scale="   30.253">  1  5  2 -1</clus>
</clustering>
</event>
<event>
10    2  0.3544405E-006  0.1218140E+03  0.7546771E-02  0.1240501E+00
         21   -1    0    0  501  502  0.00000000000E+00  0.00000000000E+00  0.47226102353E+03  0.47226102353E+03  0.00000000000E+00 0. -1.
          2   -1    0    0  503    0 -0.00000000000E+00 -0.00000000000E+00 -0.97458862860E+02  0.97458862860E+02  0.00000000000E+00 0. -1.
         23    2    1    2    0    0  0.10846384648E+03  0.20620805585E+02  0.11829368458E+03  0.18613910679E+03  0.92004063220E+02 0.  0.
         23    2    1    2    0    0 -0.39373940913E+02 -0.31101272323E+02  0.21017378188E+03  0.23438398125E+03  0.90803280300E+02 0.  0.
        -13    1    3    3    0    0  0.10035778764E+03  0.48687890462E+02  0.10772905850E+03  0.15507335768E+03  0.00000000000E+00 0. -1.
         13    1    3    3    0    0  0.81060588385E+01 -0.28067084877E+02  0.10564626082E+02  0.31065749108E+02  0.00000000000E+00 0.  1.
        -13    1    4    4    0    0 -0.25711705699E+02  0.20773326666E+02  0.15073926375E+03  0.15432092712E+03  0.00000000000E+00 0.  1.
         13    1    4    4    0    0 -0.13662235214E+02 -0.51874598989E+02  0.59434518129E+02  0.80063054130E+02  0.00000000000E+00 0. -1.
         21    1    1    2  503  502 -0.18588693411E+02 -0.15615769526E+02 -0.39429521799E+02  0.46304200349E+02  0.00000000000E+00 0. -1.
          2    1    1    2  501    0 -0.50501212154E+02  0.26096236265E+02  0.85764216009E+02  0.10289259800E+03  0.00000000000E+00 0. -1.
<scales pt_clust_5="13000.00000" pt_clust_6="13000.00000" pt_clust_7="13000.00000" pt_clust_8="13000.00000" pt_clust_9="24.27739" pt_clust_10="58.41719"></scales>
<clustering>
<clus scale="   24.277">  2  9  1 -1</clus>
<clus scale="   58.417">  1 10  2 -1</clus>
<clus scale="   90.803">  7  8 -1 -1</clus>
<clus scale="   92.004">  5  6 -1 -1</clus>
<clus scale="  120.910">  1  7  2 -1</clus>
<clus scale="   58.417">  1  5  2 -1</clus>
</clustering>
</event>
<event>
10    2  0.3544405E-006  0.9363056E+02  0.7546771E-02  0.1295624E+00
         21   -1    0    0  503  502  0.00000000000E+00  0.00000000000E+00  0.17263205316E+03  0.17263205316E+03  0.00000000000E+00 0. -1.
         -1   -1    0    0    0  501 -0.00000000000E+00 -0.00000000000E+00 -0.11441358041E+03  0.11441358041E+03  0.00000000000E+00 0.  1.
         23    2    1    2    0    0 -0.24332425522E+02  0.14222299037E+02 -0.13695871169E+02  0.94837352055E+02  0.89510925233E+02 0.  0.
         23    2    1    2    0    0  0.10102745145E+02 -0.18079484136E+01  0.74172628470E+02  0.11850354466E+03  0.91848664367E+02 0.  0.
        -11    1    4    4    0    0 -0.11869464873E+02 -0.35310105226E+02  0.36956113625E+01  0.37434546489E+02  0.00000000000E+00 0.  1.
         11    1    4    4    0    0  0.21972210018E+02  0.33502156813E+02  0.70477017108E+02  0.81068998172E+02  0.00000000000E+00 0. -1.
        -13    1    3    3    0    0  0.23154526671E+02  0.24146251110E+02  0.16901880279E+02  0.37481290066E+02  0.00000000000E+00 0. -1.
         13    1    3    3    0    0 -0.47486952193E+02 -0.99239520723E+01 -0.30597751447E+02  0.57356061990E+02  0.00000000000E+00 0.  1.
         21    1    1    2  503  501  0.20970029295E+02  0.83980458181E+01 -0.30516850091E+02  0.37967715782E+02  0.00000000000E+00 0.  1.
         -1    1    1    2    0  502 -0.67403489188E+01 -0.20812396442E+02  0.28258565541E+02  0.35737021079E+02  0.00000000000E+00 0.  1.
<scales pt_clust_5="13000.00000" pt_clust_6="13000.00000" pt_clust_7="13000.00000" pt_clust_8="13000.00000" pt_clust_9="22.22288" pt_clust_10="21.87666"></scales>
<clustering>
<clus scale="   21.877">  1 10  2 -1</clus>
<clus scale="   22.223">  2  9  1 -1</clus>
<clus scale="   89.511">  7  8 -1 -1</clus>
<clus scale="   91.338">  2  7  1 -1</clus>
<clus scale="   91.849">  5  6 -1 -1</clus>
<clus scale="   21.877">  1  5  2 -1</clus>
</clustering>
</event>
<event>
10    2  0.6437958E-006  0.3325070E+03  0.7546771E-02  0.1070065E+00
         21   -1    0    0  503  502  0.00000000000E+00  0.00000000000E+00  0.52063869552E+03  0.52063869552E+03  0.00000000000E+00 0. -1.
         -2   -1    0    0    0  501 -0.00000000000E+00 -0.00000000000E+00 -0.66312915755E+03  0.66312915755E+03  0.00000000000E+00 0.  1.
         23    2    1    2    0    0 -0.33894713459E+03 -0.48001491404E+02 -0.46116881930E+03  0.58155016728E+03  0.91294106838E+02 0.  0.
         23    2    1    2    0    0  0.31708632908E+03  0.75656195565E+02  0.38609487232E+03  0.51330190021E+03  0.90232977990E+02 0.  0.
        -11    1    4    4    0    0  0.19917295312E+03  0.25099870280E+02  0.17519639838E+03  0.26644632996E+03  0.00000000000E+00 0. -1.
         11    1    4    4    0    0  0.11791337595E+03  0.50556325285E+02  0.21089847394E+03  0.24685557025E+03  0.00000000000E+00 0.  1.
        -13    1    3    3    0    0 -0.27810846047E+02  0.13370380867E+02 -0.79758752942E+02  0.85519991307E+02  0.00000000000E+00 0. -1.
         13    1    3    3    0    0 -0.31113628855E+03 -0.61371872271E+02 -0.38141006635E+03  0.49603017597E+03  0.00000000000E+00 0.  1.
         21    1    1    2  503  501  0.28385033189E+02 -0.39334376126E+01 -0.53394441403E+02  0.60598254210E+02  0.00000000000E+00 0. -1.
         -2    1    1    2    0  502 -0.65242276698E+01 -0.23721266549E+02 -0.14022073653E+02  0.28317531370E+02  0.00000000000E+00 0.  1.
<scales pt_clust_5="13000.00000" pt_clust_6="13000.00000" pt_clust_7="13000.00000" pt_clust_8="13000.00000" pt_clust_9="28.63429" pt_clust_10="24.60213"></scales>
<clustering>
<clus scale="   24.602">  1 10  2 -1</clus>
<clus scale="   28.634">  2  9  1 -1</clus>
<clus scale="   90.233">  5  6 -1 -1</clus>
<clus scale="   91.294">  7  8 -1 -1</clus>
<clus scale="  332.217">  1  5  2 -1</clus>
<clus scale="   24.602">  1  5  2 -1</clus>
</clustering>
</event>
<event>
10    2  0.3544405E-006  0.1958564E+03  0.7546771E-02  0.1169531E+00
         21   -1    0    0  501  502  0.00000000000E+00  0.00000000000E+00  0.12601213856E+04  0.12601213856E+04  0.00000000000E+00 0. -1.
          2   -1    0    0  503    0 -0.00000000000E+00 -0.00000000000E+00 -0.18216965123E+03  0.18216965123E+03  0.00000000000E+00 0. -1.
         23    2    1    2    0    0 -0.54193712886E+02  0.83002003335E+02 -0.92653411526E+02  0.16217913267E+03  0.88832006234E+02 0.  0.
         23    2    1    2    0    0  0.30241685846E+02  0.13562604333E+03  0.50302525217E+03  0.52911143667E+03  0.87266974883E+02 0.  0.
        -13    1    4    4    0    0  0.23988083104E+02 -0.60068526220E+00  0.12399291753E+03  0.12629343828E+03  0.00000000000E+00 0.  1.
         13    1    4    4    0    0  0.62536027425E+01  0.13622672859E+03  0.37903233463E+03  0.40281799839E+03  0.00000000000E+00 0. -1.
        -13    1    3    3    0    0 -0.29843782985E+02 -0.14089645260E+02 -0.23625346537E+02  0.40587269992E+02  0.00000000000E+00 0.  1.
         13    1    3    3    0    0 -0.24349929901E+02  0.97091648595E+02 -0.69028064989E+02  0.12159186268E+03  0.00000000000E+00 0. -1.
         21    1    1    2  503  502 -0.93080920666E+02 -0.10728311611E+01  0.13580092597E+03  0.16464234041E+03  0.00000000000E+00 0. -1.
          2    1    1    2  501    0  0.11703294771E+03 -0.21755521551E+03  0.53177896775E+03  0.58635812707E+03  0.00000000000E+00 0. -1.
<scales pt_clust_5="13000.00000" pt_clust_6="13000.00000" pt_clust_7="13000.00000" pt_clust_8="13000.00000" pt_clust_9="93.08710" pt_clust_10="175.34030"></scales>
<clustering>
<clus scale="   87.267">  5  6 -1 -1</clus>
<clus scale="   88.832">  7  8 -1 -1</clus>
<clus scale="   93.087">  1  9  2 -1</clus>
<clus scale="  134.299">  2  7  1 -1</clus>
<clus scale="  175.340">  1 10  2 -1</clus>
<clus scale="   93.087">  1  5  2 -1</clus>
</clustering>
</event>
<event>
10    2  0.3544405E-006  0.1452518E+03  0.7546771E-02  0.1225961E+00
          1   -1    0    0  503    0 -0.00000000000E+00  0.00000000000E+00  0.36097424793E+03  0.36097424793E+03  0.00000000000E+00 0. -1.
         21   -1    0    0  501  502  0.00000000000E+00 -0.00000000000E+00 -0.35612477696E+03  0.35612477696E+03  0.00000000000E+00 0. -1.
         23    2    1    2    0    0 -0.39306433379E+02 -0.85069835557E+01 -0.31259912203E+02  0.97991500229E+02  0.83712529122E+02 0.  0.
         23    2    1    2    0    0 -0.40386120225E+02  0.73879908825E+02  0.13830807271E+03  0.18612141997E+03  0.91775706806E+02 0.  0.
        -11    1    4    4    0    0 -0.64933694713E+02  0.75379830739E+02  0.10418184379E+03  0.14405679494E+03  0.00000000000E+00 0. -1.
         11    1    4    4    0    0  0.24547574488E+02 -0.14999219138E+01  0.34126228919E+02  0.42064625034E+02  0.00000000000E+00 0.  1.
        -13    1    3    3    0    0 -0.57155526277E+02 -0.22500127296E+02 -0.26496178399E+01  0.61481951718E+02  0.00000000000E+00 0. -1.
         13    1    3    3    0    0  0.17849092897E+02  0.13993143740E+02 -0.28610294363E+02  0.36509548512E+02  0.00000000000E+00 0.  1.
         21    1    1    2  503  502 -0.34641760551E+02 -0.40182121272E+02  0.14774470302E+03  0.15698137378E+03  0.00000000000E+00 0. -1.
          1    1    1    2  501    0  0.11433431416E+03 -0.25190803997E+02 -0.24994339256E+03  0.27600473090E+03  0.00000000000E+00 0. -1.
<scales pt_clust_5="13000.00000" pt_clust_6="13000.00000" pt_clust_7="13000.00000" pt_clust_8="13000.00000" pt_clust_9="53.05332" pt_clust_10="112.58467"></scales>
<clustering>
<clus scale="   53.053">  1  9  2 -1</clus>
<clus scale="   83.713">  7  8 -1 -1</clus>
<clus scale="   91.776">  5  6 -1 -1</clus>
<clus scale="   96.136">  1  7  2 -1</clus>
<clus scale="  112.585">  2 10  1 -1</clus>
<clus scale="  112.585">  2  5  1 -1</clus>
</clustering>
</event>
<event>
10    2  0.3544405E-006  0.3340675E+03  0.7546771E-02  0.1069363E+00
         21   -1    0    0  501  502  0.00000000000E+00  0.00000000000E+00  0.14882216665E+03  0.14882216665E+03  0.00000000000E+00 0. -1.
          1   -1    0    0  503    0 -0.00000000000E+00 -0.00000000000E+00 -0.14595725817E+04  0.14595725817E+04  0.00000000000E+00 0. -1.
         23    2    1    2    0    0  0.52769056980E+02  0.36361507899E+03 -0.70043227195E+03  0.79627782750E+03  0.91937543657E+02 0.  0.
         23    2    1    2    0    0 -0.17868350231E+03 -0.22863246162E+03 -0.35947468390E+03  0.47096130606E+03  0.91552754944E+02 0.  0.
        -11    1    3    3    0    0  0.73951251287E+02  0.19057717261E+03 -0.37774345046E+03  0.42950967469E+03  0.00000000000E+00 0. -1.
         11    1    3    3    0    0 -0.21182194307E+02  0.17303790638E+03 -0.32268882149E+03  0.36676815281E+03  0.00000000000E+00 0.  1.
        -13    1    4    4    0    0 -0.12148541044E+03 -0.84143528903E+02 -0.15529417809E+03  0.21437145369E+03  0.00000000000E+00 0.  1.
         13    1    4    4    0    0 -0.57198091878E+02 -0.14448893272E+03 -0.20418050581E+03  0.25658985238E+03  0.00000000000E+00 0. -1.
         21    1    1    2  503  502  0.50285903139E+02 -0.12694577442E+02 -0.16665166854E+03  0.17453539177E+03  0.00000000000E+00 0. -1.
          1    1    1    2  501    0  0.75628542196E+02 -0.12228803993E+03 -0.84191790671E+02  0.16662022303E+03  0.00000000000E+00 0. -1.
<scales pt_clust_5="13000.00000" pt_clust_6="13000.00000" pt_clust_7="13000.00000" pt_clust_8="13000.00000" pt_clust_9="51.86352" pt_clust_10="147.45024"></scales>
<clustering>
<clus scale="   51.864">  2  9  1 -1</clus>
<clus scale="   91.553">  7  8 -1 -1</clus>
<clus scale="   91.938">  5  6 -1 -1</clus>
<clus scale="  147.450">  1 10  2 -1</clus>
<clus scale="  333.962">  1  7  2 -1</clus>
<clus scale="  147.450">  1  5  2 -1</clus>
</clustering>
</event>
<event>
10    2  0.3544405E-006  0.1783977E+03  0.7546771E-02  0.1188521E+00
          1   -1    0    0  503    0 -0.00000000000E+00  0.00000000000E+00  0.77654614869E+02  0.77654614869E+02  0.00000000000E+00 0. -1.
         21   -1    0    0  501  502  0.00000000000E+00 -0.00000000000E+00 -0.11236937369E+04  0.11236937369E+04  0.00000000000E+00 0. -1.
         23    2    1    2    0    0 -0.22438875591E+01  0.75808172025E+02 -0.16164880401E+03  0.20095604509E+03  0.92201313673E+02 0.  0.
         23    2    1    2    0    0 -0.36512686214E+02 -0.19655224266E+03 -0.42335759886E+03  0.47645032250E+03  0.88358887207E+02 0.  0.
        -13    1    3    3    0    0  0.28860551844E+02  0.56806162757E+02 -0.14953865948E+03  0.16254747694E+03  0.00000000000E+00 0.  1.
         13    1    3    3    0    0 -0.31104439403E+02  0.19002009267E+02 -0.12110144528E+02  0.38408568149E+02  0.00000000000E+00 0. -1.
        -13    1    4    4    0    0 -0.32045327891E+02 -0.32584158769E+02 -0.15810642051E+03  0.16457907111E+03  0.00000000000E+00 0.  1.
         13    1    4    4    0    0 -0.44673583229E+01 -0.16396808389E+03 -0.26525117835E+03  0.31187125139E+03  0.00000000000E+00 0. -1.
         21    1    1    2  503  502  0.27080846457E+02 -0.17122225670E+02  0.95564062200E+01  0.33434529405E+02  0.00000000000E+00 0. -1.
          1    1    1    2  501    0  0.11675727317E+02  0.13786629630E+03 -0.47058912539E+03  0.49050745478E+03  0.00000000000E+00 0. -1.
<scales pt_clust_5="13000.00000" pt_clust_6="13000.00000" pt_clust_7="13000.00000" pt_clust_8="13000.00000" pt_clust_9="32.03971" pt_clust_10="154.97889"></scales>
<clustering>
<clus scale="   32.040">  1  9  2 -1</clus>
<clus scale="   88.359">  7  8 -1 -1</clus>
<clus scale="   92.201">  5  6 -1 -1</clus>
<clus scale="  115.878">  1  5  2 -1</clus>
<clus scale="  154.979">  2 10  1 -1</clus>
<clus scale="  154.979">  2  5  1 -1</clus>
</clustering>
</event>
<event>
10    2  0.3544405E-006  0.1494738E+03  0.7546771E-02  0.1201417E+00
         21   -1    0    0  501  502  0.00000000000E+00  0.00000000000E+00  0.60222833353E+03  0.60222833353E+03  0.00000000000E+00 0. -1.
          1   -1    0    0  503    0 -0.00000000000E+00 -0.00000000000E+00 -0.29096866973E+03  0.29096866973E+03  0.00000000000E+00 0. -1.
         23    2    1    2    0    0  0.40494821992E+02 -0.96846706203E+02 -0.97232299668E+02  0.17032652577E+03  0.92400704389E+02 0.  0.
         23    2    1    2    0    0 -0.10100996603E+03  0.56695538128E+02  0.16061987691E+03  0.21787467411E+03  0.90847297591E+02 0.  0.
        -11    1    3    3    0    0  0.18508729701E+02 -0.30687351359E+02  0.14474295523E+02  0.38649603355E+02  0.00000000000E+00 0.  1.
         11    1    3    3    0    0  0.21986092291E+02 -0.66159354844E+02 -0.11170659519E+03  0.13167692242E+03  0.00000000000E+00 0. -1.
        -11    1    4    4    0    0 -0.10590697759E+03  0.23323827506E+02  0.95336916227E+02  0.14439327002E+03  0.00000000000E+00 0.  1.
         11    1    4    4    0    0  0.48970115562E+01  0.33371710622E+02  0.65282960680E+02  0.73481404091E+02  0.00000000000E+00 0. -1.
         21    1    1    2  503  502  0.38308268351E+02 -0.12531835269E+01 -0.12419448353E+03  0.12997447300E+03  0.00000000000E+00 0. -1.
          1    1    1    2  501    0  0.22206875687E+02  0.41404351602E+02  0.37206657009E+03  0.37502133038E+03  0.00000000000E+00 0. -1.
<scales pt_clust_5="13000.00000" pt_clust_6="13000.00000" pt_clust_7="13000.00000" pt_clust_8="13000.00000" pt_clust_9="38.32876" pt_clust_10="47.13796"></scales>
<clustering>
<clus scale="   38.329">  2  9  1 -1</clus>
<clus scale="   47.138">  1 10  2 -1</clus>
<clus scale="   90.847">  7  8 -1 -1</clus>
<clus scale="   92.401">  5  6 -1 -1</clus>
<clus scale="  148.519">  1  7  2 -1</clus>
<clus scale="   47.138">  1  5  2 -1</clus>
</clustering>
</event>
<event>
10    2  0.3544405E-006  0.1561733E+03  0.7546771E-02  0.1200061E+00
         21   -1    0    0  501  502  0.00000000000E+00  0.00000000000E+00  0.17241150082E+03  0.17241150082E+03  0.00000000000E+00 0.  1.
          2   -1    0    0  503    0 -0.00000000000E+00 -0.00000000000E+00 -0.21886124251E+03  0.21886124251E+03  0.00000000000E+00 0. -1.
         23    2    1    2    0    0  0.60634229815E+02 -0.81332619245E+02 -0.75101346120E+02  0.15635151419E+03  0.92271767195E+02 0.  0.
         23    2    1    2    0    0 -0.78941617024E+02  0.78837339918E+02  0.44813110584E+02  0.17139604321E+03  0.12215270642E+03 0.  0.
        -11    1    3    3    0    0  0.45485424541E+02 -0.16533361795E+02  0.88755605011E+01  0.49204181450E+02  0.00000000000E+00 0.  1.
         11    1    3    3    0    0  0.15148805274E+02 -0.64799257450E+02 -0.83976906621E+02  0.10714733274E+03  0.00000000000E+00 0. -1.
        -13    1    4    4    0    0 -0.93786390664E+02  0.10043824711E+02  0.17654764300E+02  0.95960701285E+02  0.00000000000E+00 0. -1.
         13    1    4    4    0    0  0.14844773640E+02  0.68793515206E+02  0.27158346284E+02  0.75435341928E+02  0.00000000000E+00 0.  1.
         21    1    1    2  503  502  0.46757834918E+01  0.29378941439E+02 -0.15106521949E+02  0.33364534415E+02  0.00000000000E+00 0.  1.
          2    1    1    2  501    0  0.13631603717E+02 -0.26883662111E+02 -0.10549842094E+01  0.30160651520E+02  0.00000000000E+00 0. -1.
<scales pt_clust_5="13000.00000" pt_clust_6="13000.00000" pt_clust_7="13000.00000" pt_clust_8="13000.00000" pt_clust_9="29.74870" pt_clust_10="28.24518"></scales>
<clustering>
<clus scale="   29.749">  2  9  1 -1</clus>
<clus scale="   28.245">  1 10  2 -1</clus>
<clus scale="   92.272">  5  6 -1 -1</clus>
<clus scale="  122.153">  7  8 -1 -1</clus>
<clus scale="  134.100">  2  5  1 -1</clus>
<clus scale="   28.245">  1  5  2 -1</clus>
</clustering>
</event>
<event>
10    2  0.3544405E-006  0.1362963E+03  0.7546771E-02  0.1218496E+00
         21   -1    0    0  503  502  0.00000000000E+00  0.00000000000E+00  0.23064053276E+03  0.23064053276E+03  0.00000000000E+00 0.  1.
         -3   -1    0    0    0  501 -0.00000000000E+00 -0.00000000000E+00 -0.20695722889E+03  0.20695722889E+03  0.00000000000E+00 0.  1.
         23    2    1    2    0    0  0.10498117642E+03  0.52298399958E+02 -0.37181550053E+02  0.15341348712E+03  0.91635475251E+02 0.  0.
         23    2    1    2    0    0 -0.52398722909E+02 -0.84956273505E+02  0.25000719698E+02  0.13805528622E+03  0.92038206720E+02 0.  0.
        -13    1    4    4    0    0  0.51711329567E+01 -0.76328410127E+02  0.22687534242E+02  0.79796560193E+02  0.00000000000E+00 0.  1.
         13    1    4    4    0    0 -0.57569855865E+02 -0.86278633781E+01  0.23131854560E+01  0.58258726023E+02  0.00000000000E+00 0. -1.
        -13    1    3    3    0    0  0.25335263501E+02  0.31485547951E+02  0.27363995424E+02  0.48805773757E+02  0.00000000000E+00 0.  1.
         13    1    3    3    0    0  0.79645912923E+02  0.20812852007E+02 -0.64545545477E+02  0.10460771336E+03  0.00000000000E+00 0. -1.
         21    1    1    2  503  501 -0.25262838075E+02 -0.10550253433E+02 -0.43694103591E+02  0.51562520533E+02  0.00000000000E+00 0.  1.
         -3    1    1    2    0  502 -0.27319615441E+02  0.43208126980E+02  0.79558237817E+02  0.94566467786E+02  0.00000000000E+00 0.  1.
<scales pt_clust_5="13000.00000" pt_clust_6="13000.00000" pt_clust_7="13000.00000" pt_clust_8="13000.00000" pt_clust_9="27.37734" pt_clust_10="51.35210"></scales>
<clustering>
<clus scale="   27.377">  2  9  1 -1</clus>
<clus scale="   51.352">  1 10  2 -1</clus>
<clus scale="   91.635">  7  8 -1 -1</clus>
<clus scale="   92.038">  5  6 -1 -1</clus>
<clus scale="  136.025">  2  7  1 -1</clus>
<clus scale="   51.352">  1  5  2 -1</clus>
</clustering>
</event>
<event>
10    2  0.3544405E-006  0.1023938E+03  0.7546771E-02  0.1275739E+00
         21   -1    0    0  501  502  0.00000000000E+00  0.00000000000E+00  0.58185759224E+02  0.58185759224E+02  0.00000000000E+00 0.  1.
          1   -1    0    0  503    0 -0.00000000000E+00 -0.00000000000E+00 -0.95285065151E+03  0.95285065151E+03  0.00000000000E+00 0. -1.
         23    2    1    2    0    0 -0.54720043229E+02  0.23975618464E+02 -0.13608996703E+03  0.17459399521E+03  0.91615886310E+02 0.  0.
         23    2    1    2    0    0  0.32739348607E+02  0.38480327203E+02 -0.16993158327E+03  0.19915841009E+03  0.90745406440E+02 0.  0.
        -11    1    4    4    0    0  0.46412820196E+01 -0.29580293246E+02 -0.56038501009E+02  0.63536201040E+02  0.00000000000E+00 0.  1.
         11    1    4    4    0    0  0.28098066588E+02  0.68060620449E+02 -0.11389308226E+03  0.13562220905E+03  0.00000000000E+00 0. -1.
        -13    1    3    3    0    0 -0.91566944963E+01 -0.23987567763E+02 -0.28487032553E+01  0.25833380954E+02  0.00000000000E+00 0.  1.
         13    1    3    3    0    0 -0.45563348732E+02  0.47963186226E+02 -0.13324126378E+03  0.14876061425E+03  0.00000000000E+00 0. -1.
         21    1    1    2  503  502  0.57797953125E+02 -0.58012041672E+02 -0.59502383541E+03  0.60063247088E+03  0.00000000000E+00 0.  1.
          1    1    1    2  501    0 -0.35817258503E+02 -0.44439039946E+01  0.63804934183E+01  0.36651534561E+02  0.00000000000E+00 0. -1.
<scales pt_clust_5="13000.00000" pt_clust_6="13000.00000" pt_clust_7="13000.00000" pt_clust_8="13000.00000" pt_clust_9="80.22729" pt_clust_10="36.09189"></scales>
<clustering>
<clus scale="   36.092">  1 10  2 -1</clus>
<clus scale="   80.227">  2  9  1 -1</clus>
<clus scale="   90.745">  5  6 -1 -1</clus>
<clus scale="   91.616">  7  8 -1 -1</clus>
<clus scale="  101.616">  1  5  2 -1</clus>
<clus scale="   36.092">  1  5  2 -1</clus>
</clustering>
</event>
<event>
10    2  0.3544405E-006  0.9828732E+02  0.7546771E-02  0.1284192E+00
          1   -1    0    0  503    0 -0.00000000000E+00  0.00000000000E+00  0.19641962012E+03  0.19641962012E+03  0.00000000000E+00 0. -1.
         21   -1    0    0  501  502  0.00000000000E+00 -0.00000000000E+00 -0.18238602075E+03  0.18238602075E+03  0.00000000000E+00 0.  1.
         23    2    1    2    0    0 -0.28526826912E+02 -0.30497766423E+02  0.10535145183E+03  0.14580745766E+03  0.91744169821E+02 0.  0.
         23    2    1    2    0    0 -0.24448870788E+02  0.14193111255E+02 -0.78619607376E+01  0.95844516211E+02  0.91242365002E+02 0.  0.
        -11    1    3    3    0    0 -0.40513743991E+02 -0.53388683696E+02  0.98388458672E+02  0.11904622547E+03  0.00000000000E+00 0.  1.
         11    1    3    3    0    0  0.11986917080E+02  0.22890917273E+02  0.69629931619E+01  0.26761232192E+02  0.00000000000E+00 0. -1.
        -13    1    4    4    0    0  0.30508346257E+02 -0.13304435477E+02  0.30804739117E+01  0.33425387271E+02  0.00000000000E+00 0.  1.
         13    1    4    4    0    0 -0.54957217045E+02  0.27497546732E+02 -0.10942434649E+02  0.62419128940E+02  0.00000000000E+00 0. -1.
         21    1    1    2  503  502 -0.55774363170E+01 -0.24547695382E+02  0.26338976937E+01  0.25310759797E+02  0.00000000000E+00 0.  1.
          1    1    1    2  501    0  0.58553134016E+02  0.40852350550E+02 -0.86089789417E+02  0.11184290720E+03  0.00000000000E+00 0. -1.
<scales pt_clust_5="13000.00000" pt_clust_6="13000.00000" pt_clust_7="13000.00000" pt_clust_8="13000.00000" pt_clust_9="25.17334" pt_clust_10="70.09201"></scales>
<clustering>
<clus scale="   25.173">  1  9  2 -1</clus>
<clus scale="   70.092">  2 10  1 -1</clus>
<clus scale="   91.242">  7  8 -1 -1</clus>
<clus scale="   91.744">  5  6 -1 -1</clus>
<clus scale="   97.819">  2  7  1 -1</clus>
<clus scale="   70.092">  2  5  1 -1</clus>
</clustering>
</event>
<event>
10    2  0.3544405E-006  0.9416641E+02  0.7546771E-02  0.1295182E+00
         21   -1    0    0  501  502  0.00000000000E+00  0.00000000000E+00  0.14872183084E+03  0.14872183084E+03  0.00000000000E+00 0.  1.
          1   -1    0    0  503    0 -0.00000000000E+00 -0.00000000000E+00 -0.23809924362E+03  0.23809924362E+03  0.00000000000E+00 0. -1.
         23    2    1    2    0    0 -0.17248822723E+02 -0.22503515378E+02 -0.42637519690E+01  0.93066903851E+02  0.88540041348E+02 0.  0.
         23    2    1    2    0    0 -0.19270231484E+01 -0.80087236770E+01  0.68323784473E+02  0.11509631804E+03  0.92256001584E+02 0.  0.
        -11    1    4    4    0    0 -0.48796291945E+01 -0.30536140687E+02  0.82643884803E+02  0.88239891005E+02  0.00000000000E+00 0.  1.
         11    1    4    4    0    0  0.29526060461E+01  0.22527417010E+02 -0.14320100330E+02  0.26856427035E+02  0.00000000000E+00 0. -1.
        -13    1    3    3    0    0  0.24799929377E+02 -0.38533162958E+02  0.77865849449E+01  0.46480878324E+02  0.00000000000E+00 0.  1.
         13    1    3    3    0    0 -0.42048752100E+02  0.16029647580E+02 -0.12050336914E+02  0.46586025527E+02  0.00000000000E+00 0. -1.
         21    1    1    2  503  502 -0.26448794617E+02  0.95352490489E+01 -0.10568882785E+03  0.10936447341E+03  0.00000000000E+00 0. -1.
          1    1    1    2  501    0  0.45624640489E+02  0.20976990006E+02 -0.47748617427E+02  0.69293379162E+02  0.00000000000E+00 0. -1.
<scales pt_clust_5="13000.00000" pt_clust_6="13000.00000" pt_clust_7="13000.00000" pt_clust_8="13000.00000" pt_clust_9="28.11512" pt_clust_10="42.16691"></scales>
<clustering>
<clus scale="   28.115">  2  9  1 -1</clus>
<clus scale="   42.167">  1 10  2 -1</clus>
<clus scale="   88.540">  7  8 -1 -1</clus>
<clus scale="   90.529">  2  7  1 -1</clus>
<clus scale="   92.256">  5  6 -1 -1</clus>
<clus scale="   42.167">  1  5  2 -1</clus>
</clustering>
</event>
<event>
10    2  0.3544405E-006  0.1029543E+03  0.7546771E-02  0.1274471E+00
          2   -1    0    0  503    0 -0.00000000000E+00  0.00000000000E+00  0.19431711010E+03  0.19431711010E+03  0.00000000000E+00 0. -1.
         21   -1    0    0  501  502  0.00000000000E+00 -0.00000000000E+00 -0.10438545678E+03  0.10438545678E+03  0.00000000000E+00 0.  1.
         23    2    1    2    0    0  0.56031789437E+02  0.18315938694E+01  0.84814870200E+02  0.13766177866E+03  0.92813182967E+02 0.  0.
         23    2    1    2    0    0 -0.42119042692E+02  0.23775502494E+02 -0.23592522905E+02  0.10677862476E+03  0.92226781861E+02 0.  0.
        -11    1    4    4    0    0 -0.67134382414E+02  0.35120997602E+02 -0.23443800732E+02  0.79310286643E+02  0.00000000000E+00 0.  1.
         11    1    4    4    0    0  0.25015339721E+02 -0.11345495108E+02 -0.14872217312E+00  0.27468338117E+02  0.00000000000E+00 0. -1.
        -13    1    3    3    0    0  0.38674474088E+02  0.32781620847E+02  0.88492657230E+02  0.10198676382E+03  0.00000000000E+00 0. -1.
         13    1    3    3    0    0  0.17357315349E+02 -0.30950026978E+02 -0.36777870300E+01  0.35675014835E+02  0.00000000000E+00 0.  1.
         21    1    1    2  503  502 -0.22070038202E+02 -0.67418045187E+01  0.64418991130E+01  0.23959060469E+02  0.00000000000E+00 0. -1.
          2    1    1    2  501    0  0.81572914576E+01 -0.18865291845E+02  0.22267406910E+02  0.30303102990E+02  0.00000000000E+00 0. -1.
<scales pt_clust_5="13000.00000" pt_clust_6="13000.00000" pt_clust_7="13000.00000" pt_clust_8="13000.00000" pt_clust_9="22.94629" pt_clust_10="20.55337"></scales>
<clustering>
<clus scale="   20.553">  2 10  1 -1</clus>
<clus scale="   22.946">  1  9  2 -1</clus>
<clus scale="   92.227">  5  6 -1 -1</clus>
<clus scale="   92.813">  7  8 -1 -1</clus>
<clus scale="  102.426">  2  5  1 -1</clus>
<clus scale="   20.553">  2  5  1 -1</clus>
</clustering>
</event>
<event>
10    2  0.3544405E-006  0.1302719E+03  0.7546771E-02  0.1227523E+00
         21   -1    0    0  501  502  0.00000000000E+00  0.00000000000E+00  0.25011893475E+03  0.25011893475E+03  0.00000000000E+00 0.  1.
          2   -1    0    0  503    0 -0.00000000000E+00 -0.00000000000E+00 -0.12803485465E+03  0.12803485465E+03  0.00000000000E+00 0. -1.
         23    2    1    2    0    0 -0.63737268972E+02  0.59058145421E+02  0.14242811777E+02  0.12509102403E+03  0.88851576286E+02 0.  0.
         23    2    1    2    0    0  0.87496814353E+02 -0.56877710466E+02  0.25291106555E+02  0.14054415787E+03  0.90676644018E+02 0.  0.
        -13    1    3    3    0    0 -0.76852863554E+02  0.27878337016E+02 -0.11534253128E+02  0.82562723468E+02  0.00000000000E+00 0.  1.
         13    1    3    3    0    0  0.13115594582E+02  0.31179808405E+02  0.25777064904E+02  0.42528300560E+02  0.00000000000E+00 0. -1.
        -13    1    4    4    0    0  0.41473178648E+02 -0.71476752587E+02  0.37489208515E+02  0.90743547774E+02  0.00000000000E+00 0. -1.
         13    1    4    4    0    0  0.46023635705E+02  0.14599042121E+02 -0.12198101960E+02  0.49800610094E+02  0.00000000000E+00 0.  1.
         21    1    1    2  503  502 -0.35415504921E+01 -0.23740674103E+02 -0.86781304577E+00  0.24019060894E+02  0.00000000000E+00 0. -1.
          2    1    1    2  501    0 -0.20217994889E+02  0.21560239148E+02  0.83417974809E+02  0.88499546613E+02  0.00000000000E+00 0. -1.
<scales pt_clust_5="13000.00000" pt_clust_6="13000.00000" pt_clust_7="13000.00000" pt_clust_8="13000.00000" pt_clust_9="24.00338" pt_clust_10="29.23244"></scales>
<clustering>
<clus scale="   24.003">  2  9  1 -1</clus>
<clus scale="   29.232">  1 10  2 -1</clus>
<clus scale="   88.852">  5  6 -1 -1</clus>
<clus scale="   90.677">  7  8 -1 -1</clus>
<clus scale="  129.008">  2  5  1 -1</clus>
<clus scale="   29.232">  1  5  2 -1</clus>
</clustering>
</event>
<event>
10    2  0.3544405E-006  0.1182417E+03  0.7546771E-02  0.1246969E+00
          2   -1    0    0  503    0 -0.00000000000E+00  0.00000000000E+00  0.56287824001E+03  0.56287824001E+03  0.00000000000E+00 0. -1.
         21   -1    0    0  501  502  0.00000000000E+00 -0.00000000000E+00 -0.20629778693E+03  0.20629778693E+03  0.00000000000E+00 0.  1.
         23    2    1    2    0    0  0.43870783231E+02 -0.10090358099E+03  0.32269977135E+03  0.35199599053E+03  0.87520606943E+02 0.  0.
         23    2    1    2    0    0 -0.44167851065E+02  0.88697531641E+01  0.44285643339E+02  0.11031988606E+03  0.90442177472E+02 0.  0.
        -11    1    3    3    0    0  0.69009487898E+02 -0.80976375581E+02  0.27119721306E+03  0.29132011807E+03  0.00000000000E+00 0.  1.
         11    1    3    3    0    0 -0.25138704667E+02 -0.19927205405E+02  0.51502558293E+02  0.60675872456E+02  0.00000000000E+00 0. -1.
        -11    1    4    4    0    0  0.10793429394E+02  0.36454912949E+02  0.77858613942E+01  0.38808226369E+02  0.00000000000E+00 0.  1.
         11    1    4    4    0    0 -0.54961280459E+02 -0.27585159785E+02  0.36499781945E+02  0.71511659693E+02  0.00000000000E+00 0. -1.
         21    1    1    2  503  502  0.50369017005E+02  0.59520141497E+02  0.13151620250E+03  0.15289276189E+03  0.00000000000E+00 0. -1.
          2    1    1    2  501    0 -0.50071949171E+02  0.32513686325E+02 -0.14192116410E+03  0.15396738847E+03  0.00000000000E+00 0. -1.
<scales pt_clust_5="13000.00000" pt_clust_6="13000.00000" pt_clust_7="13000.00000" pt_clust_8="13000.00000" pt_clust_9="77.35815" pt_clust_10="59.70209"></scales>
<clustering>
<clus scale="   59.702">  2 10  1 -1</clus>
<clus scale="   77.358">  1  9  2 -1</clus>
<clus scale="   87.521">  5  6 -1 -1</clus>
<clus scale="   90.442">  7  8 -1 -1</clus>
<clus scale="  116.022">  1  5  2 -1</clus>
<clus scale="   59.702">  2  5  1 -1</clus>
</clustering>
</event>
<event>
10    2  0.3544405E-006  0.9726804E+02  0.7546771E-02  0.1287512E+00
         21   -1    0    0  501  502  0.00000000000E+00  0.00000000000E+00  0.17960186549E+03  0.17960186549E+03  0.00000000000E+00 0. -1.
          2   -1    0    0  503    0 -0.00000000000E+00 -0.00000000000E+00 -0.31008993908E+03  0.31008993908E+03  0.00000000000E+00 0. -1.
         23    2    1    2    0    0 -0.38615345818E+02  0.12012236677E+02 -0.14844309628E+03  0.17857402042E+03  0.90652574009E+02 0.  0.
         23    2    1    2    0    0 -0.18689459555E+02 -0.63495501497E+02 -0.78389624366E+02  0.13516797107E+03  0.88002685106E+02 0.  0.
        -11    1    4    4    0    0  0.30023139262E+02 -0.50305865222E+02 -0.32704419958E+02  0.67094322052E+02  0.00000000000E+00 0.  1.
         11    1    4    4    0    0 -0.48712598817E+02 -0.13189636275E+02 -0.45685204408E+02  0.68073649016E+02  0.00000000000E+00 0. -1.
        -11    1    3    3    0    0  0.13560524007E+02  0.21528240446E+02 -0.53927321685E+01  0.26008354587E+02  0.00000000000E+00 0.  1.
         11    1    3    3    0    0 -0.52175869826E+02 -0.95160037694E+01 -0.14305036411E+03  0.15256566584E+03  0.00000000000E+00 0. -1.
         21    1    1    2  503  502  0.26836471228E+02  0.34275158011E+02 -0.24629926646E+02  0.50016156702E+02  0.00000000000E+00 0.  1.
          2    1    1    2  501    0  0.30468334146E+02  0.17208106809E+02  0.12097457370E+03  0.12593365638E+03  0.00000000000E+00 0. -1.
<scales pt_clust_5="13000.00000" pt_clust_6="13000.00000" pt_clust_7="13000.00000" pt_clust_8="13000.00000" pt_clust_9="50.93057" pt_clust_10="34.99198"></scales>
<clustering>
<clus scale="   34.992">  1 10  2 -1</clus>
<clus scale="   50.931">  1  9  2 -1</clus>
<clus scale="   88.003">  5  6 -1 -1</clus>
<clus scale="   90.653">  7  8 -1 -1</clus>
<clus scale="   94.803">  1  5  2 -1</clus>
<clus scale="   34.992">  1  5  2 -1</clus>
</clustering>
</event>
<event>
10    2  0.3544405E-006  0.1009298E+03  0.7546771E-02  0.1279835E+00
          2   -1    0    0  503    0 -0.00000000000E+00  0.00000000000E+00  0.88864875056E+02  0.88864875056E+02  0.00000000000E+00 0. -1.
         21   -1    0    0  501  502  0.00000000000E+00 -0.00000000000E+00 -0.48248120857E+03  0.48248120857E+03  0.00000000000E+00 0.  1.
         23    2    1    2    0    0  0.44020848701E+02  0.57793357973E+00 -0.29483445056E+02  0.10630066005E+03  0.92154151654E+02 0.  0.
         23    2    1    2    0    0 -0.23535443832E+02  0.23695812421E+02 -0.77970272523E+02  0.12299411167E+03  0.89066152189E+02 0.  0.
        -11    1    3    3    0    0 -0.18657467421E+02  0.19989830093E+02 -0.30122010665E+02  0.40682058997E+02  0.00000000000E+00 0.  1.
         11    1    3    3    0    0  0.62678316122E+02 -0.19411896514E+02  0.63856560942E+00  0.65618601053E+02  0.00000000000E+00 0. -1.
        -13    1    4    4    0    0 -0.37040404463E+02 -0.24220293062E+01 -0.85009602880E+02  0.92760392251E+02  0.00000000000E+00 0.  1.
         13    1    4    4    0    0  0.13504960630E+02  0.26117841727E+02  0.70393303568E+01  0.30233719420E+02  0.00000000000E+00 0. -1.
         21    1    1    2  503  502  0.24772399132E+02 -0.33601564015E+02  0.94884963369E+01  0.42810844721E+02  0.00000000000E+00 0. -1.
          2    1    1    2  501    0 -0.45257804001E+02  0.93278180139E+01 -0.29565111227E+03  0.29924046718E+03  0.00000000000E+00 0. -1.
<scales pt_clust_5="13000.00000" pt_clust_6="13000.00000" pt_clust_7="13000.00000" pt_clust_8="13000.00000" pt_clust_9="41.74610" pt_clust_10="45.32769"></scales>
<clustering>
<clus scale="   41.746">  1  9  2 -1</clus>
<clus scale="   45.328">  2 10  1 -1</clus>
<clus scale="   89.066">  7  8 -1 -1</clus>
<clus scale="   92.154">  5  6 -1 -1</clus>
<clus scale="   98.118">  2  7  1 -1</clus>
<clus scale="   45.328">  2  5  1 -1</clus>
</clustering>
</event>
<event>
10    2  0.3544405E-006  0.9851918E+02  0.7546771E-02  0.1286080E+00
          1   -1    0    0  503    0 -0.00000000000E+00  0.00000000000E+00  0.32299684149E+03  0.32299684149E+03  0.00000000000E+00 0. -1.
         21   -1    0    0  501  502  0.00000000000E+00 -0.00000000000E+00 -0.51468812393E+02  0.51468812393E+02  0.00000000000E+00 0.  1.
         23    2    1    2    0    0 -0.14228309183E+02 -0.69648962186E+01  0.10442390003E+03  0.13962203195E+03  0.91318159999E+02 0.  0.
         23    2    1    2    0    0  0.24301485376E+02  0.10294504889E+02  0.99856572578E+02  0.14116583795E+03  0.96228476530E+02 0.  0.
        -11    1    3    3    0    0 -0.13040821467E+02 -0.48811479243E+02  0.62617310979E+02  0.80458381569E+02  0.00000000000E+00 0.  1.
         11    1    3    3    0    0 -0.11874877167E+01  0.41846583024E+02  0.41806589050E+02  0.59163650376E+02  0.00000000000E+00 0. -1.
        -13    1    4    4    0    0  0.15749000212E+02 -0.38738059568E+02  0.18355272848E+02  0.45668197995E+02  0.00000000000E+00 0.  1.
         13    1    4    4    0    0  0.85524851640E+01  0.49032564457E+02  0.81501299731E+02  0.95497639958E+02  0.00000000000E+00 0. -1.
         21    1    1    2  503  502 -0.41150269705E+00 -0.23464149115E+02  0.67374621821E+02  0.71344763604E+02  0.00000000000E+00 0.  1.
          1    1    1    2  501    0 -0.96616734959E+01  0.20134540445E+02 -0.12706533303E+00  0.22333020379E+02  0.00000000000E+00 0. -1.
<scales pt_clust_5="13000.00000" pt_clust_6="13000.00000" pt_clust_7="13000.00000" pt_clust_8="13000.00000" pt_clust_9="22.48841" pt_clust_10="22.33266"></scales>
<clustering>
<clus scale="   22.333">  2 10  1 -1</clus>
<clus scale="   22.488">  1  9  2 -1</clus>
<clus scale="   91.318">  5  6 -1 -1</clus>
<clus scale="   93.729">  1  5  2 -1</clus>
<clus scale="   96.228">  7  8 -1 -1</clus>
<clus scale="   22.333">  2  5  1 -1</clus>
</clustering>
</event>
<event>
10    2  0.3544405E-006  0.9421145E+02  0.7546771E-02  0.1293880E+00
          3   -1    0    0  503    0 -0.00000000000E+00  0.00000000000E+00  0.22129023972E+03  0.22129023972E+03  0.00000000000E+00 0. -1.
         21   -1    0    0  501  502  0.00000000000E+00 -0.00000000000E+00 -0.19857140178E+03  0.19857140178E+03  0.00000000000E+00 0.  1.
         23    2    1    2    0    0 -0.15030877090E+02 -0.26303974755E+02  0.30633582943E+02  0.10181617635E+03  0.92251238519E+02 0.  0.
         23    2    1    2    0    0 -0.26677495120E+02 -0.49738949259E+02 -0.54938119117E+02  0.12252610577E+03  0.93855196153E+02 0.  0.
        -11    1    3    3    0    0  0.36539149356E+02  0.35822120761E+01  0.54766258132E+01  0.37120548343E+02  0.00000000000E+00 0. -1.
         11    1    3    3    0    0 -0.51570026446E+02 -0.29886186831E+02  0.25156957130E+02  0.64695628005E+02  0.00000000000E+00 0.  1.
        -13    1    4    4    0    0  0.42814010136E+01 -0.20596667150E+02  0.24580999728E+02  0.32353958644E+02  0.00000000000E+00 0. -1.
         13    1    4    4    0    0 -0.30958896134E+02 -0.29142282109E+02 -0.79519118845E+02  0.90172147131E+02  0.00000000000E+00 0.  1.
         21    1    1    2  503  502  0.26855820687E+02 -0.91472442951E+01  0.93245514090E+02  0.97466061174E+02  0.00000000000E+00 0. -1.
          3    1    1    2  501    0  0.14852551523E+02  0.85190168308E+02 -0.46222139980E+02  0.98053298198E+02  0.00000000000E+00 0. -1.
<scales pt_clust_5="13000.00000" pt_clust_6="13000.00000" pt_clust_7="13000.00000" pt_clust_8="13000.00000" pt_clust_9="28.37089" pt_clust_10="85.76419"></scales>
<clustering>
<clus scale="   28.371">  1  9  2 -1</clus>
<clus scale="   85.764">  2 10  1 -1</clus>
<clus scale="   92.251">  5  6 -1 -1</clus>
<clus scale="   92.614">  1  5  2 -1</clus>
<clus scale="   93.855">  7  8 -1 -1</clus>
<clus scale="   85.764">  2  5  1 -1</clus>
</clustering>
</event>
<event>
10    2  0.3544405E-006  0.1821625E+03  0.7546771E-02  0.1185708E+00
         21   -1    0    0  501  502  0.00000000000E+00  0.00000000000E+00  0.63474277648E+03  0.63474277648E+03  0.00000000000E+00 0.  1.
          2   -1    0    0  503    0 -0.00000000000E+00 -0.00000000000E+00 -0.15331878279E+03  0.15331878279E+03  0.00000000000E+00 0. -1.
         23    2    1    2    0    0  0.10533528217E+02 -0.60183253179E+02 -0.34441153218E+02  0.11802929349E+03  0.94930194914E+02 0.  0.
         23    2    1    2    0    0 -0.82275564526E+02 -0.11151408821E+03  0.33561869983E+03  0.37443928591E+03  0.91434166340E+02 0.  0.
        -11    1    4    4    0    0 -0.17158697346E+02 -0.89963299552E+02  0.23902242426E+03  0.25596784068E+03  0.00000000000E+00 0.  1.
         11    1    4    4    0    0 -0.65116867181E+02 -0.21550788654E+02  0.96596275565E+02  0.11847144524E+03  0.00000000000E+00 0. -1.
        -13    1    3    3    0    0 -0.16562218454E+02 -0.73519646741E+02 -0.44901213670E+01  0.75495739793E+02  0.00000000000E+00 0.  1.
         13    1    3    3    0    0  0.27095746672E+02  0.13336393562E+02 -0.29951031851E+02  0.42533553694E+02  0.00000000000E+00 0. -1.
         21    1    1    2  503  502 -0.18566242493E+02 -0.11561524590E+02 -0.18061651343E+01  0.21946217069E+02  0.00000000000E+00 0.  1.
          2    1    1    2  501    0  0.90308278802E+02  0.18325886598E+03  0.18205261221E+03  0.27364676280E+03  0.00000000000E+00 0. -1.
<scales pt_clust_5="13000.00000" pt_clust_6="13000.00000" pt_clust_7="13000.00000" pt_clust_8="13000.00000" pt_clust_9="21.87177" pt_clust_10="157.55318"></scales>
<clustering>
<clus scale="   21.872">  2  9  1 -1</clus>
<clus scale="   91.434">  5  6 -1 -1</clus>
<clus scale="   94.930">  7  8 -1 -1</clus>
<clus scale="  115.857">  2  7  1 -1</clus>
<clus scale="  157.553">  1 10  2 -1</clus>
<clus scale="  157.553">  1  5  2 -1</clus>
</clustering>
</event>
<event>
10    2  0.3544405E-006  0.2125547E+03  0.7546771E-02  0.1174413E+00
         21   -1    0    0  503  502  0.00000000000E+00  0.00000000000E+00  0.58758754320E+03  0.58758754320E+03  0.00000000000E+00 0.  1.
         -1   -1    0    0    0  501 -0.00000000000E+00 -0.00000000000E+00 -0.58501784116E+03  0.58501784116E+03  0.00000000000E+00 0.  1.
         23    2    1    2    0    0  0.21731775118E+02 -0.36268873164E+01 -0.25252152913E+03  0.26945103737E+03  0.91385526753E+02 0.  0.
         23    2    1    2    0    0  0.13881707352E+03  0.75560118648E+02  0.10194667060E+03  0.20827378056E+03  0.89472524233E+02 0.  0.
        -11    1    3    3    0    0 -0.34547516505E+02  0.25220178895E+00 -0.13091167486E+03  0.13539372628E+03  0.00000000000E+00 0.  1.
         11    1    3    3    0    0  0.56279291624E+02 -0.38790891053E+01 -0.12160985427E+03  0.13405731108E+03  0.00000000000E+00 0. -1.
        -13    1    4    4    0    0  0.29685502977E+02  0.62928706339E+02  0.55482404393E+02  0.88991844377E+02  0.00000000000E+00 0.  1.
         13    1    4    4    0    0  0.10913157054E+03  0.12631412310E+02  0.46464266209E+02  0.11928193618E+03  0.00000000000E+00 0. -1.
         21    1    1    2  503  501 -0.94078049320E+02 -0.19554110007E+03 -0.21220015377E+03  0.30350602373E+03  0.00000000000E+00 0.  1.
         -1    1    1    2    0  502 -0.66470799316E+02  0.12360786874E+03  0.36534471434E+03  0.39137454270E+03  0.00000000000E+00 0.  1.
<scales pt_clust_5="13000.00000" pt_clust_6="13000.00000" pt_clust_7="13000.00000" pt_clust_8="13000.00000" pt_clust_9="192.80603" pt_clust_10="139.80702"></scales>
<clustering>
<clus scale="   89.473">  7  8 -1 -1</clus>
<clus scale="   91.386">  5  6 -1 -1</clus>
<clus scale="   94.004">  2  5  1 -1</clus>
<clus scale="  139.807">  1 10  2 -1</clus>
<clus scale="  192.806">  2  9  1 -1</clus>
<clus scale="  139.807">  1  5  2 -1</clus>
</clustering>
</event>
<event>
10    2  0.3544405E-006  0.1057432E+03  0.7546771E-02  0.1270781E+00
          2   -1    0    0  503    0 -0.00000000000E+00  0.00000000000E+00  0.74819387294E+03  0.74819387294E+03  0.00000000000E+00 0. -1.
         21   -1    0    0  501  502  0.00000000000E+00 -0.00000000000E+00 -0.48136489915E+02  0.48136489915E+02  0.00000000000E+00 0. -1.
         23    2    1    2    0    0 -0.14254109080E+02  0.13479138491E+02  0.22326749818E+03  0.24411856744E+03  0.96750361393E+02 0.  0.
         23    2    1    2    0    0 -0.44703079005E+02 -0.53555907424E+02  0.68665972543E+02  0.13439548052E+03  0.92089787203E+02 0.  0.
        -11    1    3    3    0    0  0.26085188282E+02 -0.15172764498E+02  0.23313313629E+02  0.38133455424E+02  0.00000000000E+00 0.  1.
         11    1    3    3    0    0 -0.40339297362E+02  0.28651902988E+02  0.19995418455E+03  0.20598511202E+03  0.00000000000E+00 0. -1.
        -11    1    4    4    0    0 -0.62106490035E+02 -0.10989521995E+02  0.61057087487E+02  0.87783561277E+02  0.00000000000E+00 0. -1.
         11    1    4    4    0    0  0.17403411029E+02 -0.42566385429E+02  0.76088850562E+01  0.46611919245E+02  0.00000000000E+00 0.  1.
         21    1    1    2  503  502  0.31207672119E+02  0.45386275390E+02  0.33360176922E+03  0.33811828288E+03  0.00000000000E+00 0. -1.
          2    1    1    2  501    0  0.27749515966E+02 -0.53095064571E+01  0.74522143086E+02  0.79698032004E+02  0.00000000000E+00 0. -1.
<scales pt_clust_5="13000.00000" pt_clust_6="13000.00000" pt_clust_7="13000.00000" pt_clust_8="13000.00000" pt_clust_9="55.65762" pt_clust_10="28.25292"></scales>
<clustering>
<clus scale="   28.253">  2 10  1 -1</clus>
<clus scale="   55.658">  1  9  2 -1</clus>
<clus scale="   92.090">  7  8 -1 -1</clus>
<clus scale="   96.750">  5  6 -1 -1</clus>
<clus scale="  101.496">  2  7  1 -1</clus>
<clus scale="   28.253">  2  5  1 -1</clus>
</clustering>
</event>
<event>
10    2  0.3544405E-006  0.1175079E+03  0.7546771E-02  0.1265522E+00
         21   -1    0    0  503  502  0.00000000000E+00  0.00000000000E+00  0.16279096210E+03  0.16279096210E+03  0.00000000000E+00 0.  1.
         -4   -1    0    0    0  501 -0.00000000000E+00 -0.00000000000E+00 -0.23380574696E+03  0.23380574696E+03  0.00000000000E+00 0.  1.
         23    2    1    2    0    0  0.10504700934E+02 -0.17203586470E+02 -0.64497993259E+02  0.10590840254E+03  0.81549288568E+02 0.  0.
         23    2    1    2    0    0  0.61205640776E+02  0.56668140041E+02  0.15273521283E+02  0.11716421970E+03  0.80850265104E+02 0.  0.
        -11    1    3    3    0    0  0.25026769052E+02  0.27220417258E+02 -0.24153587135E+02  0.44166571707E+02  0.00000000000E+00 0.  1.
         11    1    3    3    0    0 -0.14522068118E+02 -0.44424003728E+02 -0.40344406125E+02  0.61741830838E+02  0.00000000000E+00 0. -1.
        -13    1    4    4    0    0  0.16596929141E+02  0.67913494993E+02  0.54608168610E+01  0.70125041033E+02  0.00000000000E+00 0.  1.
         13    1    4    4    0    0  0.44608711635E+02 -0.11245354952E+02  0.98127044216E+01  0.47039178669E+02  0.00000000000E+00 0. -1.
         21    1    1    2  503  501 -0.10704995605E+02  0.21450366002E+02 -0.70527663273E+02  0.74490713645E+02  0.00000000000E+00 0.  1.
         -4    1    1    2    0  502 -0.61005346105E+02 -0.60914919573E+02  0.48737350389E+02  0.99033373178E+02  0.00000000000E+00 0.  1.
<scales pt_clust_5="13000.00000" pt_clust_6="13000.00000" pt_clust_7="13000.00000" pt_clust_8="13000.00000" pt_clust_9="23.97322" pt_clust_10="85.27216"></scales>
<clustering>
<clus scale="   23.973">  2  9  1 -1</clus>
<clus scale="   80.850">  7  8 -1 -1</clus>
<clus scale="   81.549">  5  6 -1 -1</clus>
<clus scale="   81.904">  2  5  1 -1</clus>
<clus scale="   85.272">  1 10  2 -1</clus>
<clus scale="   85.272">  1  5  2 -1</clus>
</clustering>
</event>
<event>
10    2  0.3544405E-006  0.1152340E+03  0.7546771E-02  0.1252559E+00
          1   -1    0    0  503    0 -0.00000000000E+00  0.00000000000E+00  0.23980134346E+03  0.23980134346E+03  0.00000000000E+00 0. -1.
         21   -1    0    0  501  502  0.00000000000E+00 -0.00000000000E+00 -0.21450311135E+03  0.21450311135E+03  0.00000000000E+00 0.  1.
         23    2    1    2    0    0 -0.86440315058E+01  0.61021418388E+02  0.49145679213E+02  0.11837998262E+03  0.88318682723E+02 0.  0.
         23    2    1    2    0    0  0.54409322031E+02 -0.69227649043E+02 -0.74053675013E+02  0.14748017407E+03  0.92269243220E+02 0.  0.
        -11    1    3    3    0    0  0.17269684593E+02 -0.16964841411E+02  0.19260687529E+02  0.30935771109E+02  0.00000000000E+00 0.  1.
         11    1    3    3    0    0 -0.25913716098E+02  0.77986259799E+02  0.29884991684E+02  0.87444211515E+02  0.00000000000E+00 0. -1.
        -11    1    4    4    0    0  0.76012859944E+02 -0.29691972134E+02 -0.55853547895E+02  0.98889771455E+02  0.00000000000E+00 0.  1.
         11    1    4    4    0    0 -0.21603537913E+02 -0.39535676909E+02 -0.18200127118E+02  0.48590402613E+02  0.00000000000E+00 0. -1.
         21    1    1    2  503  502 -0.21545157033E+02 -0.18121173570E+01  0.11580342612E+03  0.11780454602E+03  0.00000000000E+00 0. -1.
          1    1    1    2  501    0 -0.24220133492E+02  0.10018348012E+02 -0.65597198212E+02  0.70639752098E+02  0.00000000000E+00 0. -1.
<scales pt_clust_5="13000.00000" pt_clust_6="13000.00000" pt_clust_7="13000.00000" pt_clust_8="13000.00000" pt_clust_9="21.62123" pt_clust_10="26.60503"></scales>
<clustering>
<clus scale="   21.621">  1  9  2 -1</clus>
<clus scale="   26.605">  2 10  1 -1</clus>
<clus scale="   88.319">  5  6 -1 -1</clus>
<clus scale="   92.269">  7  8 -1 -1</clus>
<clus scale="  112.096">  1  5  2 -1</clus>
<clus scale="   26.605">  2  5  1 -1</clus>
</clustering>
</event>
<event>
10    2  0.3544405E-006  0.2885008E+03  0.7546771E-02  0.1097750E+00
         21   -1    0    0  501  502  0.00000000000E+00  0.00000000000E+00  0.25995878177E+03  0.25995878177E+03  0.00000000000E+00 0. -1.
          1   -1    0    0  503    0 -0.00000000000E+00 -0.00000000000E+00 -0.22076560229E+04  0.22076560229E+04  0.00000000000E+00 0. -1.
         23    2    1    2    0    0  0.18740152018E+03  0.82057412808E+02 -0.20803252544E+03  0.30603862305E+03  0.92354525576E+02 0.  0.
         23    2    1    2    0    0 -0.51404497669E+03 -0.20402429393E+03 -0.10406375525E+04  0.11820645598E+04  0.92097543238E+02 0.  0.
        -13    1    3    3    0    0  0.11937749981E+03  0.76431266171E+02 -0.18692622367E+03  0.23459356130E+03  0.00000000000E+00 0.  1.
         13    1    3    3    0    0  0.68024020376E+02  0.56261466370E+01 -0.21106301772E+02  0.71445061751E+02  0.00000000000E+00 0. -1.
        -13    1    4    4    0    0 -0.18446831542E+02 -0.29442096811E+02 -0.53527207734E+02  0.63814454682E+02  0.00000000000E+00 0.  1.
         13    1    4    4    0    0 -0.49559814515E+03 -0.17458219712E+03 -0.98711034472E+03  0.11182501052E+04  0.00000000000E+00 0. -1.
         21    1    1    2  503  502  0.13649336532E+03 -0.35551377084E+02 -0.71813399438E+03  0.73185433870E+03  0.00000000000E+00 0.  1.
          1    1    1    2  501    0  0.19015009119E+03  0.15751825821E+03  0.19106831173E+02  0.24765728305E+03  0.00000000000E+00 0. -1.
<scales pt_clust_5="13000.00000" pt_clust_6="13000.00000" pt_clust_7="13000.00000" pt_clust_8="13000.00000" pt_clust_9="141.04729" pt_clust_10="273.40581"></scales>
<clustering>
<clus scale="   92.098">  7  8 -1 -1</clus>
<clus scale="   92.355">  5  6 -1 -1</clus>
<clus scale="  141.047">  2  9  1 -1</clus>
<clus scale="  242.564">  2  5  1 -1</clus>
<clus scale="  273.406">  1 10  2 -1</clus>
<clus scale="  273.406">  1  5  2 -1</clus>
</clustering>
</event>
<event>
10    2  0.3544405E-006  0.1118835E+03  0.7546771E-02  0.1260493E+00
          4   -1    0    0  503    0 -0.00000000000E+00  0.00000000000E+00  0.28428974728E+03  0.28428974728E+03  0.00000000000E+00 0. -1.
         21   -1    0    0  501  502  0.00000000000E+00 -0.00000000000E+00 -0.41577885195E+03  0.41577885195E+03  0.00000000000E+00 0.  1.
         23    2    1    2    0    0  0.65465925475E+02 -0.11741361918E+02  0.19826504920E+03  0.22634472966E+03  0.86598267485E+02 0.  0.
         23    2    1    2    0    0  0.80683059556E+01  0.46316747536E+02 -0.75789511826E+02  0.13042398961E+03  0.95163166716E+02 0.  0.
        -13    1    4    4    0    0  0.42959628488E+02  0.19751053297E+02 -0.72357406384E+02  0.86436265796E+02  0.00000000000E+00 0.  1.
         13    1    4    4    0    0 -0.34891322533E+02  0.26565694238E+02 -0.34321054417E+01  0.43987723813E+02  0.00000000000E+00 0. -1.
        -13    1    3    3    0    0  0.67923767093E+02  0.17160805726E+02  0.17705263342E+03  0.19040947033E+03  0.00000000000E+00 0. -1.
         13    1    3    3    0    0 -0.24578416176E+01 -0.28902167644E+02  0.21212415781E+02  0.35935259331E+02  0.00000000000E+00 0.  1.
         21    1    1    2  503  502 -0.19555086195E+02 -0.81225420413E+02 -0.43166722373E+01  0.83657659401E+02  0.00000000000E+00 0.  1.
          4    1    1    2  501    0 -0.53979145236E+02  0.46650034796E+02 -0.24964796981E+03  0.25964222056E+03  0.00000000000E+00 0. -1.
<scales pt_clust_5="13000.00000" pt_clust_6="13000.00000" pt_clust_7="13000.00000" pt_clust_8="13000.00000" pt_clust_9="76.59513" pt_clust_10="71.34405"></scales>
<clustering>
<clus scale="   71.344">  2 10  1 -1</clus>
<clus scale="   76.595">  2  9  1 -1</clus>
<clus scale="   86.598">  7  8 -1 -1</clus>
<clus scale="   95.163">  5  6 -1 -1</clus>
<clus scale="  104.696">  1  7  2 -1</clus>
<clus scale="   71.344">  2  5  1 -1</clus>
</clustering>
</event>
<event>
10    2  0.3544405E-006  0.1286432E+03  0.7546771E-02  0.1237826E+00
          1   -1    0    0  503    0 -0.00000000000E+00  0.00000000000E+00  0.56027139189E+03  0.56027139189E+03  0.00000000000E+00 0. -1.
         21   -1    0    0  501  502  0.00000000000E+00 -0.00000000000E+00 -0.50336126218E+02  0.50336126218E+02  0.00000000000E+00 0.  1.
         23    2    1    2    0    0 -0.58191361502E+02 -0.24360946975E+02  0.16464992479E+03  0.19827700254E+03  0.90688928273E+02 0.  0.
         23    2    1    2    0    0  0.33015105141E+02  0.61574954637E+02  0.16464932811E+03  0.21216570484E+03  0.11412016849E+03 0.  0.
        -13    1    3    3    0    0 -0.23215328716E+01 -0.48881582994E+02  0.82934821527E+02  0.96296330629E+02  0.00000000000E+00 0. -1.
         13    1    3    3    0    0 -0.55869828630E+02  0.24520636018E+02  0.81715103262E+02  0.10198067191E+03  0.00000000000E+00 0.  1.
        -13    1    4    4    0    0 -0.26570175966E+02  0.66723913573E+02  0.10859788484E+03  0.13019813933E+03  0.00000000000E+00 0.  1.
         13    1    4    4    0    0  0.59585281107E+02 -0.51489589360E+01  0.56051443274E+02  0.81967565511E+02  0.00000000000E+00 0. -1.
         21    1    1    2  503  502  0.45307146759E+02 -0.10860096827E+02  0.14092866077E+03  0.14843034284E+03  0.00000000000E+00 0. -1.
          1    1    1    2  501    0 -0.20130890399E+02 -0.26353910835E+02  0.39707352003E+02  0.51734467887E+02  0.00000000000E+00 0. -1.
<scales pt_clust_5="13000.00000" pt_clust_6="13000.00000" pt_clust_7="13000.00000" pt_clust_8="13000.00000" pt_clust_9="45.52610" pt_clust_10="33.16295"></scales>
<clustering>
<clus scale="   33.163">  2 10  1 -1</clus>
<clus scale="   45.526">  1  9  2 -1</clus>
<clus scale="   90.689">  5  6 -1 -1</clus>
<clus scale="  108.398">  1  5  2 -1</clus>
<clus scale="  114.120">  7  8 -1 -1</clus>
<clus scale="   33.163">  2  5  1 -1</clus>
</clustering>
</event>
<event>
10    2  0.3544405E-006  0.1301043E+03  0.7546771E-02  0.1228388E+00
          3   -1    0    0  503    0 -0.00000000000E+00  0.00000000000E+00  0.13959812626E+03  0.13959812626E+03  0.00000000000E+00 0. -1.
         21   -1    0    0  501  502  0.00000000000E+00 -0.00000000000E+00 -0.27416536704E+03  0.27416536704E+03  0.00000000000E+00 0.  1.
         23    2    1    2    0    0  0.69533996774E+02  0.61697198841E+02 -0.44432819011E+02  0.13929704566E+03  0.93743642309E+02 0.  0.
         23    2    1    2    0    0 -0.14003044554E+02 -0.95791907991E+02 -0.11142628158E+03  0.17271442136E+03  0.89678761290E+02 0.  0.
        -11    1    3    3    0    0  0.28042050783E+02  0.10623023583E+02  0.28287487716E+02  0.41223624336E+02  0.00000000000E+00 0. -1.
         11    1    3    3    0    0  0.41491945991E+02  0.51074175258E+02 -0.72720306727E+02  0.98073421328E+02  0.00000000000E+00 0.  1.
        -13    1    4    4    0    0 -0.12673801782E+02 -0.21736123686E+02 -0.93062862518E+02  0.96404256672E+02  0.00000000000E+00 0. -1.
         13    1    4    4    0    0 -0.13292427718E+01 -0.74055784305E+02 -0.18363419061E+02  0.76310164690E+02  0.00000000000E+00 0.  1.
         21    1    1    2  503  502 -0.12880455692E+02  0.16395242130E+02  0.45182192980E+02  0.49760834657E+02  0.00000000000E+00 0. -1.
          3    1    1    2  501    0 -0.42650496528E+02  0.17699467020E+02 -0.23890333168E+02  0.51991191617E+02  0.00000000000E+00 0. -1.
<scales pt_clust_5="13000.00000" pt_clust_6="13000.00000" pt_clust_7="13000.00000" pt_clust_8="13000.00000" pt_clust_9="20.84970" pt_clust_10="48.97478"></scales>
<clustering>
<clus scale="   20.850">  1  9  2 -1</clus>
<clus scale="   48.975">  2 10  1 -1</clus>
<clus scale="   89.679">  7  8 -1 -1</clus>
<clus scale="   93.744">  5  6 -1 -1</clus>
<clus scale="  127.207">  2  7  1 -1</clus>
<clus scale="   48.975">  2  5  1 -1</clus>
</clustering>
</event>
<event>
10    2  0.3544405E-006  0.3096040E+03  0.7546771E-02  0.1101708E+00
          1   -1    0    0  503    0 -0.00000000000E+00  0.00000000000E+00  0.32601639137E+03  0.32601639137E+03  0.00000000000E+00 0. -1.
         21   -1    0    0  501  502  0.00000000000E+00 -0.00000000000E+00 -0.11627031176E+04  0.11627031176E+04  0.00000000000E+00 0. -1.
         23    2    1    2    0    0 -0.14247083533E+03  0.51394225884E+02 -0.16254527019E+02  0.17784595176E+03  0.91791434985E+02 0.  0.
         23    2    1    2    0    0  0.27531874835E+03  0.12831218971E+03 -0.10476411874E+03  0.33294520325E+03  0.87249966021E+02 0.  0.
        -11    1    4    4    0    0  0.10242116215E+03  0.49799314946E+02 -0.84840108788E+02  0.14201376794E+03  0.00000000000E+00 0.  1.
         11    1    4    4    0    0  0.17289758620E+03  0.78512874769E+02 -0.19924009957E+02  0.19093143531E+03  0.00000000000E+00 0. -1.
        -11    1    3    3    0    0 -0.97067367382E+02  0.75285432018E+02 -0.26152563269E+02  0.12559429386E+03  0.00000000000E+00 0.  1.
         11    1    3    3    0    0 -0.45403467944E+02 -0.23891206134E+02  0.98980362499E+01  0.52251657902E+02  0.00000000000E+00 0. -1.
         21    1    1    2  503  502 -0.38355765520E+03 -0.11296888965E+03 -0.50232348864E+03  0.64203374688E+03  0.00000000000E+00 0. -1.
          1    1    1    2  501    0  0.25070974218E+03 -0.66737525945E+02 -0.21334459180E+03  0.33589460705E+03  0.00000000000E+00 0. -1.
<scales pt_clust_5="13000.00000" pt_clust_6="13000.00000" pt_clust_7="13000.00000" pt_clust_8="13000.00000" pt_clust_9="297.05573" pt_clust_10="221.75859"></scales>
<clustering>
<clus scale="   87.250">  5  6 -1 -1</clus>
<clus scale="   91.791">  7  8 -1 -1</clus>
<clus scale="  177.102">  1  7  2 -1</clus>
<clus scale="  221.759">  2 10  1 -1</clus>
<clus scale="  297.056">  2  9  1 -1</clus>
<clus scale="  221.759">  2  5  1 -1</clus>
</clustering>
</event>
<event>
10    2  0.3544405E-006  0.1170880E+03  0.7546771E-02  0.1248045E+00
         -1   -1    0    0    0  501 -0.00000000000E+00  0.00000000000E+00  0.29695946742E+03  0.29695946742E+03  0.00000000000E+00 0.  1.
         21   -1    0    0  503  502  0.00000000000E+00 -0.00000000000E+00 -0.29983374366E+03  0.29983374366E+03  0.00000000000E+00 0. -1.
         23    2    1    2    0    0  0.81866064860E+02 -0.29858083965E+02  0.14698216743E+03  0.19418928218E+03  0.92261378795E+02 0.  0.
         23    2    1    2    0    0 -0.30079507294E+02 -0.78405613268E+02 -0.73456782357E+02  0.14465323452E+03  0.92067597074E+02 0.  0.
        -13    1    4    4    0    0 -0.58733812779E+02 -0.75711153974E+02 -0.57311298640E+02  0.11165314394E+03  0.00000000000E+00 0. -1.
         13    1    4    4    0    0  0.28654305485E+02 -0.26944592942E+01 -0.16145483716E+02  0.33000090578E+02  0.00000000000E+00 0.  1.
        -13    1    3    3    0    0  0.87186639562E+02  0.38660714275E+01  0.12859143752E+03  0.15540982732E+03  0.00000000000E+00 0.  1.
         13    1    3    3    0    0 -0.53205747025E+01 -0.33724155392E+02  0.18390729913E+02  0.38779454855E+02  0.00000000000E+00 0. -1.
         21    1    1    2  503  501 -0.22811759027E+02  0.85873899182E+02  0.66150436801E+02  0.11077266450E+03  0.00000000000E+00 0.  1.
         -1    1    1    2    0  502 -0.28974798539E+02  0.22389798050E+02 -0.14255009812E+03  0.14717802989E+03  0.00000000000E+00 0.  1.
<scales pt_clust_5="13000.00000" pt_clust_6="13000.00000" pt_clust_7="13000.00000" pt_clust_8="13000.00000" pt_clust_9="93.09372" pt_clust_10="36.61751"></scales>
<clustering>
<clus scale="   36.618">  2 10  1 -1</clus>
<clus scale="   92.068">  5  6 -1 -1</clus>
<clus scale="   92.261">  7  8 -1 -1</clus>
<clus scale="   93.094">  1  9  2 -1</clus>
<clus scale="  116.935">  2  5  1 -1</clus>
<clus scale="   36.618">  2  5  1 -1</clus>
</clustering>
</event>
<event>
10    2  0.3544405E-006  0.1630957E+03  0.7546771E-02  0.1196652E+00
         21   -1    0    0  501  502  0.00000000000E+00  0.00000000000E+00  0.23821610235E+03  0.23821610235E+03  0.00000000000E+00 0. -1.
          2   -1    0    0  503    0 -0.00000000000E+00 -0.00000000000E+00 -0.33848446527E+03  0.33848446527E+03  0.00000000000E+00 0. -1.
         23    2    1    2    0    0  0.75306735607E+02  0.11519510085E+02 -0.13840674163E+03  0.18210507327E+03  0.90565048666E+02 0.  0.
         23    2    1    2    0    0 -0.56572235832E+02  0.11762677860E+03 -0.47517238440E+02  0.16586292770E+03  0.90642958494E+02 0.  0.
        -11    1    4    4    0    0 -0.22017189516E+02  0.10793821659E+03 -0.62859402524E+02  0.12683343297E+03  0.00000000000E+00 0. -1.
         11    1    4    4    0    0 -0.34555046317E+02  0.96885620177E+01  0.15342164084E+02  0.39029494728E+02  0.00000000000E+00 0.  1.
        -13    1    3    3    0    0  0.40405735749E+02 -0.28380179827E+02 -0.21722079087E+02  0.53943552055E+02  0.00000000000E+00 0. -1.
         13    1    3    3    0    0  0.34900999858E+02  0.39899689911E+02 -0.11668466255E+03  0.12816152121E+03  0.00000000000E+00 0.  1.
         21    1    1    2  503  502  0.22136251922E+02  0.10886691078E+02 -0.32644748216E+02  0.40917151390E+02  0.00000000000E+00 0. -1.
          2    1    1    2  501    0 -0.40870751697E+02 -0.14003297977E+03  0.11830036536E+03  0.18781541527E+03  0.00000000000E+00 0. -1.
<scales pt_clust_5="13000.00000" pt_clust_6="13000.00000" pt_clust_7="13000.00000" pt_clust_8="13000.00000" pt_clust_9="24.66848" pt_clust_10="135.58783"></scales>
<clustering>
<clus scale="   24.668">  2  9  1 -1</clus>
<clus scale="   90.565">  7  8 -1 -1</clus>
<clus scale="   90.643">  5  6 -1 -1</clus>
<clus scale="  126.814">  2  7  1 -1</clus>
<clus scale="  135.588">  1 10  2 -1</clus>
<clus scale="  135.588">  1  5  2 -1</clus>
</clustering>
</event>
<event>
10    2  0.3544405E-006  0.1000238E+03  0.7546771E-02  0.1280761E+00
         21   -1    0    0  501  502  0.00000000000E+00  0.00000000000E+00  0.98109351675E+02  0.98109351675E+02  0.00000000000E+00 0.  1.
          1   -1    0    0  503    0 -0.00000000000E+00 -0.00000000000E+00 -0.29584827917E+03  0.29584827917E+03  0.00000000000E+00 0. -1.
         23    2    1    2    0    0  0.83126932062E+01 -0.40016020732E+02 -0.55084101814E+02  0.11380911144E+03  0.90817799969E+02 0.  0.
         23    2    1    2    0    0 -0.49444439670E+01  0.49145033869E+02  0.82241503935E+01  0.10276658961E+03  0.89742149569E+02 0.  0.
        -11    1    4    4    0    0 -0.23468923932E+00  0.68642475167E+02  0.28428138115E+02  0.74296726124E+02  0.00000000000E+00 0.  1.
         11    1    4    4    0    0 -0.47097547277E+01 -0.19497441298E+02 -0.20203987721E+02  0.28469863481E+02  0.00000000000E+00 0. -1.
        -13    1    3    3    0    0 -0.28197181474E+02 -0.53592577135E+02 -0.35741101066E+02  0.70318359427E+02  0.00000000000E+00 0. -1.
         13    1    3    3    0    0  0.36509874681E+02  0.13576556403E+02 -0.19343000749E+02  0.43490752016E+02  0.00000000000E+00 0.  1.
         21    1    1    2  503  502 -0.24333334674E+02  0.44788072966E+01 -0.15036031493E+03  0.15238239793E+03  0.00000000000E+00 0. -1.
          1    1    1    2  501    0  0.20965085435E+02 -0.13607820433E+02 -0.51866113916E+00  0.24999531868E+02  0.00000000000E+00 0. -1.
<scales pt_clust_5="13000.00000" pt_clust_6="13000.00000" pt_clust_7="13000.00000" pt_clust_8="13000.00000" pt_clust_9="24.74209" pt_clust_10="22.99157"></scales>
<clustering>
<clus scale="   24.742">  2  9  1 -1</clus>
<clus scale="   22.992">  1 10  2 -1</clus>
<clus scale="   89.742">  5  6 -1 -1</clus>
<clus scale="   90.818">  7  8 -1 -1</clus>
<clus scale="   99.048">  1  5  2 -1</clus>
<clus scale="   22.992">  1  5  2 -1</clus>
</clustering>
</event>
<event>
10    2  0.3544405E-006  0.1114518E+03  0.7546771E-02  0.1258134E+00
          1   -1    0    0  503    0 -0.00000000000E+00  0.00000000000E+00  0.21175848648E+03  0.21175848648E+03  0.00000000000E+00 0. -1.
         21   -1    0    0  501  502  0.00000000000E+00 -0.00000000000E+00 -0.33879278850E+03  0.33879278850E+03  0.00000000000E+00 0.  1.
         23    2    1    2    0    0  0.67154100015E+02 -0.33898579371E+02  0.11023511801E+03  0.16213369312E+03  0.92069356295E+02 0.  0.
         23    2    1    2    0    0 -0.39681041600E+02  0.55530423246E+02 -0.25630406920E+03  0.28056177842E+03  0.91459951098E+02 0.  0.
        -11    1    4    4    0    0  0.28392644521E+02  0.74183188912E+01 -0.87638357690E+02  0.92421076907E+02  0.00000000000E+00 0. -1.
         11    1    4    4    0    0 -0.68073686121E+02  0.48112104355E+02 -0.16866571151E+03  0.18814070151E+03  0.00000000000E+00 0.  1.
        -13    1    3    3    0    0  0.29628702302E+02 -0.39063442738E+02  0.11397237969E+03  0.12407060848E+03  0.00000000000E+00 0. -1.
         13    1    3    3    0    0  0.37525397712E+02  0.51648633674E+01 -0.37372616703E+01  0.38063084634E+02  0.00000000000E+00 0.  1.
         21    1    1    2  503  502 -0.47337678438E+02 -0.25931485257E+02  0.48161788666E+02  0.72338479491E+02  0.00000000000E+00 0. -1.
          1    1    1    2  501    0  0.19864620023E+02  0.42996413822E+01 -0.29127139501E+02  0.35517323945E+02  0.00000000000E+00 0. -1.
<scales pt_clust_5="13000.00000" pt_clust_6="13000.00000" pt_clust_7="13000.00000" pt_clust_8="13000.00000" pt_clust_9="53.20680" pt_clust_10="20.32462"></scales>
<clustering>
<clus scale="   20.325">  2 10  1 -1</clus>
<clus scale="   53.207">  1  9  2 -1</clus>
<clus scale="   91.460">  5  6 -1 -1</clus>
<clus scale="   92.069">  7  8 -1 -1</clus>
<clus scale="  110.949">  2  5  1 -1</clus>
<clus scale="   20.325">  2  5  1 -1</clus>
</clustering>
</event>
<event>
10    2  0.3544405E-006  0.1059745E+03  0.7546771E-02  0.1271217E+00
          2   -1    0    0  503    0 -0.00000000000E+00  0.00000000000E+00  0.64195861415E+03  0.64195861415E+03  0.00000000000E+00 0. -1.
         21   -1    0    0  501  502  0.00000000000E+00 -0.00000000000E+00 -0.63905576717E+02  0.63905576717E+02  0.00000000000E+00 0.  1.
         23    2    1    2    0    0  0.14673933928E+02  0.71552724467E+02  0.33888831320E+03  0.35927352379E+03  0.94324224664E+02 0.  0.
         23    2    1    2    0    0  0.37709607650E+02 -0.20891547815E+02  0.43451892713E+02  0.11779926306E+03  0.10064853758E+03 0.  0.
        -13    1    4    4    0    0  0.16024784786E+02  0.31874243565E+02 -0.12587520293E+02  0.37831293890E+02  0.00000000000E+00 0. -1.
         13    1    4    4    0    0  0.21684822865E+02 -0.52765791380E+02  0.56039413005E+02  0.79967969167E+02  0.00000000000E+00 0.  1.
        -13    1    3    3    0    0 -0.23373508002E+02  0.77256388814E+02  0.22212925429E+03  0.23633932406E+03  0.00000000000E+00 0. -1.
         13    1    3    3    0    0  0.38047441929E+02 -0.57036643476E+01  0.11675905892E+03  0.12293419973E+03  0.00000000000E+00 0.  1.
         21    1    1    2  503  502 -0.29942654527E+02 -0.53099007753E+02  0.19696614092E+03  0.20618372354E+03  0.00000000000E+00 0.  1.
          2    1    1    2  501    0 -0.22440887051E+02  0.24378311013E+01 -0.12533093994E+01  0.22607680478E+02  0.00000000000E+00 0. -1.
<scales pt_clust_5="13000.00000" pt_clust_6="13000.00000" pt_clust_7="13000.00000" pt_clust_8="13000.00000" pt_clust_9="61.77607" pt_clust_10="22.57291"></scales>
<clustering>
<clus scale="   22.573">  2 10  1 -1</clus>
<clus scale="   61.776">  1  9  2 -1</clus>
<clus scale="   94.324">  7  8 -1 -1</clus>
<clus scale="   99.988">  1  7  2 -1</clus>
<clus scale="  100.649">  5  6 -1 -1</clus>
<clus scale="   22.573">  2  5  1 -1</clus>
</clustering>
</event>
<event>
10    2  0.3544405E-006  0.1717858E+03  0.7546771E-02  0.1176340E+00
         21   -1    0    0  501  502  0.00000000000E+00  0.00000000000E+00  0.93967624371E+02  0.93967624371E+02  0.00000000000E+00 0.  1.
          1   -1    0    0  503    0 -0.00000000000E+00 -0.00000000000E+00 -0.80613276535E+03  0.80613276535E+03  0.00000000000E+00 0. -1.
         23    2    1    2    0    0 -0.14669599785E+03 -0.41872257984E+01 -0.20036313019E+03  0.26382077959E+03  0.88987477513E+02 0.  0.
         23    2    1    2    0    0  0.14165247074E+03  0.77424238799E+02 -0.91252704555E+02  0.20678010464E+03  0.91493280449E+02 0.  0.
        -11    1    3    3    0    0 -0.60520908458E+02 -0.40084493833E+02 -0.12188097717E+03  0.14186091640E+03  0.00000000000E+00 0. -1.
         11    1    3    3    0    0 -0.86175089395E+02  0.35897268035E+02 -0.78482153025E+02  0.12195986318E+03  0.00000000000E+00 0.  1.
        -13    1    4    4    0    0  0.11600483065E+03  0.98636812485E+02 -0.74521792364E+02  0.16952828392E+03  0.00000000000E+00 0.  1.
         13    1    4    4    0    0  0.25647640092E+02 -0.21212573685E+02 -0.16730912191E+02  0.37251820726E+02  0.00000000000E+00 0. -1.
         21    1    1    2  503  502  0.18644866538E+02 -0.75034157055E+01 -0.97433334580E+02  0.99484606763E+02  0.00000000000E+00 0. -1.
          1    1    1    2  501    0 -0.13601339425E+02 -0.65733597295E+02 -0.32311597165E+03  0.33001489873E+03  0.00000000000E+00 0. -1.
<scales pt_clust_5="13000.00000" pt_clust_6="13000.00000" pt_clust_7="13000.00000" pt_clust_8="13000.00000" pt_clust_9="20.09807" pt_clust_10="69.37641"></scales>
<clustering>
<clus scale="   20.098">  2  9  1 -1</clus>
<clus scale="   69.376">  1 10  2 -1</clus>
<clus scale="   88.987">  5  6 -1 -1</clus>
<clus scale="   91.493">  7  8 -1 -1</clus>
<clus scale="  170.464">  2  5  1 -1</clus>
<clus scale="   69.376">  1  5  2 -1</clus>
</clustering>
</event>
<event>
10    2  0.3544405E-006  0.2241736E+03  0.7546771E-02  0.1131023E+00
         21   -1    0    0  501  502  0.00000000000E+00  0.00000000000E+00  0.63316835918E+03  0.63316835918E+03  0.00000000000E+00 0. -1.
          1   -1    0    0  503    0 -0.00000000000E+00 -0.00000000000E+00 -0.21059184122E+03  0.21059184122E+03  0.00000000000E+00 0. -1.
         23    2    1    2    0    0  0.72611782672E+02  0.12534742543E+03  0.10129886158E+03  0.19944518255E+03  0.92371388639E+02 0.  0.
         23    2    1    2    0    0 -0.23383952806E+03 -0.21265914156E+03  0.21692453721E+03  0.39366221958E+03  0.89492194666E+02 0.  0.
        -13    1    3    3    0    0  0.46235377522E+02  0.58794138903E+02 -0.73753094415E+00  0.74799765079E+02  0.00000000000E+00 0.  1.
         13    1    3    3    0    0  0.26376405149E+02  0.66553286523E+02  0.10203639253E+03  0.12464541747E+03  0.00000000000E+00 0. -1.
        -13    1    4    4    0    0 -0.17111578555E+03 -0.98734824181E+02  0.14489338742E+03  0.24499647200E+03  0.00000000000E+00 0. -1.
         13    1    4    4    0    0 -0.62723742503E+02 -0.11392431737E+03  0.72031149790E+02  0.14866574758E+03  0.00000000000E+00 0.  1.
         21    1    1    2  503  502  0.19065639271E+02  0.13954028521E+02 -0.32464900362E+02  0.40152002046E+02  0.00000000000E+00 0.  1.
          1    1    1    2  501    0  0.14216210612E+03  0.73357687609E+02  0.13681801952E+03  0.21050079623E+03  0.00000000000E+00 0. -1.
<scales pt_clust_5="13000.00000" pt_clust_6="13000.00000" pt_clust_7="13000.00000" pt_clust_8="13000.00000" pt_clust_9="23.62654" pt_clust_10="164.90913"></scales>
<clustering>
<clus scale="   23.627">  2  9  1 -1</clus>
<clus scale="   89.492">  7  8 -1 -1</clus>
<clus scale="   92.371">  5  6 -1 -1</clus>
<clus scale="  164.909">  1 10  2 -1</clus>
<clus scale="  223.003">  1  7  2 -1</clus>
<clus scale="  164.909">  1  5  2 -1</clus>
</clustering>
</event>
<event>
10    2  0.3544405E-006  0.1403362E+03  0.7546771E-02  0.1213009E+00
         -1   -1    0    0    0  501 -0.00000000000E+00  0.00000000000E+00  0.17705680525E+04  0.17705680525E+04  0.00000000000E+00 0.  1.
         21   -1    0    0  503  502  0.00000000000E+00 -0.00000000000E+00 -0.22055691160E+02  0.22055691160E+02  0.00000000000E+00 0. -1.
         23    2    1    2    0    0 -0.49138325967E+02 -0.10138853194E+03  0.68343338661E+03  0.69857872675E+03  0.90757005461E+02 0.  0.
         23    2    1    2    0    0  0.85796909715E+02  0.68782971965E+02  0.64180552975E+03  0.65736847277E+03  0.90148566397E+02 0.  0.
        -11    1    4    4    0    0  0.94760090151E+02  0.27181522378E+02  0.40965569146E+03  0.42135032383E+03  0.00000000000E+00 0.  1.
         11    1    4    4    0    0 -0.89631804368E+01  0.41601449587E+02  0.23214983829E+03  0.23601814894E+03  0.00000000000E+00 0. -1.
        -13    1    3    3    0    0 -0.51369713378E+02 -0.12658648075E+02  0.19011720280E+03  0.19734142906E+03  0.00000000000E+00 0. -1.
         13    1    3    3    0    0  0.22313874109E+01 -0.88729883864E+02  0.49331618381E+03  0.50123729768E+03  0.00000000000E+00 0.  1.
         21    1    1    2  503  501 -0.24661781679E+02  0.51940581709E+02  0.40005963225E+03  0.40417043046E+03  0.00000000000E+00 0. -1.
         -1    1    1    2    0  502 -0.11996802069E+02 -0.19335021735E+02  0.23213812729E+02  0.32506113683E+02  0.00000000000E+00 0.  1.
<scales pt_clust_5="13000.00000" pt_clust_6="13000.00000" pt_clust_7="13000.00000" pt_clust_8="13000.00000" pt_clust_9="56.08897" pt_clust_10="22.75448"></scales>
<clustering>
<clus scale="   22.754">  2 10  1 -1</clus>
<clus scale="   56.089">  1  9  2 -1</clus>
<clus scale="   90.149">  5  6 -1 -1</clus>
<clus scale="   90.757">  7  8 -1 -1</clus>
<clus scale="  139.944">  2  5  1 -1</clus>
<clus scale="   22.754">  2  5  1 -1</clus>
</clustering>
</event>
<event>
10    2  0.3544405E-006  0.9595059E+02  0.7546771E-02  0.1289168E+00
          1   -1    0    0  503    0 -0.00000000000E+00  0.00000000000E+00  0.39311120283E+03  0.39311120283E+03  0.00000000000E+00 0. -1.
         21   -1    0    0  501  502  0.00000000000E+00 -0.00000000000E+00 -0.62433816990E+02  0.62433816990E+02  0.00000000000E+00 0.  1.
         23    2    1    2    0    0 -0.17155578090E+02  0.12493664351E+02  0.78363061660E+02  0.12243035136E+03  0.91640689611E+02 0.  0.
         23    2    1    2    0    0  0.40442517614E+02 -0.10241061968E+02  0.53303271451E+02  0.11374950517E+03  0.91417911800E+02 0.  0.
        -13    1    3    3    0    0 -0.37194888156E+02  0.19147617894E+02  0.89327481822E+02  0.98638177115E+02  0.00000000000E+00 0.  1.
         13    1    3    3    0    0  0.20039310066E+02 -0.66539535435E+01 -0.10964420162E+02  0.23792174242E+02  0.00000000000E+00 0. -1.
        -13    1    4    4    0    0 -0.75289944314E+01  0.20298474748E+02  0.52595926997E+02  0.56877459252E+02  0.00000000000E+00 0. -1.
         13    1    4    4    0    0  0.47971512046E+02 -0.30539536716E+02  0.70734445390E+00  0.56872045919E+02  0.00000000000E+00 0.  1.
         21    1    1    2  503  502 -0.39763740241E+01 -0.38275788935E+02  0.15325383480E+03  0.15801134595E+03  0.00000000000E+00 0. -1.
          1    1    1    2  501    0 -0.19310565500E+02  0.36023186552E+02  0.45757217923E+02  0.61353817333E+02  0.00000000000E+00 0. -1.
<scales pt_clust_5="13000.00000" pt_clust_6="13000.00000" pt_clust_7="13000.00000" pt_clust_8="13000.00000" pt_clust_9="38.48178" pt_clust_10="34.03853"></scales>
<clustering>
<clus scale="   38.482">  1  9  2 -1</clus>
<clus scale="   34.039">  2 10  1 -1</clus>
<clus scale="   91.418">  7  8 -1 -1</clus>
<clus scale="   91.641">  5  6 -1 -1</clus>
<clus scale="   95.738">  2  7  1 -1</clus>
<clus scale="   34.039">  2  5  1 -1</clus>
</clustering>
</event>
<event>
10    2  0.3544405E-006  0.3589333E+03  0.7546771E-02  0.1059054E+00
         21   -1    0    0  503  502  0.00000000000E+00  0.00000000000E+00  0.29215488378E+03  0.29215488378E+03  0.00000000000E+00 0. -1.
          2   -1    0    0  502    0 -0.00000000000E+00 -0.00000000000E+00 -0.98166608389E+03  0.98166608389E+03  0.00000000000E+00 0. -1.
         23    2    1    2    0    0  0.32798410215E+03  0.15670764729E+03 -0.62897616843E+03  0.73224229604E+03  0.91852608410E+02 0.  0.
         23    2    1    2    0    0 -0.27611726222E+03 -0.13745404396E+03 -0.93443164443E+02  0.33461082969E+03  0.89991253280E+02 0.  0.
        -11    1    3    3    0    0  0.28377473836E+03  0.11146510302E+03 -0.46047351847E+03  0.55225757806E+03  0.00000000000E+00 0. -1.
         11    1    3    3    0    0  0.44209363790E+02  0.45242544269E+02 -0.16850264997E+03  0.17998471797E+03  0.00000000000E+00 0.  1.
        -11    1    4    4    0    0 -0.18225951373E+03 -0.77958848562E+02 -0.15423635738E+02  0.19883158942E+03  0.00000000000E+00 0. -1.
         11    1    4    4    0    0 -0.93857748489E+02 -0.59495195403E+02 -0.78019528704E+02  0.13577924026E+03  0.00000000000E+00 0.  1.
         21    1    1    2  503  501 -0.56536324924E+01  0.74164321801E+02 -0.35379741554E+02  0.82365261494E+02  0.00000000000E+00 0. -1.
          2    1    1    2  501    0 -0.46213207437E+02 -0.93417925122E+02  0.68287874326E+02  0.12460258045E+03  0.00000000000E+00 0. -1.
<scales pt_clust_5="13000.00000" pt_clust_6="13000.00000" pt_clust_7="13000.00000" pt_clust_8="13000.00000" pt_clust_9="74.37950" pt_clust_10="82.39433"></scales>
<clustering>
<clus scale="   74.380">  1  9  2 -1</clus>
<clus scale="   82.394">  1 10  2 -1</clus>
<clus scale="   89.991">  7  8 -1 -1</clus>
<clus scale="   91.853">  5  6 -1 -1</clus>
<clus scale="  358.462">  1  7  2 -1</clus>
<clus scale="   74.380">  1  5  2 -1</clus>
</clustering>
</event>
<event>
10    2  0.3544405E-006  0.9885142E+02  0.7546771E-02  0.1286978E+00
          1   -1    0    0  503    0 -0.00000000000E+00  0.00000000000E+00  0.69291708346E+03  0.69291708346E+03  0.00000000000E+00 0. -1.
         21   -1    0    0  501  502  0.00000000000E+00 -0.00000000000E+00 -0.13478674235E+03  0.13478674235E+03  0.00000000000E+00 0. -1.
         23    2    1    2    0    0  0.24449060435E+02  0.73066380722E+01  0.18381605182E+03  0.21012892461E+03  0.98563078983E+02 0.  0.
         23    2    1    2    0    0  0.20704721417E+02  0.23267872417E+02  0.15976075932E+03  0.18644007141E+03  0.90919308367E+02 0.  0.
        -11    1    3    3    0    0  0.10174987321E+02  0.49873299276E+02  0.61490021939E+02  0.79824176449E+02  0.00000000000E+00 0. -1.
         11    1    3    3    0    0  0.14274073114E+02 -0.42566661203E+02  0.12232602988E+03  0.13030474817E+03  0.00000000000E+00 0.  1.
        -13    1    4    4    0    0  0.50395943411E+02  0.28081365896E+02  0.13721404873E+03  0.14884894824E+03  0.00000000000E+00 0. -1.
         13    1    4    4    0    0 -0.29691221994E+02 -0.48134934793E+01  0.22546710589E+02  0.37591123173E+02  0.00000000000E+00 0.  1.
         21    1    1    2  503  502 -0.57097882342E+02  0.11237237438E+02  0.31570977509E+03  0.32102820088E+03  0.00000000000E+00 0.  1.
          1    1    1    2  501    0  0.11944100490E+02 -0.41811747927E+02 -0.10115624512E+03  0.11010662890E+03  0.00000000000E+00 0. -1.
<scales pt_clust_5="13000.00000" pt_clust_6="13000.00000" pt_clust_7="13000.00000" pt_clust_8="13000.00000" pt_clust_9="56.49832" pt_clust_10="43.48429"></scales>
<clustering>
<clus scale="   43.484">  2 10  1 -1</clus>
<clus scale="   56.498">  1  9  2 -1</clus>
<clus scale="   90.919">  7  8 -1 -1</clus>
<clus scale="   91.232">  2  7  1 -1</clus>
<clus scale="   98.563">  5  6 -1 -1</clus>
<clus scale="   43.484">  2  5  1 -1</clus>
</clustering>
</event>
<event>
10    2  0.3544405E-006  0.1053091E+03  0.7546771E-02  0.1273613E+00
         -3   -1    0    0    0  501 -0.00000000000E+00  0.00000000000E+00  0.42000570508E+02  0.42000570508E+02  0.00000000000E+00 0.  1.
         21   -1    0    0  503  502  0.00000000000E+00 -0.00000000000E+00 -0.76384588896E+03  0.76384588896E+03  0.00000000000E+00 0. -1.
         23    2    1    2    0    0 -0.16445356877E+02  0.53713978665E+01 -0.97999340045E+02  0.14133883521E+03  0.10036679735E+03 0.  0.
         23    2    1    2    0    0 -0.29658092754E+01  0.28444964634E+02 -0.39326080718E+03  0.40487332561E+03  0.91926249209E+02 0.  0.
        -11    1    3    3    0    0  0.19034921757E+02  0.81745462249E+01  0.13212515067E+02  0.24570755110E+02  0.00000000000E+00 0.  1.
         11    1    3    3    0    0 -0.35480278634E+02 -0.28031483584E+01 -0.11121185511E+03  0.11676808010E+03  0.00000000000E+00 0. -1.
        -11    1    4    4    0    0 -0.15595450254E+00 -0.33881076556E+02 -0.13733588096E+03  0.14145351134E+03  0.00000000000E+00 0. -1.
         11    1    4    4    0    0 -0.28098547729E+01  0.62326041189E+02 -0.25592492622E+03  0.26341981428E+03  0.00000000000E+00 0.  1.
         21    1    1    2  503  501 -0.35380843958E+02 -0.36790686153E+02 -0.52233205840E+02  0.73031955328E+02  0.00000000000E+00 0. -1.
         -3    1    1    2    0  502  0.54792010110E+02  0.29743236533E+01 -0.17835196539E+03  0.18660234332E+03  0.00000000000E+00 0.  1.
<scales pt_clust_5="13000.00000" pt_clust_6="13000.00000" pt_clust_7="13000.00000" pt_clust_8="13000.00000" pt_clust_9="51.04271" pt_clust_10="50.20673"></scales>
<clustering>
<clus scale="   51.043">  1  9  2 -1</clus>
<clus scale="   50.207">  2 10  1 -1</clus>
<clus scale="   91.926">  7  8 -1 -1</clus>
<clus scale="   97.298">  2  7  1 -1</clus>
<clus scale="  100.367">  5  6 -1 -1</clus>
<clus scale="   50.207">  2  5  1 -1</clus>
</clustering>
</event>
<event>
10    2  0.3544405E-006  0.1361848E+03  0.7546771E-02  0.1219442E+00
          1   -1    0    0  503    0 -0.00000000000E+00  0.00000000000E+00  0.63589381058E+03  0.63589381058E+03  0.00000000000E+00 0. -1.
         21   -1    0    0  501  502  0.00000000000E+00 -0.00000000000E+00 -0.71698014462E+02  0.71698014462E+02  0.00000000000E+00 0.  1.
         23    2    1    2    0    0 -0.49955385412E+02  0.48682854300E+02  0.30633376252E+03  0.32838902256E+03  0.95568903132E+02 0.  0.
         23    2    1    2    0    0  0.87058185379E+02 -0.10962083133E+03  0.12043686984E+03  0.20629219405E+03  0.91954202778E+02 0.  0.
        -11    1    3    3    0    0 -0.72503888955E+02  0.27739494447E+02  0.14832678068E+03  0.16741304409E+03  0.00000000000E+00 0.  1.
         11    1    3    3    0    0  0.22548503543E+02  0.20943359853E+02  0.15800698184E+03  0.16097597847E+03  0.00000000000E+00 0. -1.
        -13    1    4    4    0    0  0.10359175822E+02 -0.66055479764E+02  0.14459200955E+02  0.68408387080E+02  0.00000000000E+00 0.  1.
         13    1    4    4    0    0  0.76699009557E+02 -0.43565351566E+02  0.10597766888E+03  0.13788380697E+03  0.00000000000E+00 0. -1.
         21    1    1    2  503  502  0.12210596012E+02  0.39141038242E+02  0.97656392135E+02  0.10591454317E+03  0.00000000000E+00 0.  1.
          1    1    1    2  501    0 -0.49313395979E+02  0.21796938787E+02  0.39768771630E+02  0.66996065260E+02  0.00000000000E+00 0. -1.
<scales pt_clust_5="13000.00000" pt_clust_6="13000.00000" pt_clust_7="13000.00000" pt_clust_8="13000.00000" pt_clust_9="41.00146" pt_clust_10="54.53335"></scales>
<clustering>
<clus scale="   41.001">  1  9  2 -1</clus>
<clus scale="   54.533">  2 10  1 -1</clus>
<clus scale="   91.954">  7  8 -1 -1</clus>
<clus scale="   95.569">  5  6 -1 -1</clus>
<clus scale="  133.673">  2  7  1 -1</clus>
<clus scale="   54.533">  2  5  1 -1</clus>
</clustering>
</event>
<event>
10    2  0.3544405E-006  0.1985022E+03  0.7546771E-02  0.1151158E+00
         21   -1    0    0  501  502  0.00000000000E+00  0.00000000000E+00  0.17431043037E+03  0.17431043037E+03  0.00000000000E+00 0. -1.
          1   -1    0    0  503    0 -0.00000000000E+00 -0.00000000000E+00 -0.20905393047E+04  0.20905393047E+04  0.00000000000E+00 0. -1.
         23    2    1    2    0    0  0.12975461902E+03 -0.61834029612E+02 -0.77045480740E+03  0.78913067248E+03  0.92015757516E+02 0.  0.
         23    2    1    2    0    0 -0.24497200836E+03  0.11117013527E+03 -0.10383328689E+04  0.10764272359E+04  0.90500628598E+02 0.  0.
        -11    1    3    3    0    0  0.81656625335E+02  0.96318984897E+01 -0.31197542452E+03  0.32262864633E+03  0.00000000000E+00 0.  1.
         11    1    3    3    0    0  0.48097993683E+02 -0.71465928102E+02 -0.45847938289E+03  0.46650202616E+03  0.00000000000E+00 0. -1.
        -11    1    4    4    0    0 -0.12047772369E+03  0.11883865126E+02 -0.53407984298E+03  0.54762887692E+03  0.00000000000E+00 0. -1.
         11    1    4    4    0    0 -0.12449428467E+03  0.99286270145E+02 -0.50425302592E+03  0.52879835903E+03  0.00000000000E+00 0.  1.
         21    1    1    2  503  502 -0.30166664386E+02  0.16537750081E+02 -0.20788041082E+03  0.21070783095E+03  0.00000000000E+00 0. -1.
          1    1    1    2  501    0  0.14538405373E+03 -0.65873855740E+02  0.10043921283E+03  0.18858399567E+03  0.00000000000E+00 0. -1.
<scales pt_clust_5="13000.00000" pt_clust_6="13000.00000" pt_clust_7="13000.00000" pt_clust_8="13000.00000" pt_clust_9="34.40240" pt_clust_10="158.80807"></scales>
<clustering>
<clus scale="   34.402">  2  9  1 -1</clus>
<clus scale="   90.501">  7  8 -1 -1</clus>
<clus scale="   92.016">  5  6 -1 -1</clus>
<clus scale="  158.808">  1 10  2 -1</clus>
<clus scale="  197.804">  1  7  2 -1</clus>
<clus scale="  158.808">  1  5  2 -1</clus>
</clustering>
</event>
<event>
10    2  0.3544405E-006  0.1925227E+03  0.7546771E-02  0.1186735E+00
         -3   -1    0    0    0  501 -0.00000000000E+00  0.00000000000E+00  0.42318721980E+03  0.42318721980E+03  0.00000000000E+00 0.  1.
         21   -1    0    0  503  502  0.00000000000E+00 -0.00000000000E+00 -0.22987757311E+03  0.22987757311E+03  0.00000000000E+00 0. -1.
         23    2    1    2    0    0 -0.26901903259E+02 -0.21637490198E+02  0.35074235631E+02  0.10403351596E+03  0.91656298507E+02 0.  0.
         23    2    1    2    0    0 -0.15167968203E+03 -0.11193220927E+03 -0.61602912988E+02  0.21901182074E+03  0.92928538791E+02 0.  0.
        -13    1    4    4    0    0 -0.70547935484E+02 -0.65412842015E+01 -0.47420501568E+02  0.85255519288E+02  0.00000000000E+00 0.  1.
         13    1    4    4    0    0 -0.81131746547E+02 -0.10539092506E+03 -0.14182411419E+02  0.13375630145E+03  0.00000000000E+00 0. -1.
        -13    1    3    3    0    0 -0.78629878463E+01 -0.30613111812E+02  0.62157955729E+02  0.69732350119E+02  0.00000000000E+00 0.  1.
         13    1    3    3    0    0 -0.19038915413E+02  0.89756216136E+01 -0.27083720098E+02  0.34301165837E+02  0.00000000000E+00 0. -1.
         21    1    1    2  503  501  0.13138544759E+03  0.12889748398E+03  0.21395450752E+03  0.28222903554E+03  0.00000000000E+00 0.  1.
         -3    1    1    2    0  502  0.47196137700E+02  0.46722154875E+01  0.58838165275E+01  0.47790420675E+02  0.00000000000E+00 0.  1.
<scales pt_clust_5="13000.00000" pt_clust_6="13000.00000" pt_clust_7="13000.00000" pt_clust_8="13000.00000" pt_clust_9="168.60980" pt_clust_10="47.42684"></scales>
<clustering>
<clus scale="   47.427">  2 10  1 -1</clus>
<clus scale="   91.656">  7  8 -1 -1</clus>
<clus scale="   92.929">  5  6 -1 -1</clus>
<clus scale="   95.925">  1  7  2 -1</clus>
<clus scale="  168.610">  1  9  2 -1</clus>
<clus scale="   47.427">  2  5  1 -1</clus>
</clustering>
</event>
<event>
10    2  0.3544405E-006  0.1675455E+03  0.7546771E-02  0.1201652E+00
         21   -1    0    0  503  502  0.00000000000E+00  0.00000000000E+00  0.53568656039E+03  0.53568656039E+03  0.00000000000E+00 0.  1.
         -1   -1    0    0    0  501 -0.00000000000E+00 -0.00000000000E+00 -0.66972210319E+03  0.66972210319E+03  0.00000000000E+00 0.  1.
         23    2    1    2    0    0  0.56693089781E+02 -0.14089807201E+02  0.13284040114E+03  0.17159675348E+03  0.91576440947E+02 0.  0.
         23    2    1    2    0    0  0.26442736858E+02  0.78236001319E+01  0.81540438818E+02  0.12501327353E+03  0.90658967266E+02 0.  0.
        -11    1    3    3    0    0  0.42530839775E+02 -0.43146402144E+02  0.38281554667E+02  0.71665624798E+02  0.00000000000E+00 0. -1.
         11    1    3    3    0    0  0.14162250005E+02  0.29056594943E+02  0.94558846469E+02  0.99931128686E+02  0.00000000000E+00 0.  1.
        -13    1    4    4    0    0  0.60093573103E+02  0.99265205673E+01  0.49249087787E+02  0.78327811068E+02  0.00000000000E+00 0. -1.
         13    1    4    4    0    0 -0.33650836245E+02 -0.21029204354E+01  0.32291351031E+02  0.46685462466E+02  0.00000000000E+00 0.  1.
         21    1    1    2  503  501 -0.14431513285E+03 -0.14215494807E+02 -0.61636406658E+03  0.63319317782E+03  0.00000000000E+00 0.  1.
         -1    1    1    2    0  502  0.61179306212E+02  0.20481701876E+02  0.26794768383E+03  0.27560545874E+03  0.00000000000E+00 0.  1.
<scales pt_clust_5="13000.00000" pt_clust_6="13000.00000" pt_clust_7="13000.00000" pt_clust_8="13000.00000" pt_clust_9="140.30412" pt_clust_10="64.51672"></scales>
<clustering>
<clus scale="   64.517">  1 10  2 -1</clus>
<clus scale="   90.659">  7  8 -1 -1</clus>
<clus scale="   91.576">  5  6 -1 -1</clus>
<clus scale="  104.921">  1  7  2 -1</clus>
<clus scale="  140.304">  2  9  1 -1</clus>
<clus scale="   64.517">  1  5  2 -1</clus>
</clustering>
</event>
<event>
10    2  0.3544405E-006  0.1090301E+03  0.7546771E-02  0.1263750E+00
         21   -1    0    0  503  502  0.00000000000E+00  0.00000000000E+00  0.51599579257E+03  0.51599579257E+03  0.00000000000E+00 0.  1.
         -4   -1    0    0    0  501 -0.00000000000E+00 -0.00000000000E+00 -0.49474617045E+02  0.49474617045E+02  0.00000000000E+00 0.  1.
         23    2    1    2    0    0  0.73786014422E+02  0.22094034428E+02  0.13380490959E+03  0.18009519254E+03  0.92725413252E+02 0.  0.
         23    2    1    2    0    0 -0.40167715490E+02 -0.12294539181E+02  0.18932579515E+03  0.21350611905E+03  0.89308482805E+02 0.  0.
        -11    1    3    3    0    0  0.15719430462E+02  0.51489522596E+02  0.46077706053E+02  0.70862023866E+02  0.00000000000E+00 0. -1.
         11    1    3    3    0    0  0.58066583960E+02 -0.29395488168E+02  0.87727203540E+02  0.10923316867E+03  0.00000000000E+00 0.  1.
        -13    1    4    4    0    0 -0.50752949690E+02  0.17425249331E+02  0.16546990031E+03  0.17395341078E+03  0.00000000000E+00 0. -1.
         13    1    4    4    0    0  0.10585234200E+02 -0.29719788512E+02  0.23855894845E+02  0.39552708265E+02  0.00000000000E+00 0.  1.
         21    1    1    2  503  501 -0.17593429874E+02 -0.21877753564E+02  0.10214843046E+01  0.28092851510E+02  0.00000000000E+00 0.  1.
         -4    1    1    2    0  502 -0.16024869058E+02  0.12078258317E+02  0.14236898647E+03  0.14377624652E+03  0.00000000000E+00 0.  1.
<scales pt_clust_5="13000.00000" pt_clust_6="13000.00000" pt_clust_7="13000.00000" pt_clust_8="13000.00000" pt_clust_9="28.10977" pt_clust_10="20.06691"></scales>
<clustering>
<clus scale="   20.067">  1 10  2 -1</clus>
<clus scale="   28.110">  2  9  1 -1</clus>
<clus scale="   89.308">  7  8 -1 -1</clus>
<clus scale="   92.725">  5  6 -1 -1</clus>
<clus scale="  106.139">  1  7  2 -1</clus>
<clus scale="   20.067">  1  5  2 -1</clus>
</clustering>
</event>
<event>
10    2  0.3544405E-006  0.1475993E+03  0.7546771E-02  0.1204902E+00
          1   -1    0    0  503    0 -0.00000000000E+00  0.00000000000E+00  0.18407157049E+03  0.18407157049E+03  0.00000000000E+00 0. -1.
         21   -1    0    0  501  502  0.00000000000E+00 -0.00000000000E+00 -0.70546168750E+03  0.70546168750E+03  0.00000000000E+00 0. -1.
         23    2    1    2    0    0 -0.76258463512E+02 -0.12143153169E+03  0.61300438516E+02  0.17781318876E+03  0.85433109440E+02 0.  0.
         23    2    1    2    0    0  0.60983257975E+02  0.46142086775E+02 -0.37392402016E+02  0.12595074779E+03  0.92829678531E+02 0.  0.
        -11    1    3    3    0    0 -0.11070301114E+02 -0.88056893573E+02  0.54765453083E+02  0.10428721362E+03  0.00000000000E+00 0.  1.
         11    1    3    3    0    0 -0.65188162398E+02 -0.33374638120E+02  0.65349854333E+01  0.73525975145E+02  0.00000000000E+00 0. -1.
        -13    1    4    4    0    0  0.94546025101E+01 -0.23708534384E+02 -0.29171980443E+02  0.38761947245E+02  0.00000000000E+00 0. -1.
         13    1    4    4    0    0  0.51528655465E+02  0.69850621159E+02 -0.82204215729E+01  0.87188800549E+02  0.00000000000E+00 0.  1.
         21    1    1    2  503  502 -0.26459178243E+02  0.65481353111E+01  0.65982709307E+01  0.28044667383E+02  0.00000000000E+00 0. -1.
          1    1    1    2  501    0  0.41734383780E+02  0.68741309607E+02 -0.55189642443E+03  0.55772465405E+03  0.00000000000E+00 0. -1.
<scales pt_clust_5="13000.00000" pt_clust_6="13000.00000" pt_clust_7="13000.00000" pt_clust_8="13000.00000" pt_clust_9="27.25741" pt_clust_10="80.27758"></scales>
<clustering>
<clus scale="   27.257">  1  9  2 -1</clus>
<clus scale="   80.278">  2 10  1 -1</clus>
<clus scale="   85.433">  5  6 -1 -1</clus>
<clus scale="   92.830">  7  8 -1 -1</clus>
<clus scale="  143.063">  1  5  2 -1</clus>
<clus scale="   80.278">  2  5  1 -1</clus>
</clustering>
</event>
<event>
10    2  0.3544405E-006  0.9553311E+02  0.7546771E-02  0.1291187E+00
          4   -1    0    0  503    0 -0.00000000000E+00  0.00000000000E+00  0.18359156567E+03  0.18359156567E+03  0.00000000000E+00 0. -1.
         21   -1    0    0  501  502  0.00000000000E+00 -0.00000000000E+00 -0.17748342417E+03  0.17748342417E+03  0.00000000000E+00 0. -1.
         23    2    1    2    0    0 -0.17784724919E+02  0.45893096389E+01  0.13758691804E+02  0.92560665134E+02  0.89670602354E+02 0.  0.
         23    2    1    2    0    0  0.36407745220E+02 -0.58738597713E+01  0.19596361545E+01  0.99034797975E+02  0.91891375523E+02 0.  0.
        -11    1    4    4    0    0 -0.24114019871E+02 -0.19604053985E+02  0.16655023851E+02  0.35258966327E+02  0.00000000000E+00 0.  1.
         11    1    4    4    0    0  0.60521765090E+02  0.13730194214E+02 -0.14695387696E+02  0.63775831648E+02  0.00000000000E+00 0. -1.
        -13    1    3    3    0    0 -0.18821205772E+02 -0.35809502639E+02  0.28563539673E+02  0.49522056345E+02  0.00000000000E+00 0.  1.
         13    1    3    3    0    0  0.10364808527E+01  0.40398812278E+02 -0.14804847869E+02  0.43038608789E+02  0.00000000000E+00 0. -1.
         21    1    1    2  503  502  0.24711511576E+02  0.52397730792E+02  0.52447795559E+02  0.78146991340E+02  0.00000000000E+00 0. -1.
          4    1    1    2  501    0 -0.43334531876E+02 -0.51113180660E+02 -0.62057982014E+02  0.91332535395E+02  0.00000000000E+00 0. -1.
<scales pt_clust_5="13000.00000" pt_clust_6="13000.00000" pt_clust_7="13000.00000" pt_clust_8="13000.00000" pt_clust_9="57.93256" pt_clust_10="60.11681"></scales>
<clustering>
<clus scale="   57.933">  1  9  2 -1</clus>
<clus scale="   60.117">  2 10  1 -1</clus>
<clus scale="   89.671">  7  8 -1 -1</clus>
<clus scale="   91.891">  5  6 -1 -1</clus>
<clus scale="   93.399">  1  7  2 -1</clus>
<clus scale="   60.117">  2  5  1 -1</clus>
</clustering>
</event>
<event>
10    2  0.3544405E-006  0.1556318E+03  0.7546771E-02  0.1193988E+00
         21   -1    0    0  501  502  0.00000000000E+00  0.00000000000E+00  0.39787073629E+03  0.39787073629E+03  0.00000000000E+00 0. -1.
          3   -1    0    0  503    0 -0.00000000000E+00 -0.00000000000E+00 -0.20018981533E+03  0.20018981533E+03  0.00000000000E+00 0. -1.
         23    2    1    2    0    0  0.91555720533E+02  0.19235191730E+01 -0.85892976089E+02  0.15631817161E+03  0.93121520323E+02 0.  0.
         23    2    1    2    0    0 -0.14424393889E+03 -0.33888683203E+02  0.28968416794E+03  0.33802090379E+03  0.91577603634E+02 0.  0.
        -11    1    3    3    0    0  0.46435126999E+02  0.28360546256E+02 -0.88577231941E+02  0.10395416116E+03  0.00000000000E+00 0. -1.
         11    1    3    3    0    0  0.45120593535E+02 -0.26437027083E+02  0.26842558520E+01  0.52364010459E+02  0.00000000000E+00 0.  1.
        -11    1    4    4    0    0 -0.20707418930E+02 -0.23628225599E+02  0.11481362855E+02  0.33450141057E+02  0.00000000000E+00 0.  1.
         11    1    4    4    0    0 -0.12353651996E+03 -0.10260457605E+02  0.27820280509E+03  0.30457076273E+03  0.00000000000E+00 0. -1.
         21    1    1    2  503  502  0.37340229023E+02  0.59831929967E+01 -0.42208520651E+02  0.56671425934E+02  0.00000000000E+00 0. -1.
          3    1    1    2  501    0  0.15347989335E+02  0.25981971034E+02  0.36098249761E+02  0.47050050279E+02  0.00000000000E+00 0. -1.
<scales pt_clust_5="13000.00000" pt_clust_6="13000.00000" pt_clust_7="13000.00000" pt_clust_8="13000.00000" pt_clust_9="38.21047" pt_clust_10="30.17654"></scales>
<clustering>
<clus scale="   30.177">  1 10  2 -1</clus>
<clus scale="   38.210">  2  9  1 -1</clus>
<clus scale="   91.578">  7  8 -1 -1</clus>
<clus scale="   93.122">  5  6 -1 -1</clus>
<clus scale="  154.713">  1  7  2 -1</clus>
<clus scale="   30.177">  1  5  2 -1</clus>
</clustering>
</event>
<event>
10    2  0.3544405E-006  0.1511212E+03  0.7546771E-02  0.1199184E+00
         21   -1    0    0  501  502  0.00000000000E+00  0.00000000000E+00  0.22526671445E+03  0.22526671445E+03  0.00000000000E+00 0. -1.
          1   -1    0    0  503    0 -0.00000000000E+00 -0.00000000000E+00 -0.38748854276E+03  0.38748854276E+03  0.00000000000E+00 0. -1.
         23    2    1    2    0    0  0.58263674432E+02 -0.49302179116E+02 -0.23352040204E+02  0.12161258134E+03  0.91754790260E+02 0.  0.
         23    2    1    2    0    0 -0.96428594752E+02  0.15445941930E+03  0.30635986460E+02  0.20599111815E+03  0.91310410098E+02 0.  0.
        -11    1    3    3    0    0 -0.18808509536E+02 -0.32997134162E+02 -0.19612137449E+02  0.42745839905E+02  0.00000000000E+00 0.  1.
         11    1    3    3    0    0  0.77072183969E+02 -0.16305044955E+02 -0.37399027549E+01  0.78866741439E+02  0.00000000000E+00 0. -1.
        -11    1    4    4    0    0  0.10997704618E+02  0.28098450685E+02  0.26384782612E+02  0.40082779236E+02  0.00000000000E+00 0.  1.
         11    1    4    4    0    0 -0.10742629937E+03  0.12636096862E+03  0.42512038475E+01  0.16590833891E+03  0.00000000000E+00 0. -1.
         21    1    1    2  503  502 -0.32476505122E+02 -0.88742594525E+02 -0.18790641907E+03  0.21033020181E+03  0.00000000000E+00 0. -1.
          1    1    1    2  501    0  0.70641425442E+02 -0.16414645662E+02  0.18400644503E+02  0.74821355900E+02  0.00000000000E+00 0. -1.
<scales pt_clust_5="13000.00000" pt_clust_6="13000.00000" pt_clust_7="13000.00000" pt_clust_8="13000.00000" pt_clust_9="94.05088" pt_clust_10="72.52346"></scales>
<clustering>
<clus scale="   72.523">  1 10  2 -1</clus>
<clus scale="   91.310">  7  8 -1 -1</clus>
<clus scale="   91.755">  5  6 -1 -1</clus>
<clus scale="   94.051">  2  9  1 -1</clus>
<clus scale="  150.852">  1  7  2 -1</clus>
<clus scale="   72.523">  1  5  2 -1</clus>
</clustering>
</event>
<event>
10    2  0.3544405E-006  0.1175243E+03  0.7546771E-02  0.1247247E+00
         21   -1    0    0  501  502  0.00000000000E+00  0.00000000000E+00  0.33748459823E+03  0.33748459823E+03  0.00000000000E+00 0. -1.
          1   -1    0    0  503    0 -0.00000000000E+00 -0.00000000000E+00 -0.24380279436E+03  0.24380279436E+03  0.00000000000E+00 0. -1.
         23    2    1    2    0    0  0.24478785674E+02  0.12030840401E+02 -0.14301730996E+03  0.17196704975E+03  0.91513732203E+02 0.  0.
         23    2    1    2    0    0 -0.66475501665E+02 -0.66185230446E+01  0.10168943127E+03  0.15222766884E+03  0.91486204209E+02 0.  0.
        -11    1    4    4    0    0 -0.50114110612E+02 -0.47463705369E+02  0.67048785204E+02  0.96227683164E+02  0.00000000000E+00 0.  1.
         11    1    4    4    0    0 -0.16361391054E+02  0.40845182324E+02  0.34640646068E+02  0.55999985681E+02  0.00000000000E+00 0. -1.
        -11    1    3    3    0    0  0.54019486380E+02  0.18876015625E+02 -0.57026605398E+02  0.80786401070E+02  0.00000000000E+00 0. -1.
         11    1    3    3    0    0 -0.29540700706E+02 -0.68451752234E+01 -0.85990704564E+02  0.91180648678E+02  0.00000000000E+00 0.  1.
         21    1    1    2  503  502  0.56462242121E+02  0.24578152085E+02 -0.43570327228E+02  0.75435030059E+02  0.00000000000E+00 0.  1.
          1    1    1    2  501    0 -0.14465526130E+02 -0.29990469442E+02  0.17858000979E+03  0.18165764394E+03  0.00000000000E+00 0. -1.
<scales pt_clust_5="13000.00000" pt_clust_6="13000.00000" pt_clust_7="13000.00000" pt_clust_8="13000.00000" pt_clust_9="59.06602" pt_clust_10="33.29684"></scales>
<clustering>
<clus scale="   33.297">  1 10  2 -1</clus>
<clus scale="   59.066">  2  9  1 -1</clus>
<clus scale="   91.486">  5  6 -1 -1</clus>
<clus scale="   91.514">  7  8 -1 -1</clus>
<clus scale="  117.503">  1  5  2 -1</clus>
<clus scale="   33.297">  1  5  2 -1</clus>
</clustering>
</event>
<event>
10    2  0.3544405E-006  0.1010842E+03  0.7546771E-02  0.1289272E+00
          1   -1    0    0  503    0 -0.00000000000E+00  0.00000000000E+00  0.47852587259E+03  0.47852587259E+03  0.00000000000E+00 0. -1.
         21   -1    0    0  501  502  0.00000000000E+00 -0.00000000000E+00 -0.17136570636E+03  0.17136570636E+03  0.00000000000E+00 0. -1.
         23    2    1    2    0    0  0.71320390802E+02  0.33073631534E+02  0.23335483003E+03  0.26326725775E+03  0.93138118188E+02 0.  0.
         23    2    1    2    0    0  0.68070726796E+01  0.79074104336E+01  0.11471853255E+02  0.73316874098E+02  0.71658197244E+02 0.  0.
        -11    1    4    4    0    0  0.29197883564E+02  0.28694916174E+02  0.12322560140E+02  0.42752311134E+02  0.00000000000E+00 0. -1.
         11    1    4    4    0    0 -0.22390810885E+02 -0.20787505741E+02 -0.85070688489E+00  0.30564562964E+02  0.00000000000E+00 0.  1.
        -11    1    3    3    0    0  0.18202927374E+02  0.53284905414E+02  0.67261379281E+02  0.87719557983E+02  0.00000000000E+00 0.  1.
         11    1    3    3    0    0  0.53117463428E+02 -0.20211273881E+02  0.16609345075E+03  0.17554769977E+03  0.00000000000E+00 0. -1.
         21    1    1    2  503  502 -0.13941351779E+02 -0.33733291638E+02  0.17752645973E+03  0.18124000705E+03  0.00000000000E+00 0. -1.
          1    1    1    2  501    0 -0.64186111702E+02 -0.72477503292E+01 -0.11519297678E+03  0.13206744005E+03  0.00000000000E+00 0. -1.
<scales pt_clust_5="13000.00000" pt_clust_6="13000.00000" pt_clust_7="13000.00000" pt_clust_8="13000.00000" pt_clust_9="36.50063" pt_clust_10="65.09774"></scales>
<clustering>
<clus scale="   36.501">  1  9  2 -1</clus>
<clus scale="   65.098">  2 10  1 -1</clus>
<clus scale="   71.658">  5  6 -1 -1</clus>
<clus scale="   81.720">  2  5  1 -1</clus>
<clus scale="   93.138">  7  8 -1 -1</clus>
<clus scale="   65.098">  2  5  1 -1</clus>
</clustering>
</event>
<event>
10    2  0.3544405E-006  0.1183266E+03  0.7546771E-02  0.1256321E+00
         21   -1    0    0  503  502  0.00000000000E+00  0.00000000000E+00  0.10458746391E+03  0.10458746391E+03  0.00000000000E+00 0. -1.
         -3   -1    0    0    0  501 -0.00000000000E+00 -0.00000000000E+00 -0.19903679367E+03  0.19903679367E+03  0.00000000000E+00 0.  1.
         23    2    1    2    0    0 -0.14915204415E+02  0.24918184601E+02 -0.33165040587E+02  0.12191672115E+03  0.11366788347E+03 0.  0.
         23    2    1    2    0    0  0.21823657266E+02 -0.30070760606E+02 -0.29080921499E+02  0.10187698374E+03  0.90292287378E+02 0.  0.
        -13    1    3    3    0    0  0.21958633538E+02 -0.12431843796E+02 -0.58445673344E+02  0.63660262799E+02  0.00000000000E+00 0.  1.
         13    1    3    3    0    0 -0.36873837953E+02  0.37350028397E+02  0.25280632757E+02  0.58256458348E+02  0.00000000000E+00 0. -1.
        -13    1    4    4    0    0  0.46053047531E+02 -0.27950884188E+02 -0.47139447439E+02  0.71583955037E+02  0.00000000000E+00 0.  1.
         13    1    4    4    0    0 -0.24229390265E+02 -0.21198764186E+01  0.18058525941E+02  0.30293028699E+02  0.00000000000E+00 0. -1.
         21    1    1    2  503  501  0.38667825395E+01 -0.23595477124E+02 -0.41376620830E+02  0.47788317602E+02  0.00000000000E+00 0.  1.
         -3    1    1    2    0  502 -0.10775235391E+02  0.28748053129E+02  0.91732531605E+01  0.32042235097E+02  0.00000000000E+00 0.  1.
<scales pt_clust_5="13000.00000" pt_clust_6="13000.00000" pt_clust_7="13000.00000" pt_clust_8="13000.00000" pt_clust_9="23.91022" pt_clust_10="28.96698"></scales>
<clustering>
<clus scale="   23.910">  2  9  1 -1</clus>
<clus scale="   28.967">  1 10  2 -1</clus>
<clus scale="   90.292">  7  8 -1 -1</clus>
<clus scale="   96.091">  1  7  2 -1</clus>
<clus scale="  113.668">  5  6 -1 -1</clus>
<clus scale="   28.967">  1  5  2 -1</clus>
</clustering>
</event>
<event>
10    2  0.3544405E-006  0.1497734E+03  0.7546771E-02  0.1201835E+00
         21   -1    0    0  503  502  0.00000000000E+00  0.00000000000E+00  0.18573821563E+03  0.18573821563E+03  0.00000000000E+00 0.  1.
         -1   -1    0    0    0  501 -0.00000000000E+00 -0.00000000000E+00 -0.44711827577E+03  0.44711827577E+03  0.00000000000E+00 0.  1.
         23    2    1    2    0    0  0.11348226142E+03  0.73189557741E+02 -0.17692484735E+03  0.24229315039E+03  0.95752984795E+02 0.  0.
         23    2    1    2    0    0 -0.72807779741E+02 -0.76737935717E+02 -0.11156683157E+03  0.17826060947E+03  0.90221967465E+02 0.  0.
        -11    1    3    3    0    0  0.10030319436E+03  0.18267009244E+02 -0.77956650092E+02  0.12834194061E+03  0.00000000000E+00 0.  1.
         11    1    3    3    0    0  0.13179067058E+02  0.54922548498E+02 -0.98968197256E+02  0.11395120978E+03  0.00000000000E+00 0. -1.
        -13    1    4    4    0    0  0.64378752595E+01 -0.56001389911E+02 -0.36518642781E+02  0.67165565436E+02  0.00000000000E+00 0.  1.
         13    1    4    4    0    0 -0.79245655001E+02 -0.20736545806E+02 -0.75048188785E+02  0.11109504403E+03  0.00000000000E+00 0. -1.
         21    1    1    2  503  501 -0.35544512302E+02 -0.18295789354E+02 -0.87137937957E+02  0.95870582006E+02  0.00000000000E+00 0.  1.
         -1    1    1    2    0  502 -0.51299693780E+01  0.21844167330E+02  0.11424955673E+03  0.11643214953E+03  0.00000000000E+00 0.  1.
<scales pt_clust_5="13000.00000" pt_clust_6="13000.00000" pt_clust_7="13000.00000" pt_clust_8="13000.00000" pt_clust_9="39.66268" pt_clust_10="22.43845"></scales>
<clustering>
<clus scale="   22.438">  1 10  2 -1</clus>
<clus scale="   39.663">  2  9  1 -1</clus>
<clus scale="   90.222">  7  8 -1 -1</clus>
<clus scale="   95.753">  5  6 -1 -1</clus>
<clus scale="  146.299">  1  7  2 -1</clus>
<clus scale="   22.438">  1  5  2 -1</clus>
</clustering>
</event>
<event>
10    2  0.3544405E-006  0.1041973E+03  0.7546771E-02  0.1272781E+00
         21   -1    0    0  503  502  0.00000000000E+00  0.00000000000E+00  0.35087064096E+03  0.35087064096E+03  0.00000000000E+00 0.  1.
         -1   -1    0    0    0  501 -0.00000000000E+00 -0.00000000000E+00 -0.93112254251E+02  0.93112254251E+02  0.00000000000E+00 0.  1.
         23    2    1    2    0    0  0.27408832192E+02  0.20431756543E+02 -0.23143176985E+02  0.99654743062E+02  0.90701490705E+02 0.  0.
         23    2    1    2    0    0 -0.26289659659E+02 -0.41623988241E+01  0.13521949990E+03  0.16630884917E+03  0.93090538672E+02 0.  0.
        -11    1    4    4    0    0  0.20453947904E+02 -0.33224725639E+02  0.76191523331E+02  0.85600202138E+02  0.00000000000E+00 0.  1.
         11    1    4    4    0    0 -0.46743607563E+02  0.29062326815E+02  0.59027976569E+02  0.80708647032E+02  0.00000000000E+00 0. -1.
        -11    1    3    3    0    0 -0.81165453790E+01 -0.23828330478E+02 -0.33561136251E+02  0.41952562601E+02  0.00000000000E+00 0. -1.
         11    1    3    3    0    0  0.35525377571E+02  0.44260087021E+02  0.10417959266E+02  0.57702180461E+02  0.00000000000E+00 0.  1.
         21    1    1    2  503  501  0.28570540463E+02  0.15470282525E+02  0.77493415148E+01  0.33401462807E+02  0.00000000000E+00 0.  1.
         -1    1    1    2    0  502 -0.29689712996E+02 -0.31739640243E+02  0.13793272228E+03  0.14461784017E+03  0.00000000000E+00 0.  1.
<scales pt_clust_5="13000.00000" pt_clust_6="13000.00000" pt_clust_7="13000.00000" pt_clust_8="13000.00000" pt_clust_9="32.49008" pt_clust_10="42.18054"></scales>
<clustering>
<clus scale="   32.490">  2  9  1 -1</clus>
<clus scale="   42.181">  1 10  2 -1</clus>
<clus scale="   90.701">  7  8 -1 -1</clus>
<clus scale="   93.091">  5  6 -1 -1</clus>
<clus scale="  102.069">  2  7  1 -1</clus>
<clus scale="   42.181">  1  5  2 -1</clus>
</clustering>
</event>
<event>
10    2  0.3544405E-006  0.1473288E+03  0.7546771E-02  0.1204461E+00
         -1   -1    0    0    0  501 -0.00000000000E+00  0.00000000000E+00  0.78416896328E+02  0.78416896328E+02  0.00000000000E+00 0.  1.
         21   -1    0    0  503  502  0.00000000000E+00 -0.00000000000E+00 -0.70225388992E+03  0.70225388992E+03  0.00000000000E+00 0. -1.
         23    2    1    2    0    0 -0.59728227898E+02 -0.77157404897E+02 -0.15629307056E+03  0.20493113625E+03  0.89713546133E+02 0.  0.
         23    2    1    2    0    0  0.11188711925E+02  0.14346256356E+03 -0.18846475297E+03  0.25473423901E+03  0.93079938717E+02 0.  0.
        -11    1    4    4    0    0 -0.11158193250E+02  0.21756374958E+02  0.51192301208E+01  0.24981025699E+02  0.00000000000E+00 0.  1.
         11    1    4    4    0    0  0.22346905176E+02  0.12170618861E+03 -0.19358398310E+03  0.22975321331E+03  0.00000000000E+00 0. -1.
        -13    1    3    3    0    0 -0.67019294544E+02 -0.13404778845E+02 -0.82933165794E+02  0.10746712951E+03  0.00000000000E+00 0. -1.
         13    1    3    3    0    0  0.72910666462E+01 -0.63752626051E+02 -0.73359904766E+02  0.97464006734E+02  0.00000000000E+00 0.  1.
         21    1    1    2  503  501  0.29714525625E+02 -0.21609305383E+02  0.10034229093E+01  0.36754890420E+02  0.00000000000E+00 0. -1.
         -1    1    1    2    0  502  0.18824990348E+02 -0.44695853285E+02 -0.28008259296E+03  0.28425052057E+03  0.00000000000E+00 0.  1.
<scales pt_clust_5="13000.00000" pt_clust_6="13000.00000" pt_clust_7="13000.00000" pt_clust_8="13000.00000" pt_clust_9="36.74119" pt_clust_10="49.60369"></scales>
<clustering>
<clus scale="   36.741">  1  9  2 -1</clus>
<clus scale="   49.604">  2 10  1 -1</clus>
<clus scale="   89.714">  7  8 -1 -1</clus>
<clus scale="   93.080">  5  6 -1 -1</clus>
<clus scale="  145.225">  1  7  2 -1</clus>
<clus scale="   49.604">  2  5  1 -1</clus>
</clustering>
</event>
<event>
10    2  0.3544405E-006  0.1888781E+03  0.7546771E-02  0.1160476E+00
          1   -1    0    0  503    0 -0.00000000000E+00  0.00000000000E+00  0.69523627572E+03  0.69523627572E+03  0.00000000000E+00 0. -1.
         21   -1    0    0  501  502  0.00000000000E+00 -0.00000000000E+00 -0.14645449736E+03  0.14645449736E+03  0.00000000000E+00 0. -1.
         23    2    1    2    0    0 -0.36449138112E+02  0.14653812160E+03  0.27395198055E+03  0.32698520840E+03  0.95224356733E+02 0.  0.
         23    2    1    2    0    0  0.86488171486E+02 -0.14523879169E+03  0.28764579547E+03  0.34928974325E+03  0.10338622089E+03 0.  0.
        -11    1    4    4    0    0  0.10626275099E+03 -0.89259527767E+02  0.20237901296E+03  0.24539009848E+03  0.00000000000E+00 0.  1.
         11    1    4    4    0    0 -0.19774579503E+02 -0.55979263926E+02  0.85266782516E+02  0.10389964478E+03  0.00000000000E+00 0. -1.
        -11    1    3    3    0    0 -0.20734104596E+01  0.91242241186E+02  0.23257226629E+03  0.24983855718E+03  0.00000000000E+00 0. -1.
         11    1    3    3    0    0 -0.34375727652E+02  0.55295880410E+02  0.41379714259E+02  0.77146651218E+02  0.00000000000E+00 0.  1.
         21    1    1    2  503  502 -0.26854563934E+02  0.17687239230E+01  0.72299414433E+02  0.77145974074E+02  0.00000000000E+00 0. -1.
          1    1    1    2  501    0 -0.23184469440E+02 -0.30680538251E+01 -0.85115412086E+02  0.88269847355E+02  0.00000000000E+00 0. -1.
<scales pt_clust_5="13000.00000" pt_clust_6="13000.00000" pt_clust_7="13000.00000" pt_clust_8="13000.00000" pt_clust_9="27.84327" pt_clust_10="23.38659"></scales>
<clustering>
<clus scale="   23.387">  2 10  1 -1</clus>
<clus scale="   27.843">  1  9  2 -1</clus>
<clus scale="   95.224">  7  8 -1 -1</clus>
<clus scale="  103.386">  5  6 -1 -1</clus>
<clus scale="  184.537">  1  7  2 -1</clus>
<clus scale="   23.387">  2  5  1 -1</clus>
</clustering>
</event>
<event>
10    2  0.3544405E-006  0.9336060E+02  0.7546771E-02  0.1296158E+00
         21   -1    0    0  503  502  0.00000000000E+00  0.00000000000E+00  0.11118189327E+03  0.11118189327E+03  0.00000000000E+00 0.  1.
         -1   -1    0    0    0  501 -0.00000000000E+00 -0.00000000000E+00 -0.32095994909E+03  0.32095994909E+03  0.00000000000E+00 0.  1.
         23    2    1    2    0    0  0.79429076894E+01  0.20983611628E+02 -0.12659367932E+03  0.15743114652E+03  0.90858155998E+02 0.  0.
         23    2    1    2    0    0  0.24619483578E+02  0.28275537648E+02 -0.71499450060E+02  0.12315544446E+03  0.93002511478E+02 0.  0.
        -11    1    3    3    0    0 -0.41308650119E+02  0.10639532001E+02 -0.49240990129E+02  0.65148133701E+02  0.00000000000E+00 0. -1.
         11    1    3    3    0    0  0.49251557808E+02  0.10344079627E+02 -0.77352689195E+02  0.92283012823E+02  0.00000000000E+00 0.  1.
        -13    1    4    4    0    0  0.57162529514E+02  0.29699577502E+01 -0.52858262046E+02  0.77912587533E+02  0.00000000000E+00 0.  1.
         13    1    4    4    0    0 -0.32543045936E+02  0.25305579898E+02 -0.18641188014E+02  0.45242856932E+02  0.00000000000E+00 0. -1.
         21    1    1    2  503  501 -0.28291393939E+01  0.24712588972E+02 -0.55331725388E+02  0.60665607372E+02  0.00000000000E+00 0.  1.
         -1    1    1    2    0  502 -0.29733251874E+02 -0.73971738248E+02  0.43646798956E+02  0.90889643995E+02  0.00000000000E+00 0.  1.
<scales pt_clust_5="13000.00000" pt_clust_6="13000.00000" pt_clust_7="13000.00000" pt_clust_8="13000.00000" pt_clust_9="24.87400" pt_clust_10="77.76613"></scales>
<clustering>
<clus scale="   24.874">  2  9  1 -1</clus>
<clus scale="   77.766">  1 10  2 -1</clus>
<clus scale="   90.858">  5  6 -1 -1</clus>
<clus scale="   91.225">  2  5  1 -1</clus>
<clus scale="   93.003">  7  8 -1 -1</clus>
<clus scale="   77.766">  1  5  2 -1</clus>
</clustering>
</event>
<event>
10    2  0.3544405E-006  0.1252588E+03  0.7546771E-02  0.1236238E+00
         21   -1    0    0  501  502  0.00000000000E+00  0.00000000000E+00  0.29203011015E+03  0.29203011015E+03  0.00000000000E+00 0. -1.
          3   -1    0    0  503    0 -0.00000000000E+00 -0.00000000000E+00 -0.11720671023E+03  0.11720671023E+03  0.00000000000E+00 0. -1.
         23    2    1    2    0    0 -0.93011127155E+02  0.30583623891E+01  0.40636376997E-01  0.13308321060E+03  0.95135250754E+02 0.  0.
         23    2    1    2    0    0  0.50702037289E+02 -0.54659260388E+02  0.71715590260E+02  0.13701769643E+03  0.89846490840E+02 0.  0.
        -13    1    4    4    0    0  0.69181298704E+02 -0.62815890490E+02  0.45529700185E+02  0.10394634090E+03  0.00000000000E+00 0.  1.
         13    1    4    4    0    0 -0.18479261415E+02  0.81566301018E+01  0.26185890075E+02  0.33071355522E+02  0.00000000000E+00 0. -1.
        -13    1    3    3    0    0  0.19743136616E+02  0.38682517078E+01 -0.26606208767E+01  0.20293686658E+02  0.00000000000E+00 0.  1.
         13    1    3    3    0    0 -0.11275426377E+03 -0.80988931867E+00  0.27012572537E+01  0.11278952394E+03  0.00000000000E+00 0. -1.
         21    1    1    2  503  502  0.68597477306E+00  0.38834700512E+02  0.16426152696E+02  0.42171353045E+02  0.00000000000E+00 0.  1.
          3    1    1    2  501    0  0.41623115092E+02  0.12766197488E+02  0.86641020585E+02  0.96964560311E+02  0.00000000000E+00 0. -1.
<scales pt_clust_5="13000.00000" pt_clust_6="13000.00000" pt_clust_7="13000.00000" pt_clust_8="13000.00000" pt_clust_9="38.84076" pt_clust_10="44.17049"></scales>
<clustering>
<clus scale="   38.841">  2  9  1 -1</clus>
<clus scale="   44.170">  1 10  2 -1</clus>
<clus scale="   89.846">  5  6 -1 -1</clus>
<clus scale="   95.135">  7  8 -1 -1</clus>
<clus scale="  121.291">  1  5  2 -1</clus>
<clus scale="   44.170">  1  5  2 -1</clus>
</clustering>
</event>
<event>
10    2  0.3544405E-006  0.1040709E+03  0.7546771E-02  0.1280867E+00
          2   -1    0    0  503    0 -0.00000000000E+00  0.00000000000E+00  0.10019644328E+03  0.10019644328E+03  0.00000000000E+00 0. -1.
         21   -1    0    0  501  502  0.00000000000E+00 -0.00000000000E+00 -0.42819333147E+03  0.42819333147E+03  0.00000000000E+00 0. -1.
         23    2    1    2    0    0  0.12135870558E+02 -0.16067517092E+02  0.33859368593E+02  0.11120626662E+03  0.10399486735E+03 0.  0.
         23    2    1    2    0    0 -0.14352765835E+01 -0.38929497247E+02 -0.14136556635E+03  0.17084470861E+03  0.87670549982E+02 0.  0.
        -13    1    4    4    0    0 -0.20316565237E+02 -0.72784538283E+01  0.30546493739E+01  0.21796091300E+02  0.00000000000E+00 0. -1.
         13    1    4    4    0    0  0.18881288653E+02 -0.31651043418E+02 -0.14442021573E+03  0.14904861731E+03  0.00000000000E+00 0.  1.
        -13    1    3    3    0    0 -0.16059792559E+02  0.28521327143E+02 -0.17893962690E+02  0.37303846180E+02  0.00000000000E+00 0.  1.
         13    1    3    3    0    0  0.28195663117E+02 -0.44588844235E+02  0.51753331283E+02  0.73902420445E+02  0.00000000000E+00 0. -1.
         21    1    1    2  503  502 -0.22354991181E+02  0.88198006914E+01 -0.36232334928E+01  0.24303545747E+02  0.00000000000E+00 0. -1.
          2    1    1    2  501    0  0.11654397206E+02  0.46177213647E+02 -0.21686745695E+03  0.22203525377E+03  0.00000000000E+00 0. -1.
<scales pt_clust_5="13000.00000" pt_clust_6="13000.00000" pt_clust_7="13000.00000" pt_clust_8="13000.00000" pt_clust_9="24.03195" pt_clust_10="47.71873"></scales>
<clustering>
<clus scale="   24.032">  1  9  2 -1</clus>
<clus scale="   47.719">  2 10  1 -1</clus>
<clus scale="   87.671">  5  6 -1 -1</clus>
<clus scale="   87.761">  2  5  1 -1</clus>
<clus scale="  103.995">  7  8 -1 -1</clus>
<clus scale="   47.719">  2  5  1 -1</clus>
</clustering>
</event>
<event>
10    2  0.3544405E-006  0.1370796E+03  0.7546771E-02  0.1230983E+00
          3   -1    0    0  503    0 -0.00000000000E+00  0.00000000000E+00  0.56839516475E+03  0.56839516475E+03  0.00000000000E+00 0. -1.
         21   -1    0    0  501  502  0.00000000000E+00 -0.00000000000E+00 -0.19513025702E+03  0.19513025702E+03  0.00000000000E+00 0. -1.
         23    2    1    2    0    0  0.18650860002E+02  0.33575313893E+02  0.92956081903E+01  0.10027204147E+03  0.92157027329E+02 0.  0.
         23    2    1    2    0    0  0.22169952431E+02  0.26658640337E+02  0.13684305883E+03  0.16860921367E+03  0.92200077481E+02 0.  0.
        -13    1    4    4    0    0  0.45712066118E+02  0.48111554103E+02  0.86286963437E+02  0.10885657852E+03  0.00000000000E+00 0. -1.
         13    1    4    4    0    0 -0.23542113687E+02 -0.21452913766E+02  0.50556095398E+02  0.59752635154E+02  0.00000000000E+00 0.  1.
        -13    1    3    3    0    0  0.39366223315E+02  0.86268366909E+01  0.39156264867E+02  0.56190167536E+02  0.00000000000E+00 0. -1.
         13    1    3    3    0    0 -0.20715363313E+02  0.24948477202E+02 -0.29860656677E+02  0.44081873929E+02  0.00000000000E+00 0.  1.
         21    1    1    2  503  502  0.51304987215E+02  0.35255560430E+01  0.33511366578E+03  0.33903657657E+03  0.00000000000E+00 0. -1.
          3    1    1    2  501    0 -0.92125799647E+02 -0.63759510274E+02 -0.10798742507E+03  0.15560759006E+03  0.00000000000E+00 0. -1.
<scales pt_clust_5="13000.00000" pt_clust_6="13000.00000" pt_clust_7="13000.00000" pt_clust_8="13000.00000" pt_clust_9="51.42598" pt_clust_10="101.43941"></scales>
<clustering>
<clus scale="   51.426">  1  9  2 -1</clus>
<clus scale="   92.157">  7  8 -1 -1</clus>
<clus scale="   92.200">  5  6 -1 -1</clus>
<clus scale="  103.081">  1  7  2 -1</clus>
<clus scale="  101.439">  2 10  1 -1</clus>
<clus scale="  101.439">  2  5  1 -1</clus>
</clustering>
</event>
<event>
10    2  0.3544405E-006  0.1096661E+03  0.7546771E-02  0.1263562E+00
         -1   -1    0    0    0  501 -0.00000000000E+00  0.00000000000E+00  0.11798672366E+03  0.11798672366E+03  0.00000000000E+00 0.  1.
         21   -1    0    0  503  502  0.00000000000E+00 -0.00000000000E+00 -0.81322895836E+03  0.81322895836E+03  0.00000000000E+00 0. -1.
         23    2    1    2    0    0 -0.78982865878E+02  0.50210607694E+02 -0.12463035987E+01  0.13121728302E+03  0.91962078401E+02 0.  0.
         23    2    1    2    0    0 -0.32993631297E+02 -0.95524492201E+02 -0.31579244317E+03  0.34253224640E+03  0.85964901817E+02 0.  0.
        -11    1    3    3    0    0 -0.84830493246E+02  0.18998851833E+02 -0.26240392095E+02  0.90805986216E+02  0.00000000000E+00 0. -1.
         11    1    3    3    0    0  0.58476273685E+01  0.31211755861E+02  0.24994088497E+02  0.40411296806E+02  0.00000000000E+00 0.  1.
        -13    1    4    4    0    0  0.10093107739E+02 -0.84686561107E+02 -0.17118774305E+03  0.19125618376E+03  0.00000000000E+00 0. -1.
         13    1    4    4    0    0 -0.43086739036E+02 -0.10837931094E+02 -0.14460470012E+03  0.15127606264E+03  0.00000000000E+00 0.  1.
         21    1    1    2  503  501  0.74100421190E+02 -0.18971974758E+01  0.32870864885E+00  0.74125433073E+02  0.00000000000E+00 0.  1.
         -1    1    1    2    0  502  0.37876075985E+02  0.47211081983E+02 -0.37853219659E+03  0.38334071953E+03  0.00000000000E+00 0.  1.
<scales pt_clust_5="13000.00000" pt_clust_6="13000.00000" pt_clust_7="13000.00000" pt_clust_8="13000.00000" pt_clust_9="77.36273" pt_clust_10="60.52672"></scales>
<clustering>
<clus scale="   60.527">  2 10  1 -1</clus>
<clus scale="   77.363">  1  9  2 -1</clus>
<clus scale="   85.965">  7  8 -1 -1</clus>
<clus scale="   91.962">  5  6 -1 -1</clus>
<clus scale="  104.688">  2  7  1 -1</clus>
<clus scale="   60.527">  2  5  1 -1</clus>
</clustering>
</event>
<event>
10    2  0.3544405E-006  0.9964403E+02  0.7546771E-02  0.1282019E+00
         21   -1    0    0  501  502  0.00000000000E+00  0.00000000000E+00  0.10184728548E+03  0.10184728548E+03  0.00000000000E+00 0.  1.
          1   -1    0    0  503    0 -0.00000000000E+00 -0.00000000000E+00 -0.38092110688E+03  0.38092110688E+03  0.00000000000E+00 0. -1.
         23    2    1    2    0    0 -0.24653288644E+02 -0.34908995702E+02 -0.20025900388E+03  0.22485439735E+03  0.92894610982E+02 0.  0.
         23    2    1    2    0    0  0.39808069015E+01  0.17367748980E+02  0.52796034096E+02  0.10664976585E+03  0.90935503578E+02 0.  0.
        -13    1    4    4    0    0  0.26874160251E+02 -0.29854623497E+02  0.23903206544E+02  0.46742724744E+02  0.00000000000E+00 0. -1.
         13    1    4    4    0    0 -0.22893353350E+02  0.47222372477E+02  0.28892827552E+02  0.59907041105E+02  0.00000000000E+00 0.  1.
        -13    1    3    3    0    0  0.35636007236E+01 -0.61663580234E+02 -0.10285956200E+03  0.11997993946E+03  0.00000000000E+00 0. -1.
         13    1    3    3    0    0 -0.28216889368E+02  0.26754584532E+02 -0.97399441884E+02  0.10487445789E+03  0.00000000000E+00 0.  1.
         21    1    1    2  503  502  0.24057159523E+02 -0.47550822738E+01 -0.12553578800E+03  0.12790852903E+03  0.00000000000E+00 0. -1.
          1    1    1    2  501    0 -0.33846777808E+01  0.22296328996E+02 -0.60750636133E+01  0.23355700124E+02  0.00000000000E+00 0. -1.
<scales pt_clust_5="13000.00000" pt_clust_6="13000.00000" pt_clust_7="13000.00000" pt_clust_8="13000.00000" pt_clust_9="24.42680" pt_clust_10="22.55177"></scales>
<clustering>
<clus scale="   22.552">  1 10  2 -1</clus>
<clus scale="   24.427">  2  9  1 -1</clus>
<clus scale="   90.936">  5  6 -1 -1</clus>
<clus scale="   92.895">  7  8 -1 -1</clus>
<clus scale="   97.820">  1  5  2 -1</clus>
<clus scale="   22.552">  1  5  2 -1</clus>
</clustering>
</event>
<event>
10    2  0.3544405E-006  0.1334051E+03  0.7546771E-02  0.1236137E+00
          2   -1    0    0  503    0 -0.00000000000E+00  0.00000000000E+00  0.41581672062E+03  0.41581672062E+03  0.00000000000E+00 0. -1.
         21   -1    0    0  501  502  0.00000000000E+00 -0.00000000000E+00 -0.11137995319E+03  0.11137995319E+03  0.00000000000E+00 0.  1.
         23    2    1    2    0    0 -0.15500031579E+02  0.33417321199E+02  0.14023766551E+03  0.16882876847E+03  0.86484576089E+02 0.  0.
         23    2    1    2    0    0 -0.81385489556E+02 -0.71464360226E+02  0.78816978629E+02  0.18192684835E+03  0.12310365282E+03 0.  0.
        -11    1    3    3    0    0 -0.40774010484E+02  0.12703127096E+02  0.25976720836E+02  0.49986792199E+02  0.00000000000E+00 0.  1.
         11    1    3    3    0    0  0.25273978904E+02  0.20714194102E+02  0.11426094467E+03  0.11884197627E+03  0.00000000000E+00 0. -1.
        -13    1    4    4    0    0 -0.10337882144E+03 -0.66704702035E+02  0.93957135176E+02  0.15480517190E+03  0.00000000000E+00 0.  1.
         13    1    4    4    0    0  0.21993331884E+02 -0.47596581902E+01 -0.15140156546E+02  0.27121676454E+02  0.00000000000E+00 0. -1.
         21    1    1    2  503  502  0.38097156074E+02  0.13882820977E+02  0.10282434972E+03  0.11053041624E+03  0.00000000000E+00 0. -1.
          2    1    1    2  501    0  0.58788365061E+02  0.24164218050E+02 -0.17442226430E+02  0.65910640745E+02  0.00000000000E+00 0. -1.
<scales pt_clust_5="13000.00000" pt_clust_6="13000.00000" pt_clust_7="13000.00000" pt_clust_8="13000.00000" pt_clust_9="40.54782" pt_clust_10="66.73701"></scales>
<clustering>
<clus scale="   40.548">  1  9  2 -1</clus>
<clus scale="   66.737">  2 10  1 -1</clus>
<clus scale="   86.485">  5  6 -1 -1</clus>
<clus scale="  100.608">  1  5  2 -1</clus>
<clus scale="  123.104">  7  8 -1 -1</clus>
<clus scale="   66.737">  2  5  1 -1</clus>
</clustering>
</event>
<event>
10    2  0.3544405E-006  0.9808103E+02  0.7546771E-02  0.1285746E+00
         21   -1    0    0  501  502  0.00000000000E+00  0.00000000000E+00  0.17495732614E+03  0.17495732614E+03  0.00000000000E+00 0. -1.
          3   -1    0    0  503    0 -0.00000000000E+00 -0.00000000000E+00 -0.25140497349E+03  0.25140497349E+03  0.00000000000E+00 0. -1.
         23    2    1    2    0    0 -0.48912964446E+02  0.57278761089E+01 -0.96284117281E+02  0.14305002799E+03  0.93634355938E+02 0.  0.
         23    2    1    2    0    0  0.23642188347E+02  0.24266342249E+02  0.55339058958E+01  0.97281439227E+02  0.91023325954E+02 0.  0.
        -11    1    3    3    0    0 -0.55489603760E+02 -0.30057342825E+02 -0.83109173336E+02  0.10435360404E+03  0.00000000000E+00 0.  1.
         11    1    3    3    0    0  0.65766393141E+01  0.35785218934E+02 -0.13174943945E+02  0.38696423953E+02  0.00000000000E+00 0. -1.
        -11    1    4    4    0    0 -0.33666727252E+02 -0.23933668018E+01  0.46363528254E+01  0.34068643883E+02  0.00000000000E+00 0. -1.
         11    1    4    4    0    0  0.57308915598E+02  0.26659709051E+02  0.89755307034E+00  0.63212795344E+02  0.00000000000E+00 0.  1.
         21    1    1    2  503  502  0.29705136714E+02 -0.25826478031E+01 -0.81237831295E+02  0.86536988914E+02  0.00000000000E+00 0. -1.
          3    1    1    2  501    0 -0.44343606155E+01 -0.27411570555E+02  0.95540395325E+02  0.99493843494E+02  0.00000000000E+00 0. -1.
<scales pt_clust_5="13000.00000" pt_clust_6="13000.00000" pt_clust_7="13000.00000" pt_clust_8="13000.00000" pt_clust_9="29.76237" pt_clust_10="27.76793"></scales>
<clustering>
<clus scale="   27.768">  1 10  2 -1</clus>
<clus scale="   29.762">  2  9  1 -1</clus>
<clus scale="   91.023">  7  8 -1 -1</clus>
<clus scale="   93.634">  5  6 -1 -1</clus>
<clus scale="   95.592">  1  7  2 -1</clus>
<clus scale="   27.768">  1  5  2 -1</clus>
</clustering>
</event>
<event>
10    2  0.3544405E-006  0.2210052E+03  0.7546771E-02  0.1133515E+00
          1   -1    0    0  503    0 -0.00000000000E+00  0.00000000000E+00  0.28565196695E+03  0.28565196695E+03  0.00000000000E+00 0. -1.
         21   -1    0    0  501  502  0.00000000000E+00 -0.00000000000E+00 -0.13007598394E+04  0.13007598394E+04  0.00000000000E+00 0. -1.
         23    2    1    2    0    0 -0.18959088245E+03  0.19637410188E+03  0.12033370902E+03  0.31329496950E+03  0.95739468318E+02 0.  0.
         23    2    1    2    0    0  0.87465832200E+02 -0.12836711700E+03 -0.66479055850E+03  0.69002636570E+03  0.10030707932E+03 0.  0.
        -13    1    4    4    0    0  0.18969845867E+02 -0.11223355758E+03 -0.43955781364E+03  0.45405649211E+03  0.00000000000E+00 0.  1.
         13    1    4    4    0    0  0.68495986333E+02 -0.16133559423E+02 -0.22523274486E+03  0.23596987359E+03  0.00000000000E+00 0. -1.
        -13    1    3    3    0    0 -0.11158735062E+03  0.15403037063E+03  0.11932432473E+03  0.22453370876E+03  0.00000000000E+00 0. -1.
         13    1    3    3    0    0 -0.78003531824E+02  0.42343731249E+02  0.10093842941E+01  0.88761260749E+02  0.00000000000E+00 0.  1.
         21    1    1    2  503  502  0.11623446696E+03 -0.91338213120E+01 -0.84033865390E+01  0.11689523047E+03  0.00000000000E+00 0.  1.
          1    1    1    2  501    0 -0.14109416716E+02 -0.58873163566E+02 -0.46224763640E+03  0.46619524063E+03  0.00000000000E+00 0. -1.
<scales pt_clust_5="13000.00000" pt_clust_6="13000.00000" pt_clust_7="13000.00000" pt_clust_8="13000.00000" pt_clust_9="115.97127" pt_clust_10="60.54028"></scales>
<clustering>
<clus scale="   60.540">  2 10  1 -1</clus>
<clus scale="   95.739">  7  8 -1 -1</clus>
<clus scale="  100.307">  5  6 -1 -1</clus>
<clus scale="  115.971">  1  9  2 -1</clus>
<clus scale="  218.970">  1  7  2 -1</clus>
<clus scale="   60.540">  2  5  1 -1</clus>
</clustering>
</event>
<event>
10    2  0.3544405E-006  0.2430020E+03  0.7546771E-02  0.1118422E+00
          2   -1    0    0  503    0 -0.00000000000E+00  0.00000000000E+00  0.26183435631E+04  0.26183435631E+04  0.00000000000E+00 0. -1.
         21   -1    0    0  501  502  0.00000000000E+00 -0.00000000000E+00 -0.40209092917E+02  0.40209092917E+02  0.00000000000E+00 0. -1.
         23    2    1    2    0    0 -0.23146566668E+03 -0.11291213579E+03  0.13576990801E+04  0.13855855716E+04  0.10087159508E+03 0.  0.
         23    2    1    2    0    0  0.13334207724E+03  0.12492453292E+03  0.61165305019E+03  0.64489698833E+03  0.91577416728E+02 0.  0.
        -13    1    3    3    0    0 -0.11001421968E+03  0.26927670802E+00  0.58480975408E+03  0.59506776884E+03  0.00000000000E+00 0.  1.
         13    1    3    3    0    0 -0.12145144700E+03 -0.11318141250E+03  0.77288932606E+03  0.79051780274E+03  0.00000000000E+00 0. -1.
        -13    1    4    4    0    0  0.58963896214E+01  0.53538920713E+02  0.11115859155E+03  0.12352091287E+03  0.00000000000E+00 0.  1.
         13    1    4    4    0    0  0.12744568762E+03  0.71385612209E+02  0.50049445864E+03  0.52137607546E+03  0.00000000000E+00 0. -1.
         21    1    1    2  503  502  0.89024324027E+02 -0.58389041325E+02  0.39236350431E+03  0.40655101762E+03  0.00000000000E+00 0. -1.
          2    1    1    2  501    0  0.90992654164E+01  0.46376644193E+02  0.21641883556E+03  0.22151907851E+03  0.00000000000E+00 0. -1.
<scales pt_clust_5="13000.00000" pt_clust_6="13000.00000" pt_clust_7="13000.00000" pt_clust_8="13000.00000" pt_clust_9="103.43540" pt_clust_10="47.26089"></scales>
<clustering>
<clus scale="   47.261">  2 10  1 -1</clus>
<clus scale="   91.577">  7  8 -1 -1</clus>
<clus scale="  100.872">  5  6 -1 -1</clus>
<clus scale="  103.435">  2  9  1 -1</clus>
<clus scale="  239.293">  2  7  1 -1</clus>
<clus scale="   47.261">  2  5  1 -1</clus>
</clustering>
</event>
<event>
10    2  0.3544405E-006  0.1645307E+03  0.7546771E-02  0.1206705E+00
         21   -1    0    0  501  502  0.00000000000E+00  0.00000000000E+00  0.47347333995E+03  0.47347333995E+03  0.00000000000E+00 0. -1.
          1   -1    0    0  503    0 -0.00000000000E+00 -0.00000000000E+00 -0.22937307347E+03  0.22937307347E+03  0.00000000000E+00 0. -1.
         23    2    1    2    0    0  0.33780756358E+01 -0.20191009513E+01 -0.55493250229E+02  0.10719757236E+03  0.91631493143E+02 0.  0.
         23    2    1    2    0    0  0.89394173664E+02 -0.70474214211E+01 -0.16881031697E+02  0.12764435398E+03  0.89258766732E+02 0.  0.
        -11    1    3    3    0    0 -0.29304431390E+02  0.47503382857E+00  0.12386579572E+02  0.31818276348E+02  0.00000000000E+00 0.  1.
         11    1    3    3    0    0  0.32682507026E+02 -0.24941347798E+01 -0.67879829801E+02  0.75379296014E+02  0.00000000000E+00 0. -1.
        -11    1    4    4    0    0  0.15395766701E+02 -0.25226484709E+02 -0.38409002993E+02  0.48462941244E+02  0.00000000000E+00 0.  1.
         11    1    4    4    0    0  0.73998406963E+02  0.18179063288E+02  0.21527971296E+02  0.79181412738E+02  0.00000000000E+00 0. -1.
         21    1    1    2  503  502  0.39955456380E+02 -0.60169780011E+02 -0.39150127038E+02  0.82155787186E+02  0.00000000000E+00 0. -1.
          1    1    1    2  501    0 -0.13272770568E+03  0.69236302383E+02  0.35562467544E+03  0.38584869989E+03  0.00000000000E+00 0. -1.
<scales pt_clust_5="13000.00000" pt_clust_6="13000.00000" pt_clust_7="13000.00000" pt_clust_8="13000.00000" pt_clust_9="72.22770" pt_clust_10="138.21443"></scales>
<clustering>
<clus scale="   72.228">  2  9  1 -1</clus>
<clus scale="   89.259">  7  8 -1 -1</clus>
<clus scale="   91.631">  5  6 -1 -1</clus>
<clus scale="   99.357">  2  5  1 -1</clus>
<clus scale="  138.214">  1 10  2 -1</clus>
<clus scale="  138.214">  1  5  2 -1</clus>
</clustering>
</event>
<event>
10    2  0.3544405E-006  0.1264757E+03  0.7546771E-02  0.1232950E+00
         -3   -1    0    0    0  501 -0.00000000000E+00  0.00000000000E+00  0.53823005859E+02  0.53823005859E+02  0.00000000000E+00 0.  1.
         21   -1    0    0  503  502  0.00000000000E+00 -0.00000000000E+00 -0.95895635093E+03  0.95895635093E+03  0.00000000000E+00 0.  1.
         23    2    1    2    0    0  0.31161270338E+02 -0.45324733245E+02 -0.15103655059E+03  0.18466187562E+03  0.90898913530E+02 0.  0.
         23    2    1    2    0    0 -0.39626082307E+02  0.13197451466E+03 -0.55628585677E+03  0.58035752860E+03  0.91506325684E+02 0.  0.
        -11    1    4    4    0    0 -0.22300702133E+02  0.14275505181E+03 -0.50132597300E+03  0.52173178678E+03  0.00000000000E+00 0.  1.
         11    1    4    4    0    0 -0.17325380174E+02 -0.10780537155E+02 -0.54959883768E+02  0.58625741815E+02  0.00000000000E+00 0. -1.
        -13    1    3    3    0    0 -0.30728142078E+02 -0.27908574737E+01 -0.50400329067E+02  0.59094845555E+02  0.00000000000E+00 0.  1.
         13    1    3    3    0    0  0.61889412416E+02 -0.42533875771E+02 -0.10063622152E+03  0.12556703007E+03  0.00000000000E+00 0. -1.
         21    1    1    2  503  501  0.32887509462E+02 -0.23256935964E+02 -0.18110625525E+01  0.40320631153E+02  0.00000000000E+00 0.  1.
         -3    1    1    2    0  502 -0.24422697493E+02 -0.63392845451E+02 -0.19599987517E+03  0.20743932142E+03  0.00000000000E+00 0.  1.
<scales pt_clust_5="13000.00000" pt_clust_6="13000.00000" pt_clust_7="13000.00000" pt_clust_8="13000.00000" pt_clust_9="40.27994" pt_clust_10="69.86867"></scales>
<clustering>
<clus scale="   40.280">  1  9  2 -1</clus>
<clus scale="   69.869">  2 10  1 -1</clus>
<clus scale="   90.899">  7  8 -1 -1</clus>
<clus scale="   91.506">  5  6 -1 -1</clus>
<clus scale="  126.037">  1  7  2 -1</clus>
<clus scale="   69.869">  2  5  1 -1</clus>
</clustering>
</event>
<event>
10    2  0.3544405E-006  0.1437614E+03  0.7546771E-02  0.1210066E+00
          1   -1    0    0  503    0 -0.00000000000E+00  0.00000000000E+00  0.35399719021E+03  0.35399719021E+03  0.00000000000E+00 0. -1.
         21   -1    0    0  501  502  0.00000000000E+00 -0.00000000000E+00 -0.41052475939E+03  0.41052475939E+03  0.00000000000E+00 0. -1.
         23    2    1    2    0    0  0.65732905111E+02 -0.83988205319E+02  0.28573116578E+03  0.32032969062E+03  0.97948854744E+02 0.  0.
         23    2    1    2    0    0 -0.41407513112E+02  0.64294160657E+02 -0.34351215415E+03  0.36329720262E+03  0.90199424296E+02 0.  0.
        -11    1    4    4    0    0  0.18947952803E+02  0.41228876421E+02 -0.79928625419E+02  0.91909903317E+02  0.00000000000E+00 0.  1.
         11    1    4    4    0    0 -0.60355465915E+02  0.23065284236E+02 -0.26358352873E+03  0.27138729930E+03  0.00000000000E+00 0. -1.
        -13    1    3    3    0    0  0.62560955902E+02 -0.25617598705E+01  0.13997977617E+03  0.15334527561E+03  0.00000000000E+00 0. -1.
         13    1    3    3    0    0  0.31719492095E+01 -0.81426445448E+02  0.14575138961E+03  0.16698441500E+03  0.00000000000E+00 0.  1.
         21    1    1    2  503  502 -0.45566902049E+02 -0.71987404689E+01 -0.36498608282E+01  0.46276191619E+02  0.00000000000E+00 0.  1.
          1    1    1    2  501    0  0.21241510050E+02  0.26892785131E+02  0.49032800155E+01  0.34618864745E+02  0.00000000000E+00 0. -1.
<scales pt_clust_5="13000.00000" pt_clust_6="13000.00000" pt_clust_7="13000.00000" pt_clust_8="13000.00000" pt_clust_9="44.56768" pt_clust_10="34.26988"></scales>
<clustering>
<clus scale="   34.270">  2 10  1 -1</clus>
<clus scale="   44.568">  2  9  1 -1</clus>
<clus scale="   90.199">  5  6 -1 -1</clus>
<clus scale="   97.949">  7  8 -1 -1</clus>
<clus scale="  138.598">  2  5  1 -1</clus>
<clus scale="   34.270">  2  5  1 -1</clus>
</clustering>
</event>
<event>
10    2  0.3544405E-006  0.1692959E+03  0.7546771E-02  0.1178838E+00
         21   -1    0    0  501  502  0.00000000000E+00  0.00000000000E+00  0.23807556393E+03  0.23807556393E+03  0.00000000000E+00 0. -1.
          1   -1    0    0  503    0 -0.00000000000E+00 -0.00000000000E+00 -0.37006910217E+03  0.37006910217E+03  0.00000000000E+00 0. -1.
         23    2    1    2    0    0 -0.10985670737E+03  0.79210382709E+02 -0.17588279968E+03  0.23969104779E+03  0.90411604813E+02 0.  0.
         23    2    1    2    0    0  0.36526053597E+02 -0.94176638746E+02  0.10966706892E+03  0.17530221199E+03  0.92198739946E+02 0.  0.
        -11    1    3    3    0    0 -0.91115269980E+02  0.91200821588E+02 -0.17508662592E+03  0.21742793946E+03  0.00000000000E+00 0. -1.
         11    1    3    3    0    0 -0.18741437395E+02 -0.11990438879E+02 -0.79617376415E+00  0.22263108336E+02  0.00000000000E+00 0.  1.
        -13    1    4    4    0    0 -0.19384037518E+02 -0.71568517816E+02  0.76238984765E+02  0.10634931335E+03  0.00000000000E+00 0. -1.
         13    1    4    4    0    0  0.55910091116E+02 -0.22608120930E+02  0.33428084155E+02  0.68952898640E+02  0.00000000000E+00 0.  1.
         21    1    1    2  503  502 -0.29232413673E+02  0.18409707776E+02 -0.82255957406E+02  0.89215995642E+02  0.00000000000E+00 0. -1.
          1    1    1    2  501    0  0.10256306745E+03 -0.34434517395E+01  0.16478149931E+02  0.10393541066E+03  0.00000000000E+00 0. -1.
<scales pt_clust_5="13000.00000" pt_clust_6="13000.00000" pt_clust_7="13000.00000" pt_clust_8="13000.00000" pt_clust_9="34.54637" pt_clust_10="98.06922"></scales>
<clustering>
<clus scale="   34.546">  2  9  1 -1</clus>
<clus scale="   90.412">  5  6 -1 -1</clus>
<clus scale="   92.199">  7  8 -1 -1</clus>
<clus scale="   98.069">  1 10  2 -1</clus>
<clus scale="  168.329">  2  5  1 -1</clus>
<clus scale="   98.069">  1  5  2 -1</clus>
</clustering>
</event>
<event>
10    2  0.3544405E-006  0.2275289E+03  0.7546771E-02  0.1128483E+00
          1   -1    0    0  503    0 -0.00000000000E+00  0.00000000000E+00  0.10924969004E+04  0.10924969004E+04  0.00000000000E+00 0. -1.
         21   -1    0    0  501  502  0.00000000000E+00 -0.00000000000E+00 -0.22714928383E+03  0.22714928383E+03  0.00000000000E+00 0. -1.
         23    2    1    2    0    0 -0.11971210515E+03  0.17255981946E+03  0.63628449124E+03  0.67606899406E+03  0.90019173138E+02 0.  0.
         23    2    1    2    0    0  0.12671058192E+03 -0.13843495006E+03  0.17028610156E+03  0.26935653563E+03  0.91300492515E+02 0.  0.
        -13    1    3    3    0    0 -0.43799541275E+02  0.10411715936E+02  0.81463484937E+02  0.93075791819E+02  0.00000000000E+00 0.  1.
         13    1    3    3    0    0 -0.75912563875E+02  0.16214810352E+03  0.55482100630E+03  0.58299320224E+03  0.00000000000E+00 0. -1.
        -13    1    4    4    0    0  0.67934509621E+02 -0.21935376459E+02  0.94583204110E+02  0.11849996134E+03  0.00000000000E+00 0. -1.
         13    1    4    4    0    0  0.58776072296E+02 -0.11649957360E+03  0.75702897454E+02  0.15085657429E+03  0.00000000000E+00 0.  1.
         21    1    1    2  503  502 -0.27354454296E+02 -0.45901710563E+01  0.21355084322E+03  0.21534460401E+03  0.00000000000E+00 0.  1.
          1    1    1    2  501    0  0.20355977529E+02 -0.29534698339E+02 -0.15477381947E+03  0.15887605049E+03  0.00000000000E+00 0. -1.
<scales pt_clust_5="13000.00000" pt_clust_6="13000.00000" pt_clust_7="13000.00000" pt_clust_8="13000.00000" pt_clust_9="27.73690" pt_clust_10="35.84272"></scales>
<clustering>
<clus scale="   27.737">  1  9  2 -1</clus>
<clus scale="   35.843">  2 10  1 -1</clus>
<clus scale="   90.019">  5  6 -1 -1</clus>
<clus scale="   91.300">  7  8 -1 -1</clus>
<clus scale="  227.018">  1  5  2 -1</clus>
<clus scale="   35.843">  2  5  1 -1</clus>
</clustering>
</event>
<event>
10    2  0.3544405E-006  0.1627916E+03  0.7546771E-02  0.1199705E+00
         21   -1    0    0  503  502  0.00000000000E+00  0.00000000000E+00  0.19585765775E+03  0.19585765775E+03  0.00000000000E+00 0.  1.
         -1   -1    0    0    0  501 -0.00000000000E+00 -0.00000000000E+00 -0.50483200912E+03  0.50483200912E+03  0.00000000000E+00 0.  1.
         23    2    1    2    0    0 -0.60640125631E+02 -0.37213925780E+02 -0.16079448788E+03  0.19768124928E+03  0.90337743371E+02 0.  0.
         23    2    1    2    0    0  0.60232615052E+02 -0.64087785590E+02 -0.21675022013E+03  0.25149949515E+03  0.92391157341E+02 0.  0.
        -11    1    4    4    0    0  0.56034102005E+02 -0.87343612124E+02 -0.18120040383E+03  0.20881166997E+03  0.00000000000E+00 0.  1.
         11    1    4    4    0    0  0.41985130464E+01  0.23255826534E+02 -0.35549816304E+02  0.42687825182E+02  0.00000000000E+00 0. -1.
        -11    1    3    3    0    0 -0.37546080270E+02 -0.66910189030E+02 -0.11743391724E+03  0.14027617922E+03  0.00000000000E+00 0.  1.
         11    1    3    3    0    0 -0.23094045361E+02  0.29696263250E+02 -0.43360570638E+02  0.57405070056E+02  0.00000000000E+00 0. -1.
         21    1    1    2  503  501  0.10799619907E+02 -0.41630164507E+02 -0.49681108734E+02  0.65710843489E+02  0.00000000000E+00 0.  1.
         -1    1    1    2    0  502 -0.10392109327E+02  0.14293187588E+03  0.11825146538E+03  0.18579807895E+03  0.00000000000E+00 0.  1.
<scales pt_clust_5="13000.00000" pt_clust_6="13000.00000" pt_clust_7="13000.00000" pt_clust_8="13000.00000" pt_clust_9="43.00817" pt_clust_10="134.03354"></scales>
<clustering>
<clus scale="   43.008">  2  9  1 -1</clus>
<clus scale="   90.338">  7  8 -1 -1</clus>
<clus scale="   92.391">  5  6 -1 -1</clus>
<clus scale="  119.320">  2  7  1 -1</clus>
<clus scale="  134.034">  1 10  2 -1</clus>
<clus scale="  134.034">  1  5  2 -1</clus>
</clustering>
</event>
<event>
10    2  0.3544405E-006  0.9978101E+02  0.7546771E-02  0.1281148E+00
          3   -1    0    0  503    0 -0.00000000000E+00  0.00000000000E+00  0.20759084952E+03  0.20759084952E+03  0.00000000000E+00 0. -1.
         21   -1    0    0  501  502  0.00000000000E+00 -0.00000000000E+00 -0.95310468267E+02  0.95310468267E+02  0.00000000000E+00 0.  1.
         23    2    1    2    0    0 -0.33047937794E+02  0.37133330518E+01  0.81275498539E+02  0.12712577536E+03  0.91920079761E+02 0.  0.
         23    2    1    2    0    0  0.53825338952E+02  0.72062250115E-03 -0.73611253874E+01  0.10608402947E+03  0.91117879851E+02 0.  0.
        -11    1    3    3    0    0 -0.57897197184E+02  0.26489029497E+02  0.58333766765E+02  0.86351505316E+02  0.00000000000E+00 0. -1.
         11    1    3    3    0    0  0.24849259390E+02 -0.22775696445E+02  0.22941731774E+02  0.40774270043E+02  0.00000000000E+00 0.  1.
        -13    1    4    4    0    0  0.43552293597E+02  0.25908444674E+02 -0.38981480783E+02  0.63934385326E+02  0.00000000000E+00 0.  1.
         13    1    4    4    0    0  0.10273045355E+02 -0.25907724051E+02  0.31620355396E+02  0.42149644147E+02  0.00000000000E+00 0. -1.
         21    1    1    2  503  502  0.57552794376E+01  0.21087085783E+02  0.14080054969E+02  0.26000699532E+02  0.00000000000E+00 0. -1.
          3    1    1    2  501    0 -0.26532680595E+02 -0.24801139457E+02  0.24285953134E+02  0.43690813423E+02  0.00000000000E+00 0. -1.
<scales pt_clust_5="13000.00000" pt_clust_6="13000.00000" pt_clust_7="13000.00000" pt_clust_8="13000.00000" pt_clust_9="21.85837" pt_clust_10="33.01322"></scales>
<clustering>
<clus scale="   21.858">  1  9  2 -1</clus>
<clus scale="   33.013">  2 10  1 -1</clus>
<clus scale="   91.118">  7  8 -1 -1</clus>
<clus scale="   91.920">  5  6 -1 -1</clus>
<clus scale="   99.043">  2  7  1 -1</clus>
<clus scale="   33.013">  2  5  1 -1</clus>
</clustering>
</event>
<event>
10    2  0.3544405E-006  0.9564550E+02  0.7546771E-02  0.1289758E+00
         21   -1    0    0  501  502  0.00000000000E+00  0.00000000000E+00  0.58987218283E+02  0.58987218283E+02  0.00000000000E+00 0. -1.
          1   -1    0    0  503    0 -0.00000000000E+00 -0.00000000000E+00 -0.45476835438E+03  0.45476835438E+03  0.00000000000E+00 0. -1.
         23    2    1    2    0    0 -0.11388922208E+02  0.21219306148E+02 -0.17913830798E+03  0.20308275445E+03  0.92585664461E+02 0.  0.
         23    2    1    2    0    0  0.24033834595E+02  0.53821171750E+00 -0.11379429516E+03  0.14862450725E+03  0.92532089920E+02 0.  0.
        -13    1    4    4    0    0 -0.33535026021E+02  0.85531109407E+01 -0.25802638504E+02  0.43168620904E+02  0.00000000000E+00 0. -1.
         13    1    4    4    0    0  0.57568860617E+02 -0.80148992232E+01 -0.87991656661E+02  0.10545588634E+03  0.00000000000E+00 0.  1.
        -13    1    3    3    0    0 -0.25853903053E+02 -0.27779926827E+02 -0.41334426323E+02  0.56113130701E+02  0.00000000000E+00 0.  1.
         13    1    3    3    0    0  0.14464980846E+02  0.48999232975E+02 -0.13780388166E+03  0.14696962375E+03  0.00000000000E+00 0. -1.
         21    1    1    2  503  502 -0.22463614711E+02  0.78620024520E+01 -0.12275110191E+03  0.12503702687E+03  0.00000000000E+00 0. -1.
          1    1    1    2  501    0  0.98187023230E+01 -0.29619520317E+02  0.19902568965E+02  0.37011284097E+02  0.00000000000E+00 0. -1.
<scales pt_clust_5="13000.00000" pt_clust_6="13000.00000" pt_clust_7="13000.00000" pt_clust_8="13000.00000" pt_clust_9="23.79969" pt_clust_10="30.83270"></scales>
<clustering>
<clus scale="   23.800">  2  9  1 -1</clus>
<clus scale="   30.833">  1 10  2 -1</clus>
<clus scale="   92.532">  5  6 -1 -1</clus>
<clus scale="   92.586">  7  8 -1 -1</clus>
<clus scale="   95.594">  1  5  2 -1</clus>
<clus scale="   30.833">  1  5  2 -1</clus>
</clustering>
</event>
<event>
10    2  0.3544405E-006  0.9408761E+02  0.7546771E-02  0.1293851E+00
         -1   -1    0    0    0  501 -0.00000000000E+00  0.00000000000E+00  0.44774353576E+03  0.44774353576E+03  0.00000000000E+00 0.  1.
         21   -1    0    0  503  502  0.00000000000E+00 -0.00000000000E+00 -0.93094355751E+02  0.93094355751E+02  0.00000000000E+00 0.  1.
         23    2    1    2    0    0 -0.93624991681E+01  0.16617131713E+02  0.12965453675E+03  0.16007650595E+03  0.91926075736E+02 0.  0.
         23    2    1    2    0    0 -0.42358886370E+02  0.15917423397E+02 -0.14723273808E+02  0.10255176190E+03  0.90842993424E+02 0.  0.
        -11    1    4    4    0    0 -0.66880489667E+02  0.14868366805E+01  0.62735271015E+01  0.67190532991E+02  0.00000000000E+00 0.  1.
         11    1    4    4    0    0  0.24521603296E+02  0.14430586717E+02 -0.20996800910E+02  0.35361228905E+02  0.00000000000E+00 0. -1.
        -13    1    3    3    0    0  0.19325343253E+02  0.32893375188E+02  0.11968657510E+03  0.12561974081E+03  0.00000000000E+00 0.  1.
         13    1    3    3    0    0 -0.28687842421E+02 -0.16276243474E+02  0.99679616560E+01  0.34456765141E+02  0.00000000000E+00 0. -1.
         21    1    1    2  503  501  0.19811425466E+02  0.17491009852E+02  0.21034935013E+03  0.21200301202E+03  0.00000000000E+00 0.  1.
         -1    1    1    2    0  502  0.31909960072E+02 -0.50025564962E+02  0.29368566934E+02  0.66206611644E+02  0.00000000000E+00 0.  1.
<scales pt_clust_5="13000.00000" pt_clust_6="13000.00000" pt_clust_7="13000.00000" pt_clust_8="13000.00000" pt_clust_9="26.42779" pt_clust_10="58.74697"></scales>
<clustering>
<clus scale="   26.428">  1  9  2 -1</clus>
<clus scale="   58.747">  2 10  1 -1</clus>
<clus scale="   90.843">  5  6 -1 -1</clus>
<clus scale="   91.926">  7  8 -1 -1</clus>
<clus scale="   93.030">  2  5  1 -1</clus>
<clus scale="   58.747">  2  5  1 -1</clus>
</clustering>
</event>
<event>
10    2  0.3544405E-006  0.1855440E+03  0.7546771E-02  0.1162999E+00
         21   -1    0    0  501  502  0.00000000000E+00  0.00000000000E+00  0.16969195593E+03  0.16969195593E+03  0.00000000000E+00 0. -1.
          1   -1    0    0  503    0 -0.00000000000E+00 -0.00000000000E+00 -0.65165190676E+03  0.65165190676E+03  0.00000000000E+00 0. -1.
         23    2    1    2    0    0 -0.42703286224E+01 -0.16723160577E+03 -0.23662562024E+03  0.30447127079E+03  0.93415335502E+02 0.  0.
         23    2    1    2    0    0  0.72764003715E+02  0.19039168000E+03 -0.13245161403E+02  0.22299235397E+03  0.89479403099E+02 0.  0.
        -11    1    3    3    0    0  0.36470253035E+02 -0.13413375036E+03 -0.17625028123E+03  0.22446849217E+03  0.00000000000E+00 0. -1.
         11    1    3    3    0    0 -0.40740581658E+02 -0.33097855408E+02 -0.60375339004E+02  0.80002778616E+02  0.00000000000E+00 0.  1.
        -13    1    4    4    0    0  0.78024752682E+01  0.82760656188E+02  0.32439725124E+02  0.89233068977E+02  0.00000000000E+00 0. -1.
         13    1    4    4    0    0  0.64961528447E+02  0.10763102381E+03 -0.45684886527E+02  0.13375928499E+03  0.00000000000E+00 0.  1.
         21    1    1    2  503  502  0.34545538183E+02  0.34006059101E+02 -0.12720422172E+03  0.13612758827E+03  0.00000000000E+00 0. -1.
          1    1    1    2  501    0 -0.10303921328E+03 -0.57166133329E+02 -0.10488494746E+03  0.15775264967E+03  0.00000000000E+00 0. -1.
<scales pt_clust_5="13000.00000" pt_clust_6="13000.00000" pt_clust_7="13000.00000" pt_clust_8="13000.00000" pt_clust_9="48.47480" pt_clust_10="106.09035"></scales>
<clustering>
<clus scale="   48.475">  2  9  1 -1</clus>
<clus scale="   89.479">  7  8 -1 -1</clus>
<clus scale="   93.415">  5  6 -1 -1</clus>
<clus scale="  106.090">  1 10  2 -1</clus>
<clus scale="  183.594">  1  7  2 -1</clus>
<clus scale="  106.090">  1  5  2 -1</clus>
</clustering>
</event>
<event>
10    2  0.3544405E-006  0.9091321E+02  0.7546771E-02  0.1303686E+00
          4   -1    0    0  503    0 -0.00000000000E+00  0.00000000000E+00  0.27640024464E+03  0.27640024464E+03  0.00000000000E+00 0. -1.
         21   -1    0    0  501  502  0.00000000000E+00 -0.00000000000E+00 -0.56641631512E+02  0.56641631512E+02  0.00000000000E+00 0. -1.
         23    2    1    2    0    0 -0.16069749188E+02  0.56414043883E+01  0.88628493517E+02  0.12441426302E+03  0.85637822823E+02 0.  0.
         23    2    1    2    0    0 -0.34485896192E+02  0.10836517923E+02  0.73270559806E+02  0.12198442627E+03  0.90581003311E+02 0.  0.
        -13    1    4    4    0    0  0.78927258333E+01  0.28722712259E+02 -0.59519138517E+01  0.30376217657E+02  0.00000000000E+00 0.  1.
         13    1    4    4    0    0 -0.42378622025E+02 -0.17886194336E+02  0.79222473658E+02  0.91608208612E+02  0.00000000000E+00 0. -1.
        -13    1    3    3    0    0  0.30161515765E+02 -0.25800941312E+01  0.65314200280E+02  0.71988323200E+02  0.00000000000E+00 0.  1.
         13    1    3    3    0    0 -0.46231264953E+02  0.82214985195E+01  0.23314293237E+02  0.52425939822E+02  0.00000000000E+00 0. -1.
         21    1    1    2  503  502  0.16661617624E+02 -0.14452717041E+02  0.45401104590E+02  0.50475249675E+02  0.00000000000E+00 0.  1.
          4    1    1    2  501    0  0.33894027756E+02 -0.20252052703E+01  0.12458455213E+02  0.36167937185E+02  0.00000000000E+00 0. -1.
<scales pt_clust_5="13000.00000" pt_clust_6="13000.00000" pt_clust_7="13000.00000" pt_clust_8="13000.00000" pt_clust_9="22.05653" pt_clust_10="35.84473"></scales>
<clustering>
<clus scale="   22.057">  1  9  2 -1</clus>
<clus scale="   35.845">  2 10  1 -1</clus>
<clus scale="   85.638">  7  8 -1 -1</clus>
<clus scale="   85.989">  1  7  2 -1</clus>
<clus scale="   90.581">  5  6 -1 -1</clus>
<clus scale="   35.845">  2  5  1 -1</clus>
</clustering>
</event>
<event>
10    2  0.3544405E-006  0.1708481E+03  0.7546771E-02  0.1177105E+00
         -3   -1    0    0    0  501 -0.00000000000E+00  0.00000000000E+00  0.93743887755E+03  0.93743887755E+03  0.00000000000E+00 0.  1.
         21   -1    0    0  503  502  0.00000000000E+00 -0.00000000000E+00 -0.10430046545E+03  0.10430046545E+03  0.00000000000E+00 0.  1.
         23    2    1    2    0    0  0.65766696900E+02 -0.97422412822E+02  0.39625940762E+03  0.42297690633E+03  0.89841862253E+02 0.  0.
         23    2    1    2    0    0 -0.23513635272E+02  0.18149095961E+03  0.28694867137E+03  0.35225702768E+03  0.90849403326E+02 0.  0.
        -11    1    4    4    0    0 -0.83432803828E+01  0.16165266632E+03  0.28428973986E+03  0.32714194327E+03  0.00000000000E+00 0.  1.
         11    1    4    4    0    0 -0.15170354889E+02  0.19838293293E+02  0.26589315094E+01  0.25115084412E+02  0.00000000000E+00 0. -1.
        -13    1    3    3    0    0  0.33874042274E+02  0.86792552790E+01  0.12919186608E+03  0.13384064582E+03  0.00000000000E+00 0.  1.
         13    1    3    3    0    0  0.31892654627E+02 -0.10610166810E+03  0.26706754154E+03  0.28913626050E+03  0.00000000000E+00 0. -1.
         21    1    1    2  503  501 -0.72414528315E+01 -0.39798218723E+02  0.19193327007E+03  0.19614973111E+03  0.00000000000E+00 0. -1.
         -3    1    1    2    0  502 -0.35011608797E+02 -0.44270328065E+02 -0.42002936964E+02  0.70355677888E+02  0.00000000000E+00 0.  1.
<scales pt_clust_5="13000.00000" pt_clust_6="13000.00000" pt_clust_7="13000.00000" pt_clust_8="13000.00000" pt_clust_9="40.45166" pt_clust_10="57.12387"></scales>
<clustering>
<clus scale="   40.452">  1  9  2 -1</clus>
<clus scale="   57.124">  2 10  1 -1</clus>
<clus scale="   89.842">  7  8 -1 -1</clus>
<clus scale="   90.849">  5  6 -1 -1</clus>
<clus scale="  170.314">  1  7  2 -1</clus>
<clus scale="   57.124">  2  5  1 -1</clus>
</clustering>
</event>
<event>
10    2  0.3544405E-006  0.1260190E+03  0.7546771E-02  0.1235937E+00
          2   -1    0    0  503    0 -0.00000000000E+00  0.00000000000E+00  0.61873876260E+03  0.61873876260E+03  0.00000000000E+00 0. -1.
         21   -1    0    0  501  502  0.00000000000E+00 -0.00000000000E+00 -0.88080899398E+02  0.88080899398E+02  0.00000000000E+00 0. -1.
         23    2    1    2    0    0 -0.24657514341E+02 -0.60383534287E+02  0.47567961769E+03  0.48896570823E+03  0.92532161520E+02 0.  0.
         23    2    1    2    0    0 -0.36837493884E+00  0.52233285086E+02 -0.74178496198E+01  0.11341860879E+03  0.10040071990E+03 0.  0.
        -11    1    3    3    0    0 -0.49764632796E+02 -0.65659781638E+02  0.41477137880E+03  0.42287471227E+03  0.00000000000E+00 0. -1.
         11    1    3    3    0    0  0.25107118455E+02  0.52762473509E+01  0.60908238885E+02  0.66090995962E+02  0.00000000000E+00 0.  1.
        -13    1    4    4    0    0 -0.23367778088E+01  0.81692455739E+02 -0.14631491174E+02  0.83025287649E+02  0.00000000000E+00 0.  1.
         13    1    4    4    0    0  0.19684028700E+01 -0.29459170654E+02  0.72136415542E+01  0.30393321140E+02  0.00000000000E+00 0. -1.
         21    1    1    2  503  502  0.93067654528E+01 -0.20949054187E+02  0.67211446318E+02  0.71013078167E+02  0.00000000000E+00 0. -1.
          2    1    1    2  501    0  0.15719123827E+02  0.29099303388E+02 -0.48153511869E+01  0.33422266809E+02  0.00000000000E+00 0. -1.
<scales pt_clust_5="13000.00000" pt_clust_6="13000.00000" pt_clust_7="13000.00000" pt_clust_8="13000.00000" pt_clust_9="22.92332" pt_clust_10="32.71241"></scales>
<clustering>
<clus scale="   22.923">  1  9  2 -1</clus>
<clus scale="   32.712">  2 10  1 -1</clus>
<clus scale="   92.532">  5  6 -1 -1</clus>
<clus scale="  100.401">  7  8 -1 -1</clus>
<clus scale="  119.844">  1  5  2 -1</clus>
<clus scale="   32.712">  2  5  1 -1</clus>
</clustering>
</event>
<event>
10    2  0.3544405E-006  0.1163434E+03  0.7546771E-02  0.1249381E+00
          2   -1    0    0  503    0 -0.00000000000E+00  0.00000000000E+00  0.49799389407E+03  0.49799389407E+03  0.00000000000E+00 0. -1.
         21   -1    0    0  501  502  0.00000000000E+00 -0.00000000000E+00 -0.16071140984E+03  0.16071140984E+03  0.00000000000E+00 0. -1.
         23    2    1    2    0    0 -0.61680318819E+02  0.14857285447E+02  0.13160608439E+03  0.17280120368E+03  0.92276182657E+02 0.  0.
         23    2    1    2    0    0  0.59316697974E+02 -0.14962032731E+02  0.44254942695E+02  0.11951769528E+03  0.92647970563E+02 0.  0.
        -11    1    4    4    0    0  0.33400708149E+02 -0.50712604557E+02  0.44629451744E+02  0.75360225110E+02  0.00000000000E+00 0. -1.
         11    1    4    4    0    0  0.25915989825E+02  0.35750571825E+02 -0.37450904905E+00  0.44157470166E+02  0.00000000000E+00 0.  1.
        -13    1    3    3    0    0  0.49160345664E+00 -0.32201642607E+02  0.53437129195E+02  0.62391619927E+02  0.00000000000E+00 0. -1.
         13    1    3    3    0    0 -0.62171922276E+02  0.47058928054E+02  0.78168955192E+02  0.11040958375E+03  0.00000000000E+00 0.  1.
         21    1    1    2  503  502 -0.57765926342E+02 -0.43344023897E+02  0.24453754368E+03  0.25497885583E+03  0.00000000000E+00 0. -1.
          2    1    1    2  501    0  0.60129547187E+02  0.43448771181E+02 -0.83116086524E+02  0.11140754912E+03  0.00000000000E+00 0. -1.
<scales pt_clust_5="13000.00000" pt_clust_6="13000.00000" pt_clust_7="13000.00000" pt_clust_8="13000.00000" pt_clust_9="72.21916" pt_clust_10="70.06991"></scales>
<clustering>
<clus scale="   72.219">  1  9  2 -1</clus>
<clus scale="   70.070">  2 10  1 -1</clus>
<clus scale="   92.276">  7  8 -1 -1</clus>
<clus scale="   92.648">  5  6 -1 -1</clus>
<clus scale="  116.048">  1  7  2 -1</clus>
<clus scale="   70.070">  2  5  1 -1</clus>
</clustering>
</event>
<event>
10    2  0.3544405E-006  0.1102731E+03  0.7546771E-02  0.1261631E+00
         -1   -1    0    0    0  501 -0.00000000000E+00  0.00000000000E+00  0.10999433698E+04  0.10999433698E+04  0.00000000000E+00 0.  1.
         21   -1    0    0  503  502  0.00000000000E+00 -0.00000000000E+00 -0.33081714538E+02  0.33081714538E+02  0.00000000000E+00 0.  1.
         23    2    1    2    0    0  0.49506579749E+02  0.18325769322E+02  0.47886258357E+03  0.49012185905E+03  0.90129504135E+02 0.  0.
         23    2    1    2    0    0 -0.43792832318E+02  0.21869445754E+02  0.18552472433E+03  0.21369069705E+03  0.94064902325E+02 0.  0.
        -11    1    3    3    0    0 -0.53806524671E+00 -0.32857130689E+02  0.14813662179E+03  0.15173773185E+03  0.00000000000E+00 0.  1.
         11    1    3    3    0    0  0.50044644996E+02  0.51182900011E+02  0.33072596178E+03  0.33838412720E+03  0.00000000000E+00 0. -1.
        -11    1    4    4    0    0 -0.20807006266E+02  0.58491299316E+02  0.96908511123E+02  0.11508876198E+03  0.00000000000E+00 0.  1.
         11    1    4    4    0    0 -0.22985826052E+02 -0.36621853562E+02  0.88616213207E+02  0.98601935076E+02  0.00000000000E+00 0. -1.
         21    1    1    2  503  501  0.30625772397E+02  0.27157451698E+02  0.29178795240E+03  0.29464499705E+03  0.00000000000E+00 0.  1.
         -1    1    1    2    0  502 -0.36339519828E+02 -0.67352666773E+02  0.11068639500E+03  0.13456753123E+03  0.00000000000E+00 0.  1.
<scales pt_clust_5="13000.00000" pt_clust_6="13000.00000" pt_clust_7="13000.00000" pt_clust_8="13000.00000" pt_clust_9="40.93245" pt_clust_10="70.71944"></scales>
<clustering>
<clus scale="   40.932">  1  9  2 -1</clus>
<clus scale="   70.719">  2 10  1 -1</clus>
<clus scale="   90.130">  5  6 -1 -1</clus>
<clus scale="   94.065">  7  8 -1 -1</clus>
<clus scale="  106.936">  1  5  2 -1</clus>
<clus scale="   70.719">  2  5  1 -1</clus>
</clustering>
</event>
<event>
10    2  0.3544405E-006  0.2610441E+03  0.7546771E-02  0.1123890E+00
          1   -1    0    0  503    0 -0.00000000000E+00  0.00000000000E+00  0.59267323048E+03  0.59267323048E+03  0.00000000000E+00 0. -1.
         21   -1    0    0  501  502  0.00000000000E+00 -0.00000000000E+00 -0.13207115410E+04  0.13207115410E+04  0.00000000000E+00 0. -1.
         23    2    1    2    0    0  0.11212242343E+03  0.68028593130E+02  0.24964709009E+03  0.29890723312E+03  0.99108713541E+02 0.  0.
         23    2    1    2    0    0  0.87990796431E+02  0.13079426418E+03 -0.11645295990E+03  0.21582510384E+03  0.90386192408E+02 0.  0.
        -11    1    4    4    0    0  0.57716064963E+02  0.15513743902E+02 -0.21775131959E+02  0.63607993023E+02  0.00000000000E+00 0.  1.
         11    1    4    4    0    0  0.30274731468E+02  0.11528052028E+03 -0.94677827943E+02  0.15221711081E+03  0.00000000000E+00 0. -1.
        -11    1    3    3    0    0 -0.13870442070E+02  0.14637345609E+02  0.90155388874E+01  0.22088933680E+02  0.00000000000E+00 0.  1.
         11    1    3    3    0    0  0.12599286550E+03  0.53391247521E+02  0.24063155120E+03  0.27681829944E+03  0.00000000000E+00 0. -1.
         21    1    1    2  503  502  0.21552793542E+02 -0.32162506748E+02  0.25018186114E+03  0.25315985739E+03  0.00000000000E+00 0. -1.
          1    1    1    2  501    0 -0.22166601340E+03 -0.16666035056E+03 -0.11114143018E+04  0.11454925771E+04  0.00000000000E+00 0. -1.
<scales pt_clust_5="13000.00000" pt_clust_6="13000.00000" pt_clust_7="13000.00000" pt_clust_8="13000.00000" pt_clust_9="38.71627" pt_clust_10="244.89660"></scales>
<clustering>
<clus scale="   38.716">  1  9  2 -1</clus>
<clus scale="   90.386">  5  6 -1 -1</clus>
<clus scale="   99.109">  7  8 -1 -1</clus>
<clus scale="  168.402">  1  7  2 -1</clus>
<clus scale="  244.897">  2 10  1 -1</clus>
<clus scale="  244.897">  2  5  1 -1</clus>
</clustering>
</event>
<event>
10    2  0.3544405E-006  0.1282141E+03  0.7546771E-02  0.1230389E+00
         21   -1    0    0  501  502  0.00000000000E+00  0.00000000000E+00  0.15331507177E+03  0.15331507177E+03  0.00000000000E+00 0. -1.
          1   -1    0    0  503    0 -0.00000000000E+00 -0.00000000000E+00 -0.81012900110E+03  0.81012900110E+03  0.00000000000E+00 0. -1.
         23    2    1    2    0    0 -0.35609666305E+02 -0.10044277201E+03 -0.40411078237E+03  0.42763167738E+03  0.90589890666E+02 0.  0.
         23    2    1    2    0    0  0.11847102200E+03  0.15610698838E+01 -0.31438529326E+03  0.34821980266E+03  0.91548338873E+02 0.  0.
        -11    1    4    4    0    0  0.15131659249E+02 -0.35975863074E+02 -0.67733942105E+02  0.78173632055E+02  0.00000000000E+00 0.  1.
         11    1    4    4    0    0  0.10333936275E+03  0.37536932958E+02 -0.24665135116E+03  0.27004617060E+03  0.00000000000E+00 0. -1.
        -13    1    3    3    0    0 -0.57847742648E+02 -0.79237544015E+02 -0.36465703776E+03  0.37762376103E+03  0.00000000000E+00 0. -1.
         13    1    3    3    0    0  0.22238076343E+02 -0.21205227991E+02 -0.39453744610E+02  0.50007916347E+02  0.00000000000E+00 0.  1.
         21    1    1    2  503  502 -0.59963784305E+01  0.31654922442E+02 -0.34575980364E+02  0.47259804139E+02  0.00000000000E+00 0.  1.
          1    1    1    2  501    0 -0.76864977261E+02  0.67226779681E+02  0.96258126656E+02  0.14033278869E+03  0.00000000000E+00 0. -1.
<scales pt_clust_5="13000.00000" pt_clust_6="13000.00000" pt_clust_7="13000.00000" pt_clust_8="13000.00000" pt_clust_9="32.21786" pt_clust_10="102.84387"></scales>
<clustering>
<clus scale="   32.218">  2  9  1 -1</clus>
<clus scale="   90.590">  7  8 -1 -1</clus>
<clus scale="   91.548">  5  6 -1 -1</clus>
<clus scale="  102.844">  1 10  2 -1</clus>
<clus scale="  127.532">  2  7  1 -1</clus>
<clus scale="  102.844">  1  5  2 -1</clus>
</clustering>
</event>
<event>
10    2  0.3544405E-006  0.9225507E+02  0.7546771E-02  0.1298035E+00
         21   -1    0    0  503  502  0.00000000000E+00  0.00000000000E+00  0.60121074876E+03  0.60121074876E+03  0.00000000000E+00 0.  1.
         -4   -1    0    0    0  501 -0.00000000000E+00 -0.00000000000E+00 -0.52877382760E+02  0.52877382760E+02  0.00000000000E+00 0.  1.
         23    2    1    2    0    0  0.25659826387E+02 -0.29519460827E+02  0.13815759923E+03  0.16978913274E+03  0.90614580032E+02 0.  0.
         23    2    1    2    0    0  0.21357996710E+01 -0.12279406212E+01  0.18874233616E+03  0.20979364111E+03  0.91562180585E+02 0.  0.
        -11    1    4    4    0    0  0.45604175035E+02  0.54215598442E+01  0.11643215256E+03  0.12516221571E+03  0.00000000000E+00 0.  1.
         11    1    4    4    0    0 -0.43468375364E+02 -0.66495004654E+01  0.72310183592E+02  0.84631425394E+02  0.00000000000E+00 0. -1.
        -11    1    3    3    0    0  0.44763778188E+02 -0.42392586893E+02  0.52150074877E+02  0.80749969479E+02  0.00000000000E+00 0. -1.
         11    1    3    3    0    0 -0.19103951801E+02  0.12873126066E+02  0.86007524354E+02  0.89039163264E+02  0.00000000000E+00 0.  1.
         21    1    1    2  503  501 -0.27288428036E+02  0.58642076168E+02  0.15264350230E+02  0.66457142504E+02  0.00000000000E+00 0.  1.
         -4    1    1    2    0  502 -0.50719802227E+00 -0.27894674719E+02  0.20616908039E+03  0.20804821517E+03  0.00000000000E+00 0.  1.
<scales pt_clust_5="13000.00000" pt_clust_6="13000.00000" pt_clust_7="13000.00000" pt_clust_8="13000.00000" pt_clust_9="62.09337" pt_clust_10="27.89929"></scales>
<clustering>
<clus scale="   27.899">  1 10  2 -1</clus>
<clus scale="   62.093">  2  9  1 -1</clus>
<clus scale="   90.615">  7  8 -1 -1</clus>
<clus scale="   91.315">  2  7  1 -1</clus>
<clus scale="   91.562">  5  6 -1 -1</clus>
<clus scale="   27.899">  1  5  2 -1</clus>
</clustering>
</event>
<event>
10    2  0.3544405E-006  0.1314590E+03  0.7546771E-02  0.1225757E+00
          1   -1    0    0  503    0 -0.00000000000E+00  0.00000000000E+00  0.10463273038E+03  0.10463273038E+03  0.00000000000E+00 0. -1.
         21   -1    0    0  501  502  0.00000000000E+00 -0.00000000000E+00 -0.44762014289E+03  0.44762014289E+03  0.00000000000E+00 0. -1.
         23    2    1    2    0    0 -0.93179060708E+02 -0.58404726320E+02 -0.67587961070E+02  0.15692541702E+03  0.89241271924E+02 0.  0.
         23    2    1    2    0    0  0.91128635660E+02  0.30334792161E+02 -0.14602737949E+03  0.19706216033E+03  0.91021270141E+02 0.  0.
        -13    1    4    4    0    0  0.63133228222E+02  0.15015651254E+02 -0.15138037120E+03  0.16470364621E+03  0.00000000000E+00 0.  1.
         13    1    4    4    0    0  0.27995407437E+02  0.15319140907E+02  0.53529917103E+01  0.32358514119E+02  0.00000000000E+00 0. -1.
        -13    1    3    3    0    0 -0.18502214164E+02 -0.27112283009E+02 -0.68493234545E+02  0.75952162559E+02  0.00000000000E+00 0.  1.
         13    1    3    3    0    0 -0.74676846544E+02 -0.31292443310E+02  0.90527347541E+00  0.80973254461E+02  0.00000000000E+00 0. -1.
         21    1    1    2  503  502  0.23114304021E+02  0.26707865221E+02  0.24478082024E+02  0.42973917841E+02  0.00000000000E+00 0.  1.
          1    1    1    2  501    0 -0.21063878973E+02  0.13620689369E+01 -0.15385015397E+03  0.15529137808E+03  0.00000000000E+00 0. -1.
<scales pt_clust_5="13000.00000" pt_clust_6="13000.00000" pt_clust_7="13000.00000" pt_clust_8="13000.00000" pt_clust_9="34.92265" pt_clust_10="21.10787"></scales>
<clustering>
<clus scale="   21.108">  2 10  1 -1</clus>
<clus scale="   34.923">  1  9  2 -1</clus>
<clus scale="   89.241">  7  8 -1 -1</clus>
<clus scale="   91.021">  5  6 -1 -1</clus>
<clus scale="  130.233">  1  7  2 -1</clus>
<clus scale="   21.108">  2  5  1 -1</clus>
</clustering>
</event>
<event>
10    2  0.3544405E-006  0.9640406E+02  0.7546771E-02  0.1288258E+00
          3   -1    0    0  503    0 -0.00000000000E+00  0.00000000000E+00  0.44304532643E+03  0.44304532643E+03  0.00000000000E+00 0. -1.
         21   -1    0    0  501  502  0.00000000000E+00 -0.00000000000E+00 -0.73348611936E+02  0.73348611936E+02  0.00000000000E+00 0. -1.
         23    2    1    2    0    0 -0.78888947292E+01  0.23958592933E+01  0.12750596059E+03  0.15694618357E+03  0.91139232773E+02 0.  0.
         23    2    1    2    0    0  0.53922417893E+02 -0.23871764753E+02  0.12618076732E+03  0.16667225063E+03  0.91545424707E+02 0.  0.
        -11    1    4    4    0    0  0.23585824688E+02  0.34373330349E+02  0.62993912253E+02  0.75538400476E+02  0.00000000000E+00 0. -1.
         11    1    4    4    0    0  0.30336593205E+02 -0.58245095102E+02  0.63186855070E+02  0.91133850157E+02  0.00000000000E+00 0.  1.
        -13    1    3    3    0    0 -0.44378873243E+02  0.48922915340E+01  0.10475363779E+03  0.11387160988E+03  0.00000000000E+00 0.  1.
         13    1    3    3    0    0  0.36489978514E+02 -0.24964322407E+01  0.22752322797E+02  0.43074573689E+02  0.00000000000E+00 0. -1.
         21    1    1    2  503  502  0.81916006641E+01  0.24540826972E+02  0.13329269824E+03  0.13578032963E+03  0.00000000000E+00 0. -1.
          3    1    1    2  501    0 -0.54225123828E+02 -0.30649215122E+01 -0.17282711657E+02  0.56995174534E+02  0.00000000000E+00 0. -1.
<scales pt_clust_5="13000.00000" pt_clust_6="13000.00000" pt_clust_7="13000.00000" pt_clust_8="13000.00000" pt_clust_9="25.87189" pt_clust_10="53.71844"></scales>
<clustering>
<clus scale="   25.872">  1  9  2 -1</clus>
<clus scale="   53.718">  2 10  1 -1</clus>
<clus scale="   91.139">  7  8 -1 -1</clus>
<clus scale="   91.545">  5  6 -1 -1</clus>
<clus scale="   96.018">  1  7  2 -1</clus>
<clus scale="   53.718">  2  5  1 -1</clus>
</clustering>
</event>
<event>
10    2  0.3544405E-006  0.1865385E+03  0.7546771E-02  0.1162375E+00
         21   -1    0    0  503  502  0.00000000000E+00  0.00000000000E+00  0.39245491848E+03  0.39245491848E+03  0.00000000000E+00 0. -1.
         -1   -1    0    0    0  501 -0.00000000000E+00 -0.00000000000E+00 -0.23032186381E+03  0.23032186381E+03  0.00000000000E+00 0.  1.
         23    2    1    2    0    0  0.97372640795E+02  0.11693339107E+03 -0.50068395700E+02  0.18605619721E+03  0.94631998547E+02 0.  0.
         23    2    1    2    0    0 -0.13566855874E+03 -0.91019262414E+02  0.78605954779E+02  0.20741491925E+03  0.10075509238E+03 0.  0.
        -13    1    3    3    0    0 -0.18351422266E+02  0.26527331745E+02 -0.11236139097E+02  0.34157354267E+02  0.00000000000E+00 0. -1.
         13    1    3    3    0    0  0.11572406306E+03  0.90406059324E+02 -0.38832256603E+02  0.15189884294E+03  0.00000000000E+00 0.  1.
        -13    1    4    4    0    0 -0.15182005882E+03 -0.77267329436E+02  0.65682309951E+02  0.18257528940E+03  0.00000000000E+00 0. -1.
         13    1    4    4    0    0  0.16151500082E+02 -0.13751932979E+02  0.12923644828E+02  0.24839629852E+02  0.00000000000E+00 0.  1.
         21    1    1    2  503  501 -0.16650451353E+02  0.27778660834E+02 -0.32760800095E+02  0.46066924695E+02  0.00000000000E+00 0.  1.
         -1    1    1    2    0  502  0.54946369295E+02 -0.53692789489E+02  0.16635629568E+03  0.18323874114E+03  0.00000000000E+00 0.  1.
<scales pt_clust_5="13000.00000" pt_clust_6="13000.00000" pt_clust_7="13000.00000" pt_clust_8="13000.00000" pt_clust_9="32.38659" pt_clust_10="75.44048"></scales>
<clustering>
<clus scale="   32.387">  2  9  1 -1</clus>
<clus scale="   75.440">  1 10  2 -1</clus>
<clus scale="   94.632">  5  6 -1 -1</clus>
<clus scale="  100.755">  7  8 -1 -1</clus>
<clus scale="  183.304">  2  5  1 -1</clus>
<clus scale="   75.440">  1  5  2 -1</clus>
</clustering>
</event>
<event>
10    2  0.3544405E-006  0.9576462E+02  0.7546771E-02  0.1290201E+00
         -4   -1    0    0    0  501 -0.00000000000E+00  0.00000000000E+00  0.20282153469E+03  0.20282153469E+03  0.00000000000E+00 0. -1.
         21   -1    0    0  503  502  0.00000000000E+00 -0.00000000000E+00 -0.36617152304E+03  0.36617152304E+03  0.00000000000E+00 0. -1.
         23    2    1    2    0    0  0.30587818056E+01  0.17785059544E+02  0.11649677635E+03  0.14922432415E+03  0.91491723835E+02 0.  0.
         23    2    1    2    0    0  0.14884596788E+02  0.35482672090E+01 -0.11508397014E+03  0.14696692411E+03  0.90115565675E+02 0.  0.
        -11    1    3    3    0    0  0.34233450621E+02  0.41479293786E+02  0.73411548525E+02  0.91003936241E+02  0.00000000000E+00 0. -1.
         11    1    3    3    0    0 -0.31174668816E+02 -0.23694234242E+02  0.43085227820E+02  0.58220387910E+02  0.00000000000E+00 0.  1.
        -13    1    4    4    0    0  0.48912493978E+02  0.30319038479E+01 -0.35806838554E+02  0.60693938704E+02  0.00000000000E+00 0. -1.
         13    1    4    4    0    0 -0.34027897190E+02  0.51636336114E+00 -0.79277131584E+02  0.86272985403E+02  0.00000000000E+00 0.  1.
         21    1    1    2  503  501  0.20797614321E+02  0.11456372329E+02  0.48276678304E+02  0.53799878219E+02  0.00000000000E+00 0.  1.
         -4    1    1    2    0  502 -0.38740992915E+02 -0.32789699083E+02 -0.21303947285E+03  0.21900193125E+03  0.00000000000E+00 0. -1.
<scales pt_clust_5="13000.00000" pt_clust_6="13000.00000" pt_clust_7="13000.00000" pt_clust_8="13000.00000" pt_clust_9="23.74425" pt_clust_10="50.29750"></scales>
<clustering>
<clus scale="   23.744">  1  9  2 -1</clus>
<clus scale="   50.298">  2 10  1 -1</clus>
<clus scale="   90.116">  7  8 -1 -1</clus>
<clus scale="   91.492">  5  6 -1 -1</clus>
<clus scale="   94.451">  2  7  1 -1</clus>
<clus scale="   50.298">  2  5  1 -1</clus>
</clustering>
</event>
<event>
10    2  0.3544405E-006  0.1602368E+03  0.7546771E-02  0.1189233E+00
          1   -1    0    0  503    0 -0.00000000000E+00  0.00000000000E+00  0.94282290830E+03  0.94282290830E+03  0.00000000000E+00 0. -1.
         21   -1    0    0  501  502  0.00000000000E+00 -0.00000000000E+00 -0.11981770352E+03  0.11981770352E+03  0.00000000000E+00 0. -1.
         23    2    1    2    0    0  0.92334780420E+02  0.67573584635E+02  0.40111807041E+03  0.43032033768E+03  0.10577327449E+03 0.  0.
         23    2    1    2    0    0 -0.15332620475E+03  0.64659693009E+02  0.23313805066E+03  0.30110006028E+03  0.92833693620E+02 0.  0.
        -11    1    4    4    0    0 -0.75831903826E+02  0.72922909152E+02  0.91464718204E+02  0.13940596470E+03  0.00000000000E+00 0. -1.
         11    1    4    4    0    0 -0.77494300925E+02 -0.82632161430E+01  0.14167333245E+03  0.16169409558E+03  0.00000000000E+00 0.  1.
        -13    1    3    3    0    0  0.93673401849E+02  0.57381098315E+01  0.23341332973E+03  0.25157387506E+03  0.00000000000E+00 0.  1.
         13    1    3    3    0    0 -0.13386214287E+01  0.61835474803E+02  0.16770474068E+03  0.17874646262E+03  0.00000000000E+00 0. -1.
         21    1    1    2  503  502  0.17227392648E+02  0.20805928300E+02  0.16863019421E+03  0.17078001086E+03  0.00000000000E+00 0. -1.
          1    1    1    2  501    0  0.43764031683E+02 -0.15303920594E+03  0.20118889513E+02  0.16044020301E+03  0.00000000000E+00 0. -1.
<scales pt_clust_5="13000.00000" pt_clust_6="13000.00000" pt_clust_7="13000.00000" pt_clust_8="13000.00000" pt_clust_9="27.01240" pt_clust_10="157.41244"></scales>
<clustering>
<clus scale="   27.012">  1  9  2 -1</clus>
<clus scale="   92.834">  5  6 -1 -1</clus>
<clus scale="  105.773">  7  8 -1 -1</clus>
<clus scale="  157.412">  2 10  1 -1</clus>
<clus scale="  157.412">  2  5  1 -1</clus>
<clus scale="  157.412">  2  5  1 -1</clus>
</clustering>
</event>
<event>
10    2  0.3544405E-006  0.3307208E+03  0.7546771E-02  0.1071012E+00
         21   -1    0    0  501  502  0.00000000000E+00  0.00000000000E+00  0.22192298916E+03  0.22192298916E+03  0.00000000000E+00 0.  1.
          1   -1    0    0  503    0 -0.00000000000E+00 -0.00000000000E+00 -0.62480891896E+03  0.62480891896E+03  0.00000000000E+00 0. -1.
         23    2    1    2    0    0  0.29649834261E+03 -0.16978118354E+03 -0.23971412878E+03  0.42724409244E+03  0.91311190607E+02 0.  0.
         23    2    1    2    0    0 -0.25087352557E+03  0.15655868637E+03 -0.15570496403E+03  0.34477985374E+03  0.84740566505E+02 0.  0.
        -11    1    4    4    0    0 -0.47421960104E+02  0.26472263469E+02  0.52604848503E+01  0.54564601475E+02  0.00000000000E+00 0.  1.
         11    1    4    4    0    0 -0.20345156547E+03  0.13008642290E+03 -0.16096544888E+03  0.29021525227E+03  0.00000000000E+00 0. -1.
        -11    1    3    3    0    0  0.24851669472E+03 -0.14060945557E+03 -0.23690611502E+03  0.37102031465E+03  0.00000000000E+00 0.  1.
         11    1    3    3    0    0  0.47981647892E+02 -0.29171727966E+02 -0.28080137583E+01  0.56223777783E+02  0.00000000000E+00 0. -1.
         21    1    1    2  503  502 -0.22315420061E+02  0.53735150574E+01 -0.32385973732E+02  0.39695137374E+02  0.00000000000E+00 0.  1.
          1    1    1    2  501    0 -0.23309396976E+02  0.78489821129E+01  0.24919136751E+02  0.35012824565E+02  0.00000000000E+00 0. -1.
<scales pt_clust_5="13000.00000" pt_clust_6="13000.00000" pt_clust_7="13000.00000" pt_clust_8="13000.00000" pt_clust_9="22.95327" pt_clust_10="24.79140"></scales>
<clustering>
<clus scale="   22.953">  2  9  1 -1</clus>
<clus scale="   24.791">  1 10  2 -1</clus>
<clus scale="   84.741">  5  6 -1 -1</clus>
<clus scale="   91.311">  7  8 -1 -1</clus>
<clus scale="  328.967">  1  5  2 -1</clus>
<clus scale="   24.791">  1  5  2 -1</clus>
</clustering>
</event>
<event>
10    2  0.3544405E-006  0.1415227E+03  0.7546771E-02  0.1211508E+00
         21   -1    0    0  501  502  0.00000000000E+00  0.00000000000E+00  0.60367021771E+03  0.60367021771E+03  0.00000000000E+00 0. -1.
          1   -1    0    0  503    0 -0.00000000000E+00 -0.00000000000E+00 -0.15790752317E+03  0.15790752317E+03  0.00000000000E+00 0. -1.
         23    2    1    2    0    0  0.48730978639E+01 -0.80498545414E+02  0.32859894005E+01  0.12134604232E+03  0.90610713289E+02 0.  0.
         23    2    1    2    0    0  0.72667106173E+02  0.17491833121E+03  0.24274251360E+03  0.32067086310E+03  0.89604372781E+02 0.  0.
        -11    1    4    4    0    0  0.26888835187E+02  0.12489326706E+03  0.98615362441E+02  0.16138874597E+03  0.00000000000E+00 0.  1.
         11    1    4    4    0    0  0.45778270987E+02  0.50025064142E+02  0.14412715116E+03  0.15928211714E+03  0.00000000000E+00 0. -1.
        -13    1    3    3    0    0  0.36521598219E+02 -0.67871737230E+02  0.24898056700E+02  0.80995759633E+02  0.00000000000E+00 0.  1.
         13    1    3    3    0    0 -0.31648500355E+02 -0.12626808184E+02 -0.21612067299E+02  0.40350282683E+02  0.00000000000E+00 0. -1.
         21    1    1    2  503  502 -0.84661057111E+01 -0.19674806883E+02 -0.47550260865E+02  0.52151704479E+02  0.00000000000E+00 0. -1.
          1    1    1    2  501    0 -0.69074098326E+02 -0.74744978910E+02  0.24728445240E+03  0.26740913098E+03  0.00000000000E+00 0. -1.
<scales pt_clust_5="13000.00000" pt_clust_6="13000.00000" pt_clust_7="13000.00000" pt_clust_8="13000.00000" pt_clust_9="21.41899" pt_clust_10="103.65722"></scales>
<clustering>
<clus scale="   21.419">  2  9  1 -1</clus>
<clus scale="   89.604">  5  6 -1 -1</clus>
<clus scale="   90.611">  7  8 -1 -1</clus>
<clus scale="  103.657">  1 10  2 -1</clus>
<clus scale="  140.880">  1  5  2 -1</clus>
<clus scale="  103.657">  1  5  2 -1</clus>
</clustering>
</event>
<event>
10    2  0.3544405E-006  0.1039801E+03  0.7546771E-02  0.1274032E+00
         21   -1    0    0  501  502  0.00000000000E+00  0.00000000000E+00  0.23504350571E+03  0.23504350571E+03  0.00000000000E+00 0. -1.
          1   -1    0    0  503    0 -0.00000000000E+00 -0.00000000000E+00 -0.11218468033E+04  0.11218468033E+04  0.00000000000E+00 0. -1.
         23    2    1    2    0    0  0.78246014537E+02  0.24277645802E+02 -0.25763765196E+03  0.28655502612E+03  0.94998844250E+02 0.  0.
         23    2    1    2    0    0  0.11983678915E+02 -0.46241948537E+02 -0.19879720230E+03  0.22376018682E+03  0.90919564439E+02 0.  0.
        -13    1    4    4    0    0 -0.39721769707E+02 -0.19985759952E+02 -0.78629929952E+02  0.90332250464E+02  0.00000000000E+00 0. -1.
         13    1    4    4    0    0  0.51705448623E+02 -0.26256188585E+02 -0.12016727234E+03  0.13342793635E+03  0.00000000000E+00 0.  1.
        -13    1    3    3    0    0 -0.16211097612E+02  0.20757797115E+02 -0.93577598814E+02  0.97213439537E+02  0.00000000000E+00 0.  1.
         13    1    3    3    0    0  0.94457112149E+02  0.35198486866E+01 -0.16406005315E+03  0.18934158658E+03  0.00000000000E+00 0. -1.
         21    1    1    2  503  502 -0.74998674674E+02 -0.28847084637E+02 -0.63250779170E+03  0.63759161072E+03  0.00000000000E+00 0. -1.
          1    1    1    2  501    0 -0.15231018779E+02  0.50811387372E+02  0.20213934834E+03  0.20898348539E+03  0.00000000000E+00 0. -1.
<scales pt_clust_5="13000.00000" pt_clust_6="13000.00000" pt_clust_7="13000.00000" pt_clust_8="13000.00000" pt_clust_9="80.13798" pt_clust_10="53.04508"></scales>
<clustering>
<clus scale="   53.045">  1 10  2 -1</clus>
<clus scale="   80.138">  2  9  1 -1</clus>
<clus scale="   90.920">  5  6 -1 -1</clus>
<clus scale="   94.999">  7  8 -1 -1</clus>
<clus scale="  100.267">  1  5  2 -1</clus>
<clus scale="   53.045">  1  5  2 -1</clus>
</clustering>
</event>
<event>
10    2  0.3544405E-006  0.1973187E+03  0.7546771E-02  0.1152125E+00
          1   -1    0    0  503    0 -0.00000000000E+00  0.00000000000E+00  0.63974275623E+03  0.63974275623E+03  0.00000000000E+00 0. -1.
         21   -1    0    0  501  502  0.00000000000E+00 -0.00000000000E+00 -0.25671170211E+03  0.25671170211E+03  0.00000000000E+00 0. -1.
         23    2    1    2    0    0 -0.83588576584E+02 -0.10930038520E+03  0.31836593233E+03  0.35838065569E+03  0.90256319251E+02 0.  0.
         23    2    1    2    0    0  0.11673738447E+03  0.20613605636E+03  0.18305287915E+03  0.31238457422E+03  0.89196832797E+02 0.  0.
        -13    1    3    3    0    0 -0.28195189385E+02 -0.10474414632E+03  0.19688743274E+03  0.22479093857E+03  0.00000000000E+00 0.  1.
         13    1    3    3    0    0 -0.55393387199E+02 -0.45562388868E+01  0.12147849959E+03  0.13358971713E+03  0.00000000000E+00 0. -1.
        -13    1    4    4    0    0  0.31474423716E+02  0.71745538111E+01  0.62201051052E+01  0.32875572667E+02  0.00000000000E+00 0.  1.
         13    1    4    4    0    0  0.85262960753E+02  0.19896150255E+03  0.17683277404E+03  0.27950900155E+03  0.00000000000E+00 0. -1.
         21    1    1    2  503  502 -0.22858347793E+02 -0.19054455687E+02  0.39456538325E+02  0.49420590465E+02  0.00000000000E+00 0. -1.
          1    1    1    2  501    0 -0.10290460093E+02 -0.77781215469E+02 -0.15784429569E+03  0.17626863797E+03  0.00000000000E+00 0. -1.
<scales pt_clust_5="13000.00000" pt_clust_6="13000.00000" pt_clust_7="13000.00000" pt_clust_8="13000.00000" pt_clust_9="29.75863" pt_clust_10="78.79830"></scales>
<clustering>
<clus scale="   29.759">  1  9  2 -1</clus>
<clus scale="   78.798">  2 10  1 -1</clus>
<clus scale="   89.197">  7  8 -1 -1</clus>
<clus scale="   90.256">  5  6 -1 -1</clus>
<clus scale="  196.836">  2  7  1 -1</clus>
<clus scale="   78.798">  2  5  1 -1</clus>
</clustering>
</event>
<event>
10    2  0.3544405E-006  0.9881954E+02  0.7546771E-02  0.1283528E+00
          1   -1    0    0  503    0 -0.00000000000E+00  0.00000000000E+00  0.26531210093E+03  0.26531210093E+03  0.00000000000E+00 0. -1.
         21   -1    0    0  501  502  0.00000000000E+00 -0.00000000000E+00 -0.29880760057E+03  0.29880760057E+03  0.00000000000E+00 0. -1.
         23    2    1    2    0    0  0.62351772193E+02 -0.92214855670E+00  0.42530275251E+02  0.11883918334E+03  0.91789614497E+02 0.  0.
         23    2    1    2    0    0 -0.27494812407E+01  0.27755722073E+02 -0.32154003409E+02  0.99854570802E+02  0.90327823066E+02 0.  0.
        -13    1    4    4    0    0  0.19755149220E+02 -0.16609264116E+02  0.16206164382E+02  0.30475782830E+02  0.00000000000E+00 0. -1.
         13    1    4    4    0    0 -0.22504630460E+02  0.44364986189E+02 -0.48360167791E+02  0.69378787972E+02  0.00000000000E+00 0.  1.
        -13    1    3    3    0    0  0.79466220168E+02  0.18098579514E+02  0.45058933207E+02  0.93127580179E+02  0.00000000000E+00 0.  1.
         13    1    3    3    0    0 -0.17114447976E+02 -0.19020728070E+02 -0.25286579560E+01  0.25711603157E+02  0.00000000000E+00 0. -1.
         21    1    1    2  503  502 -0.28851362627E+02 -0.25039221041E+02  0.14710325808E+03  0.15198267090E+03  0.00000000000E+00 0. -1.
          1    1    1    2  501    0 -0.30750928325E+02 -0.17943524753E+01 -0.19097502956E+03  0.19344327647E+03  0.00000000000E+00 0. -1.
<scales pt_clust_5="13000.00000" pt_clust_6="13000.00000" pt_clust_7="13000.00000" pt_clust_8="13000.00000" pt_clust_9="38.76246" pt_clust_10="30.80324"></scales>
<clustering>
<clus scale="   30.803">  2 10  1 -1</clus>
<clus scale="   38.762">  1  9  2 -1</clus>
<clus scale="   90.328">  5  6 -1 -1</clus>
<clus scale="   91.790">  7  8 -1 -1</clus>
<clus scale="   97.463">  2  5  1 -1</clus>
<clus scale="   30.803">  2  5  1 -1</clus>
</clustering>
</event>
<event>
10    2  0.3544405E-006  0.1569249E+03  0.7546771E-02  0.1205534E+00
          1   -1    0    0  503    0 -0.00000000000E+00  0.00000000000E+00  0.87632024357E+03  0.87632024357E+03  0.00000000000E+00 0. -1.
         21   -1    0    0  501  502  0.00000000000E+00 -0.00000000000E+00 -0.85038444577E+02  0.85038444577E+02  0.00000000000E+00 0. -1.
         23    2    1    2    0    0  0.59140929111E+02 -0.23762735686E+02  0.20133458739E+03  0.23008513213E+03  0.91330361017E+02 0.  0.
         23    2    1    2    0    0 -0.11284539383E+03 -0.57709146959E+02  0.33989976441E+03  0.37440841782E+03  0.92657352278E+02 0.  0.
        -11    1    3    3    0    0  0.72217907592E+02 -0.41306950063E+02  0.18478314571E+03  0.20264871389E+03  0.00000000000E+00 0.  1.
         11    1    3    3    0    0 -0.13076978481E+02  0.17544214376E+02  0.16551441676E+02  0.27436418240E+02  0.00000000000E+00 0. -1.
        -13    1    4    4    0    0 -0.52813339176E+02 -0.91178885226E+01  0.46312794496E+02  0.70832616922E+02  0.00000000000E+00 0.  1.
         13    1    4    4    0    0 -0.60032054655E+02 -0.48591258437E+02  0.29358696992E+03  0.30357580089E+03  0.00000000000E+00 0. -1.
         21    1    1    2  503  502  0.45698625729E+02  0.14568646703E+03  0.24907108835E+03  0.29214605615E+03  0.00000000000E+00 0. -1.
          1    1    1    2  501    0  0.80058389917E+01 -0.64214584384E+02  0.97635883659E+00  0.64719082056E+02  0.00000000000E+00 0. -1.
<scales pt_clust_5="13000.00000" pt_clust_6="13000.00000" pt_clust_7="13000.00000" pt_clust_8="13000.00000" pt_clust_9="126.64930" pt_clust_10="64.71172"></scales>
<clustering>
<clus scale="   64.712">  2 10  1 -1</clus>
<clus scale="   91.330">  5  6 -1 -1</clus>
<clus scale="   92.657">  7  8 -1 -1</clus>
<clus scale="  117.435">  1  5  2 -1</clus>
<clus scale="  126.649">  2  9  1 -1</clus>
<clus scale="   64.712">  2  5  1 -1</clus>
</clustering>
</event>
<event>
10    2  0.3544405E-006  0.1398065E+03  0.7546771E-02  0.1217211E+00
         21   -1    0    0  501  502  0.00000000000E+00  0.00000000000E+00  0.76602059279E+03  0.76602059279E+03  0.00000000000E+00 0. -1.
          1   -1    0    0  503    0 -0.00000000000E+00 -0.00000000000E+00 -0.53389764240E+02  0.53389764240E+02  0.00000000000E+00 0. -1.
         23    2    1    2    0    0  0.64254539837E+01 -0.10898104840E+03  0.21014342016E+03  0.25874942344E+03  0.10427296736E+03 0.  0.
         23    2    1    2    0    0  0.31510206185E+01  0.89670719627E+02  0.33541413940E+03  0.35867659334E+03  0.89974923241E+02 0.  0.
        -13    1    4    4    0    0 -0.42725869748E+02  0.46764725665E+02  0.18982522046E+03  0.20011510147E+03  0.00000000000E+00 0.  1.
         13    1    4    4    0    0  0.45876890366E+02  0.42905993962E+02  0.14558891894E+03  0.15856149187E+03  0.00000000000E+00 0. -1.
        -13    1    3    3    0    0  0.48103663518E+02 -0.46031594452E+02  0.14289722087E+03  0.15764671219E+03  0.00000000000E+00 0.  1.
         13    1    3    3    0    0 -0.41678209534E+02 -0.62949453952E+02  0.67246199290E+02  0.10110271125E+03  0.00000000000E+00 0. -1.
         21    1    1    2  503  502 -0.37457858923E+02  0.30719742031E+02  0.20935791818E+02  0.52774057306E+02  0.00000000000E+00 0. -1.
          1    1    1    2  501    0  0.27881384320E+02 -0.11409413253E+02  0.14613747717E+03  0.14921028294E+03  0.00000000000E+00 0. -1.
<scales pt_clust_5="13000.00000" pt_clust_6="13000.00000" pt_clust_7="13000.00000" pt_clust_8="13000.00000" pt_clust_9="46.73053" pt_clust_10="30.12551"></scales>
<clustering>
<clus scale="   30.126">  1 10  2 -1</clus>
<clus scale="   46.731">  2  9  1 -1</clus>
<clus scale="   89.975">  5  6 -1 -1</clus>
<clus scale="  104.273">  7  8 -1 -1</clus>
<clus scale="  129.493">  1  5  2 -1</clus>
<clus scale="   30.126">  1  5  2 -1</clus>
</clustering>
</event>
<event>
10    2  0.5370559E-006  0.1564573E+03  0.7546771E-02  0.1216361E+00
         -3   -1    0    0    0  501 -0.00000000000E+00  0.00000000000E+00  0.12864519882E+03  0.12864519882E+03  0.00000000000E+00 0.  1.
         21   -1    0    0  503  502  0.00000000000E+00 -0.00000000000E+00 -0.79396081634E+03  0.79396081634E+03  0.00000000000E+00 0.  1.
         23    2    1    2    0    0 -0.96568229033E+01  0.37454515655E+02  0.69577904094E+02  0.12125916882E+03  0.91469154978E+02 0.  0.
         23    2    1    2    0    0 -0.98959038126E+02  0.50993882163E+02 -0.37464577856E+03  0.40452253878E+03  0.10433483477E+03 0.  0.
        -13    1    3    3    0    0  0.15915557851E+02  0.48247260275E+02  0.50990636413E+01  0.51059803719E+02  0.00000000000E+00 0.  1.
         13    1    3    3    0    0 -0.25572380755E+02 -0.10792744621E+02  0.64478840453E+02  0.70199365097E+02  0.00000000000E+00 0. -1.
        -13    1    4    4    0    0 -0.11834547289E+03  0.57376549687E+02 -0.33588292678E+03  0.36071465164E+03  0.00000000000E+00 0.  1.
         13    1    4    4    0    0  0.19386434766E+02 -0.63826675235E+01 -0.38762851780E+02  0.43807887141E+02  0.00000000000E+00 0. -1.
         21    1    1    2  503  501  0.96753958584E+01 -0.19662875674E+02 -0.61155343471E+01  0.22751741145E+02  0.00000000000E+00 0.  1.
         -3    1    1    2    0  502  0.98940465171E+02 -0.68785522144E+02 -0.35413220871E+03  0.37407256642E+03  0.00000000000E+00 0.  1.
<scales pt_clust_5="13000.00000" pt_clust_6="13000.00000" pt_clust_7="13000.00000" pt_clust_8="13000.00000" pt_clust_9="21.91442" pt_clust_10="116.58963"></scales>
<clustering>
<clus scale="   21.914">  1  9  2 -1</clus>
<clus scale="   91.469">  5  6 -1 -1</clus>
<clus scale="   94.066">  1  5  2 -1</clus>
<clus scale="  104.335">  7  8 -1 -1</clus>
<clus scale="  116.590">  2 10  1 -1</clus>
<clus scale="  116.590">  2  5  1 -1</clus>
</clustering>
</event>
<event>
10    2  0.3544405E-006  0.9859367E+02  0.7546771E-02  0.1283390E+00
         21   -1    0    0  501  502  0.00000000000E+00  0.00000000000E+00  0.27243741224E+02  0.27243741224E+02  0.00000000000E+00 0.  1.
          2   -1    0    0  503    0 -0.00000000000E+00 -0.00000000000E+00 -0.73037775386E+03  0.73037775386E+03  0.00000000000E+00 0. -1.
         23    2    1    2    0    0 -0.69938914627E+01 -0.13131984165E+02 -0.29234497795E+03  0.30651571661E+03  0.90911687202E+02 0.  0.
         23    2    1    2    0    0  0.71261153347E+01  0.63164992976E+02 -0.27939220117E+03  0.30054210159E+03  0.90691537057E+02 0.  0.
        -11    1    4    4    0    0  0.36353184553E+02  0.19683412196E+02 -0.20754093114E+03  0.21161812030E+03  0.00000000000E+00 0. -1.
         11    1    4    4    0    0 -0.29227069218E+02  0.43481580779E+02 -0.71851270036E+02  0.88923981287E+02  0.00000000000E+00 0.  1.
        -13    1    3    3    0    0  0.26394335459E+02  0.26001441270E+02 -0.82165723439E+02  0.90132912972E+02  0.00000000000E+00 0.  1.
         13    1    3    3    0    0 -0.33388226922E+02 -0.39133425436E+02 -0.21017925452E+03  0.21638280364E+03  0.00000000000E+00 0. -1.
         21    1    1    2  503  502  0.65307356776E+01 -0.29672904565E+02 -0.12435574283E+03  0.12801360299E+03  0.00000000000E+00 0. -1.
          2    1    1    2  501    0 -0.66629595496E+01 -0.20360104245E+02 -0.70410906762E+01  0.22550073897E+02  0.00000000000E+00 0. -1.
<scales pt_clust_5="13000.00000" pt_clust_6="13000.00000" pt_clust_7="13000.00000" pt_clust_8="13000.00000" pt_clust_9="32.13091" pt_clust_10="21.42263"></scales>
<clustering>
<clus scale="   21.423">  1 10  2 -1</clus>
<clus scale="   32.131">  2  9  1 -1</clus>
<clus scale="   90.692">  5  6 -1 -1</clus>
<clus scale="   90.912">  7  8 -1 -1</clus>
<clus scale="   98.391">  1  5  2 -1</clus>
<clus scale="   21.423">  1  5  2 -1</clus>
</clustering>
</event>
<event>
10    2  0.3544405E-006  0.1360029E+03  0.7546771E-02  0.1218954E+00
         21   -1    0    0  501  502  0.00000000000E+00  0.00000000000E+00  0.25223006536E+03  0.25223006536E+03  0.00000000000E+00 0. -1.
          1   -1    0    0  503    0 -0.00000000000E+00 -0.00000000000E+00 -0.58130472329E+03  0.58130472329E+03  0.00000000000E+00 0. -1.
         23    2    1    2    0    0 -0.62175057209E+02  0.91600324925E+02 -0.31952285342E+03  0.34997294589E+03  0.90165690432E+02 0.  0.
         23    2    1    2    0    0  0.48797005710E+02 -0.68530560062E+02 -0.15983313882E+03  0.20215097396E+03  0.90778844337E+02 0.  0.
        -11    1    4    4    0    0  0.63737812262E+02 -0.52895712042E+02 -0.16039401463E+03  0.18051787999E+03  0.00000000000E+00 0.  1.
         11    1    4    4    0    0 -0.14940806552E+02 -0.15634848020E+02  0.56087581820E+00  0.21633093970E+02  0.00000000000E+00 0. -1.
        -13    1    3    3    0    0 -0.33689953844E+02  0.96829883913E+02 -0.29402502848E+03  0.31138682821E+03  0.00000000000E+00 0. -1.
         13    1    3    3    0    0 -0.28485103365E+02 -0.52295589886E+01 -0.25497824935E+02  0.38586117676E+02  0.00000000000E+00 0.  1.
         21    1    1    2  503  502  0.38228892196E+01  0.22108492142E+02 -0.61076594979E+02  0.65067275653E+02  0.00000000000E+00 0.  1.
          1    1    1    2  501    0  0.95551622798E+01 -0.45178257005E+02  0.21135792928E+03  0.21634359316E+03  0.00000000000E+00 0. -1.
<scales pt_clust_5="13000.00000" pt_clust_6="13000.00000" pt_clust_7="13000.00000" pt_clust_8="13000.00000" pt_clust_9="22.43658" pt_clust_10="46.07743"></scales>
<clustering>
<clus scale="   22.437">  2  9  1 -1</clus>
<clus scale="   46.077">  1 10  2 -1</clus>
<clus scale="   90.166">  7  8 -1 -1</clus>
<clus scale="   90.779">  5  6 -1 -1</clus>
<clus scale="  135.594">  2  7  1 -1</clus>
<clus scale="   46.077">  1  5  2 -1</clus>
</clustering>
</event>
<event>
10    2  0.3544405E-006  0.1084075E+03  0.7546771E-02  0.1264745E+00
         21   -1    0    0  501  502  0.00000000000E+00  0.00000000000E+00  0.36427972753E+03  0.36427972753E+03  0.00000000000E+00 0.  1.
          2   -1    0    0  503    0 -0.00000000000E+00 -0.00000000000E+00 -0.33216883168E+03  0.33216883168E+03  0.00000000000E+00 0. -1.
         23    2    1    2    0    0 -0.32505556132E+02 -0.44711735827E+02 -0.17495576742E+03  0.20417278351E+03  0.89561456388E+02 0.  0.
         23    2    1    2    0    0  0.55923090914E+02  0.98117642245E+01 -0.79507015073E+02  0.13454832554E+03  0.92510667741E+02 0.  0.
        -13    1    4    4    0    0  0.72083434665E+02  0.31982953153E+02 -0.70193491528E+02  0.10557488858E+03  0.00000000000E+00 0. -1.
         13    1    4    4    0    0 -0.16160343751E+02 -0.22171188928E+02 -0.93135235452E+01  0.28973436964E+02  0.00000000000E+00 0.  1.
        -13    1    3    3    0    0 -0.26143630172E+02  0.24404978870E+02 -0.55905354120E+02  0.66366414786E+02  0.00000000000E+00 0. -1.
         13    1    3    3    0    0 -0.63619259594E+01 -0.69116714698E+02 -0.11905041330E+03  0.13780636872E+03  0.00000000000E+00 0.  1.
         21    1    1    2  503  502 -0.11032918717E+02 -0.18206978036E+02 -0.29836266554E+02  0.36652723589E+02  0.00000000000E+00 0. -1.
          2    1    1    2  501    0 -0.12384616065E+02  0.53106949639E+02  0.31640994490E+03  0.32107472658E+03  0.00000000000E+00 0. -1.
<scales pt_clust_5="13000.00000" pt_clust_6="13000.00000" pt_clust_7="13000.00000" pt_clust_8="13000.00000" pt_clust_9="21.28895" pt_clust_10="54.41321"></scales>
<clustering>
<clus scale="   21.289">  2  9  1 -1</clus>
<clus scale="   54.413">  1 10  2 -1</clus>
<clus scale="   89.561">  7  8 -1 -1</clus>
<clus scale="   92.511">  5  6 -1 -1</clus>
<clus scale="  105.902">  2  7  1 -1</clus>
<clus scale="   54.413">  1  5  2 -1</clus>
</clustering>
</event>
<event>
10    2  0.3544405E-006  0.2198458E+03  0.7546771E-02  0.1134026E+00
         -2   -1    0    0    0  501 -0.00000000000E+00  0.00000000000E+00  0.54411953518E+03  0.54411953518E+03  0.00000000000E+00 0.  1.
         21   -1    0    0  503  502  0.00000000000E+00 -0.00000000000E+00 -0.42458209923E+03  0.42458209923E+03  0.00000000000E+00 0.  1.
         23    2    1    2    0    0 -0.13805833057E+03 -0.12475263193E+03  0.20489383744E+03  0.29156101209E+03  0.91667973352E+02 0.  0.
         23    2    1    2    0    0  0.97534190044E+02  0.19802678912E+03 -0.15525075960E+03  0.28489979158E+03  0.91310270209E+02 0.  0.
        -11    1    4    4    0    0  0.67850599156E+02  0.17015043584E+03 -0.16087234592E+03  0.24379250666E+03  0.00000000000E+00 0.  1.
         11    1    4    4    0    0  0.29683590887E+02  0.27876353282E+02  0.56215863191E+01  0.41107284914E+02  0.00000000000E+00 0. -1.
        -13    1    3    3    0    0 -0.41729093716E+01 -0.30086429348E+02  0.16500461219E+01  0.30419221814E+02  0.00000000000E+00 0.  1.
         13    1    3    3    0    0 -0.13388542120E+03 -0.94666202582E+02  0.20324379132E+03  0.26114179028E+03  0.00000000000E+00 0. -1.
         21    1    1    2  503  501  0.39966009672E+02 -0.50324823917E+02  0.22574221441E+03  0.23471134868E+03  0.00000000000E+00 0. -1.
         -2    1    1    2    0  502  0.55813085408E+00 -0.22949333277E+02 -0.15584785630E+03  0.15752948207E+03  0.00000000000E+00 0.  1.
<scales pt_clust_5="13000.00000" pt_clust_6="13000.00000" pt_clust_7="13000.00000" pt_clust_8="13000.00000" pt_clust_9="64.57113" pt_clust_10="22.95612"></scales>
<clustering>
<clus scale="   22.956">  2 10  1 -1</clus>
<clus scale="   64.571">  1  9  2 -1</clus>
<clus scale="   91.310">  5  6 -1 -1</clus>
<clus scale="   91.668">  7  8 -1 -1</clus>
<clus scale="  219.697">  2  5  1 -1</clus>
<clus scale="   22.956">  2  5  1 -1</clus>
</clustering>
</event>
<event>
10    2  0.3544405E-006  0.1376138E+03  0.7546771E-02  0.1217186E+00
         -1   -1    0    0    0  501 -0.00000000000E+00  0.00000000000E+00  0.14344863491E+03  0.14344863491E+03  0.00000000000E+00 0.  1.
         21   -1    0    0  503  502  0.00000000000E+00 -0.00000000000E+00 -0.20557707917E+03  0.20557707917E+03  0.00000000000E+00 0. -1.
         23    2    1    2    0    0  0.23590804775E+02 -0.10462347462E+03  0.16828743243E+02  0.14376804371E+03  0.94252035962E+02 0.  0.
         23    2    1    2    0    0 -0.16203549809E+02  0.82617612187E+02 -0.73810341376E+02  0.14470002803E+03  0.91661915465E+02 0.  0.
        -13    1    3    3    0    0  0.40376015699E+02 -0.74858788078E+01  0.18818624101E+02  0.45170805154E+02  0.00000000000E+00 0.  1.
         13    1    3    3    0    0 -0.16785210923E+02 -0.97137595812E+02 -0.19898808584E+01  0.98597238561E+02  0.00000000000E+00 0. -1.
        -13    1    4    4    0    0  0.30223310947E+02  0.12460370828E+01 -0.23890573886E+02  0.38545565939E+02  0.00000000000E+00 0.  1.
         13    1    4    4    0    0 -0.46426860755E+02  0.81371575104E+02 -0.49919767490E+02  0.10615446209E+03  0.00000000000E+00 0. -1.
         21    1    1    2  503  501  0.21294389396E+02 -0.39184160376E+01 -0.10086035707E+01  0.21675384314E+02  0.00000000000E+00 0. -1.
         -1    1    1    2    0  502 -0.28681644363E+02  0.25924278471E+02 -0.41382425540E+01  0.38882258024E+02  0.00000000000E+00 0.  1.
<scales pt_clust_5="13000.00000" pt_clust_6="13000.00000" pt_clust_7="13000.00000" pt_clust_8="13000.00000" pt_clust_9="21.65191" pt_clust_10="36.28725"></scales>
<clustering>
<clus scale="   21.652">  1  9  2 -1</clus>
<clus scale="   36.287">  2 10  1 -1</clus>
<clus scale="   91.662">  7  8 -1 -1</clus>
<clus scale="   94.252">  5  6 -1 -1</clus>
<clus scale="  135.853">  2  7  1 -1</clus>
<clus scale="   36.287">  2  5  1 -1</clus>
</clustering>
</event>
<event>
10    2  0.3544405E-006  0.1238129E+03  0.7546771E-02  0.1237061E+00
          2   -1    0    0  503    0 -0.00000000000E+00  0.00000000000E+00  0.85171798754E+03  0.85171798754E+03  0.00000000000E+00 0. -1.
         21   -1    0    0  501  502  0.00000000000E+00 -0.00000000000E+00 -0.38052401254E+02  0.38052401254E+02  0.00000000000E+00 0. -1.
         23    2    1    2    0    0 -0.77937274629E+02 -0.13774342037E+01  0.32670084365E+03  0.34741361748E+03  0.88806893140E+02 0.  0.
         23    2    1    2    0    0  0.85275408529E+02  0.36782417335E+02  0.24526114269E+03  0.27702384290E+03  0.89243150408E+02 0.  0.
        -11    1    4    4    0    0  0.48763116275E+02  0.17553052766E+02  0.22529854661E+03  0.23118258212E+03  0.00000000000E+00 0.  1.
         11    1    4    4    0    0  0.36512292254E+02  0.19229364570E+02  0.19962596078E+02  0.45841260776E+02  0.00000000000E+00 0. -1.
        -13    1    3    3    0    0 -0.26227166052E+02 -0.43777140232E+02  0.13006274164E+03  0.13971620882E+03  0.00000000000E+00 0. -1.
         13    1    3    3    0    0 -0.51710108576E+02  0.42399706028E+02  0.19663810201E+03  0.20769740866E+03  0.00000000000E+00 0.  1.
         21    1    1    2  503  502 -0.27415698776E+02 -0.34784373843E+01  0.22018201314E+03  0.22190952881E+03  0.00000000000E+00 0.  1.
          2    1    1    2  501    0  0.20077564876E+02 -0.31926545747E+02  0.21521586806E+02  0.43423399606E+02  0.00000000000E+00 0. -1.
<scales pt_clust_5="13000.00000" pt_clust_6="13000.00000" pt_clust_7="13000.00000" pt_clust_8="13000.00000" pt_clust_9="27.63549" pt_clust_10="37.13746"></scales>
<clustering>
<clus scale="   27.635">  1  9  2 -1</clus>
<clus scale="   37.137">  2 10  1 -1</clus>
<clus scale="   88.807">  7  8 -1 -1</clus>
<clus scale="   89.243">  5  6 -1 -1</clus>
<clus scale="  123.499">  1  7  2 -1</clus>
<clus scale="   37.137">  2  5  1 -1</clus>
</clustering>
</event>
<event>
10    2  0.3544405E-006  0.1090992E+03  0.7546771E-02  0.1263878E+00
          1   -1    0    0  503    0 -0.00000000000E+00  0.00000000000E+00  0.82267751744E+02  0.82267751744E+02  0.00000000000E+00 0. -1.
         21   -1    0    0  501  502  0.00000000000E+00 -0.00000000000E+00 -0.35471555802E+03  0.35471555802E+03  0.00000000000E+00 0.  1.
         23    2    1    2    0    0 -0.44158775927E+02  0.23428627189E+02  0.60301962484E+01  0.10596547035E+03  0.93238509086E+02 0.  0.
         23    2    1    2    0    0  0.55507749098E+02 -0.43390838366E+02 -0.21060689738E+03  0.23932599605E+03  0.89206457702E+02 0.  0.
        -11    1    4    4    0    0  0.25791380121E+02  0.21947345615E+02 -0.31017108512E+02  0.45923221669E+02  0.00000000000E+00 0. -1.
         11    1    4    4    0    0  0.29716368977E+02 -0.65338183981E+02 -0.17958978887E+03  0.19340277438E+03  0.00000000000E+00 0.  1.
        -13    1    3    3    0    0 -0.60460256180E+02 -0.16435504034E+02  0.16657916153E+01  0.62676496647E+02  0.00000000000E+00 0.  1.
         13    1    3    3    0    0  0.16301480253E+02  0.39864131223E+02  0.43644046331E+01  0.43288973704E+02  0.00000000000E+00 0. -1.
         21    1    1    2  503  502  0.14335408056E+02  0.23856840436E+02 -0.12461823865E+02  0.30495078517E+02  0.00000000000E+00 0. -1.
          1    1    1    2  501    0 -0.25684381228E+02 -0.38946292583E+01 -0.55409281280E+02  0.61196764850E+02  0.00000000000E+00 0. -1.
<scales pt_clust_5="13000.00000" pt_clust_6="13000.00000" pt_clust_7="13000.00000" pt_clust_8="13000.00000" pt_clust_9="26.67154" pt_clust_10="25.97798"></scales>
<clustering>
<clus scale="   25.978">  2 10  1 -1</clus>
<clus scale="   26.672">  1  9  2 -1</clus>
<clus scale="   89.206">  5  6 -1 -1</clus>
<clus scale="   93.239">  7  8 -1 -1</clus>
<clus scale="  105.674">  2  5  1 -1</clus>
<clus scale="   25.978">  2  5  1 -1</clus>
</clustering>
</event>
<event>
10    2  0.3544405E-006  0.1203572E+03  0.7546771E-02  0.1243912E+00
         21   -1    0    0  503  502  0.00000000000E+00  0.00000000000E+00  0.16949683600E+03  0.16949683600E+03  0.00000000000E+00 0. -1.
         -3   -1    0    0    0  501 -0.00000000000E+00 -0.00000000000E+00 -0.20694493955E+03  0.20694493955E+03  0.00000000000E+00 0.  1.
         23    2    1    2    0    0  0.11240099685E+02  0.10936587793E+03 -0.27626572640E+02  0.14328311545E+03  0.87633261725E+02 0.  0.
         23    2    1    2    0    0 -0.53353470279E+02 -0.32788241657E+02  0.16586359066E+02  0.11258192268E+03  0.92075623407E+02 0.  0.
        -11    1    3    3    0    0  0.31766985365E+02  0.24872763134E+02 -0.38361388004E+02  0.55672181516E+02  0.00000000000E+00 0.  1.
         11    1    3    3    0    0 -0.20526885680E+02  0.84493114798E+02  0.10734815364E+02  0.87610933935E+02  0.00000000000E+00 0. -1.
        -13    1    4    4    0    0 -0.30297116649E+01 -0.50921101778E+02 -0.11315648284E+02  0.52251140228E+02  0.00000000000E+00 0.  1.
         13    1    4    4    0    0 -0.50323758614E+02  0.18132860121E+02  0.27902007350E+02  0.60330782453E+02  0.00000000000E+00 0. -1.
         21    1    1    2  503  501  0.60544552737E+02 -0.47701894760E+02 -0.35900562714E+02  0.85029195181E+02  0.00000000000E+00 0.  1.
         -3    1    1    2    0  502 -0.18431182143E+02 -0.28875741515E+02  0.94926727401E+01  0.35547542236E+02  0.00000000000E+00 0.  1.
<scales pt_clust_5="13000.00000" pt_clust_6="13000.00000" pt_clust_7="13000.00000" pt_clust_8="13000.00000" pt_clust_9="77.85441" pt_clust_10="34.25663"></scales>
<clustering>
<clus scale="   34.257">  1 10  2 -1</clus>
<clus scale="   77.854">  2  9  1 -1</clus>
<clus scale="   87.633">  5  6 -1 -1</clus>
<clus scale="   92.076">  7  8 -1 -1</clus>
<clus scale="  116.994">  2  5  1 -1</clus>
<clus scale="   34.257">  1  5  2 -1</clus>
</clustering>
</event>
<event>
10    2  0.3544405E-006  0.1334405E+03  0.7546771E-02  0.1222495E+00
         21   -1    0    0  501  502  0.00000000000E+00  0.00000000000E+00  0.12666801552E+03  0.12666801552E+03  0.00000000000E+00 0.  1.
          3   -1    0    0  503    0 -0.00000000000E+00 -0.00000000000E+00 -0.41021271660E+03  0.41021271660E+03  0.00000000000E+00 0. -1.
         23    2    1    2    0    0  0.80335113880E+02  0.40709178809E+02 -0.21911098024E+03  0.25365976659E+03  0.90679037064E+02 0.  0.
         23    2    1    2    0    0 -0.83780121634E+02 -0.14459416284E+02 -0.41558118887E+01  0.12454113516E+03  0.90912265807E+02 0.  0.
        -11    1    4    4    0    0 -0.51552922038E+02 -0.44064066131E+02 -0.29515681158E+02  0.73962971336E+02  0.00000000000E+00 0. -1.
         11    1    4    4    0    0 -0.32227199596E+02  0.29604649847E+02  0.25359869269E+02  0.50578163823E+02  0.00000000000E+00 0.  1.
        -13    1    3    3    0    0  0.82542812262E+02  0.24405786158E+00 -0.17654048756E+03  0.19488437384E+03  0.00000000000E+00 0. -1.
         13    1    3    3    0    0 -0.22076983818E+01  0.40465120948E+02 -0.42570492681E+02  0.58775392747E+02  0.00000000000E+00 0.  1.
         21    1    1    2  503  502  0.23453865971E+02 -0.83124343651E+01 -0.10423264139E+03  0.10716167190E+03  0.00000000000E+00 0. -1.
          3    1    1    2  501    0 -0.20008858217E+02 -0.17937328160E+02  0.43954732431E+02  0.51518158467E+02  0.00000000000E+00 0. -1.
<scales pt_clust_5="13000.00000" pt_clust_6="13000.00000" pt_clust_7="13000.00000" pt_clust_8="13000.00000" pt_clust_9="24.88334" pt_clust_10="26.72536"></scales>
<clustering>
<clus scale="   24.883">  2  9  1 -1</clus>
<clus scale="   26.725">  1 10  2 -1</clus>
<clus scale="   90.679">  7  8 -1 -1</clus>
<clus scale="   90.912">  5  6 -1 -1</clus>
<clus scale="  133.282">  2  7  1 -1</clus>
<clus scale="   26.725">  1  5  2 -1</clus>
</clustering>
</event>
<event>
10    2  0.3544405E-006  0.1024422E+03  0.7546771E-02  0.1275775E+00
         21   -1    0    0  501  502  0.00000000000E+00  0.00000000000E+00  0.91816894830E+02  0.91816894830E+02  0.00000000000E+00 0.  1.
          3   -1    0    0  503    0 -0.00000000000E+00 -0.00000000000E+00 -0.36282690791E+03  0.36282690791E+03  0.00000000000E+00 0. -1.
         23    2    1    2    0    0  0.32441573393E+02  0.17776632348E+01 -0.17484034497E+03  0.19983985409E+03  0.91165812013E+02 0.  0.
         23    2    1    2    0    0 -0.48329871138E+02 -0.41712160538E+01 -0.16973022551E+02  0.10566228079E+03  0.92321495864E+02 0.  0.
        -11    1    4    4    0    0 -0.29084946198E+02  0.31952160539E+02 -0.39845236227E+02  0.58775143627E+02  0.00000000000E+00 0. -1.
         11    1    4    4    0    0 -0.19244924941E+02 -0.36123376593E+02  0.22872213676E+02  0.46887137158E+02  0.00000000000E+00 0.  1.
        -11    1    3    3    0    0 -0.75720378533E+01  0.40369194567E+02 -0.69449415965E+02  0.80685990142E+02  0.00000000000E+00 0.  1.
         11    1    3    3    0    0  0.40013611247E+02 -0.38591531333E+02 -0.10539092901E+03  0.11915386394E+03  0.00000000000E+00 0. -1.
         21    1    1    2  503  502  0.10296952992E+02  0.27477415599E+02 -0.10719389256E+03  0.11113760035E+03  0.00000000000E+00 0.  1.
          3    1    1    2  501    0  0.55913447533E+01 -0.25083862780E+02  0.27997247006E+02  0.38004067520E+02  0.00000000000E+00 0. -1.
<scales pt_clust_5="13000.00000" pt_clust_6="13000.00000" pt_clust_7="13000.00000" pt_clust_8="13000.00000" pt_clust_9="28.62558" pt_clust_10="25.69948"></scales>
<clustering>
<clus scale="   25.699">  1 10  2 -1</clus>
<clus scale="   28.626">  2  9  1 -1</clus>
<clus scale="   91.166">  7  8 -1 -1</clus>
<clus scale="   92.321">  5  6 -1 -1</clus>
<clus scale="  101.402">  2  7  1 -1</clus>
<clus scale="   25.699">  1  5  2 -1</clus>
</clustering>
</event>
<event>
10    2  0.3544405E-006  0.1402114E+03  0.7546771E-02  0.1213086E+00
         21   -1    0    0  503  502  0.00000000000E+00  0.00000000000E+00  0.14272932198E+03  0.14272932198E+03  0.00000000000E+00 0. -1.
         -1   -1    0    0    0  501 -0.00000000000E+00 -0.00000000000E+00 -0.11066626189E+04  0.11066626189E+04  0.00000000000E+00 0.  1.
         23    2    1    2    0    0  0.86690695370E+02 -0.24148818614E+02 -0.40973737285E+03  0.42929714808E+03  0.91175021454E+02 0.  0.
         23    2    1    2    0    0 -0.64489842587E+02 -0.12896717429E+03  0.40356742068E+02  0.17540630740E+03  0.91363199396E+02 0.  0.
        -11    1    4    4    0    0  0.97732435138E+01 -0.76056803482E+02  0.26338373224E+01  0.76727379362E+02  0.00000000000E+00 0.  1.
         11    1    4    4    0    0 -0.74263086101E+02 -0.52910370811E+02  0.37722904745E+02  0.98678928039E+02  0.00000000000E+00 0. -1.
        -13    1    3    3    0    0  0.46810963356E+02  0.23710916672E+02 -0.28587206177E+03  0.29064808542E+03  0.00000000000E+00 0.  1.
         13    1    3    3    0    0  0.39879732014E+02 -0.47859735287E+02 -0.12386531109E+03  0.13864906266E+03  0.00000000000E+00 0. -1.
         21    1    1    2  503  501 -0.27329988234E+01  0.10374173684E+03 -0.58061316864E+03  0.58981477503E+03  0.00000000000E+00 0.  1.
         -1    1    1    2    0  502 -0.19467853959E+02  0.49374256071E+02 -0.13939497523E+02  0.54873710386E+02  0.00000000000E+00 0.  1.
<scales pt_clust_5="13000.00000" pt_clust_6="13000.00000" pt_clust_7="13000.00000" pt_clust_8="13000.00000" pt_clust_9="105.65657" pt_clust_10="53.07367"></scales>
<clustering>
<clus scale="   53.074">  1 10  2 -1</clus>
<clus scale="   91.175">  7  8 -1 -1</clus>
<clus scale="   91.363">  5  6 -1 -1</clus>
<clus scale="  105.657">  2  9  1 -1</clus>
<clus scale="  140.089">  2  7  1 -1</clus>
<clus scale="   53.074">  1  5  2 -1</clus>
</clustering>
</event>
<event>
10    2  0.3544405E-006  0.1503132E+03  0.7546771E-02  0.1200525E+00
         -2   -1    0    0    0  501 -0.00000000000E+00  0.00000000000E+00  0.86790973670E+03  0.86790973670E+03  0.00000000000E+00 0.  1.
         21   -1    0    0  503  502  0.00000000000E+00 -0.00000000000E+00 -0.33212711342E+03  0.33212711342E+03  0.00000000000E+00 0.  1.
         23    2    1    2    0    0  0.13890615531E+03 -0.92496474996E+01  0.72871330933E+03  0.74748984275E+03  0.91309922011E+02 0.  0.
         23    2    1    2    0    0 -0.73075090655E+02  0.95681458255E+01  0.35517807171E+02  0.12431627261E+03  0.93602899101E+02 0.  0.
        -11    1    4    4    0    0 -0.33911072564E+02  0.39908012602E+02  0.50303457903E+02  0.72615757169E+02  0.00000000000E+00 0. -1.
         11    1    4    4    0    0 -0.39164018091E+02 -0.30339866777E+02 -0.14785650732E+02  0.51700515439E+02  0.00000000000E+00 0.  1.
        -13    1    3    3    0    0  0.11043304108E+03 -0.43015044972E+02  0.59442592568E+03  0.60612534329E+03  0.00000000000E+00 0.  1.
         13    1    3    3    0    0  0.28473114229E+02  0.33765397472E+02  0.13428738365E+03  0.14136449946E+03  0.00000000000E+00 0. -1.
         21    1    1    2  503  501 -0.11101487653E+02  0.26389572731E+02  0.42100377952E+02  0.50912615340E+02  0.00000000000E+00 0. -1.
         -2    1    1    2    0  502 -0.54729576998E+02 -0.26708071057E+02 -0.27054887118E+03  0.27731811941E+03  0.00000000000E+00 0.  1.
<scales pt_clust_5="13000.00000" pt_clust_6="13000.00000" pt_clust_7="13000.00000" pt_clust_8="13000.00000" pt_clust_9="28.62958" pt_clust_10="60.89220"></scales>
<clustering>
<clus scale="   28.630">  1  9  2 -1</clus>
<clus scale="   60.892">  2 10  1 -1</clus>
<clus scale="   91.310">  7  8 -1 -1</clus>
<clus scale="   93.603">  5  6 -1 -1</clus>
<clus scale="  148.896">  1  7  2 -1</clus>
<clus scale="   60.892">  2  5  1 -1</clus>
</clustering>
</event>
<event>
10    2  0.3544405E-006  0.1036996E+03  0.7546771E-02  0.1273287E+00
         21   -1    0    0  501  502  0.00000000000E+00  0.00000000000E+00  0.14759773701E+03  0.14759773701E+03  0.00000000000E+00 0. -1.
          1   -1    0    0  503    0 -0.00000000000E+00 -0.00000000000E+00 -0.55965506052E+03  0.55965506052E+03  0.00000000000E+00 0. -1.
         23    2    1    2    0    0 -0.20894518200E+02 -0.39186307734E+02 -0.40698712369E+03  0.41967590887E+03  0.92288688564E+02 0.  0.
         23    2    1    2    0    0 -0.20338645078E+02  0.28462824663E+02 -0.21694451401E+02  0.99863314511E+02  0.90984831110E+02 0.  0.
        -11    1    4    4    0    0  0.24364330258E+02  0.36126694899E+02  0.97777971634E+01  0.44658302595E+02  0.00000000000E+00 0.  1.
         11    1    4    4    0    0 -0.44702975337E+02 -0.76638702360E+01 -0.31472248565E+02  0.55205011916E+02  0.00000000000E+00 0. -1.
        -13    1    3    3    0    0 -0.38722207957E+02  0.14658437432E+02 -0.11488966458E+03  0.12212253766E+03  0.00000000000E+00 0. -1.
         13    1    3    3    0    0  0.17827689757E+02 -0.53844745166E+02 -0.29209745911E+03  0.29755337121E+03  0.00000000000E+00 0.  1.
         21    1    1    2  503  502  0.33080498771E+02 -0.14437030837E+02 -0.79877188495E+02  0.87653365595E+02  0.00000000000E+00 0. -1.
          1    1    1    2  501    0  0.81526645074E+01  0.25160513907E+02  0.96501440072E+02  0.10006020855E+03  0.00000000000E+00 0. -1.
<scales pt_clust_5="13000.00000" pt_clust_6="13000.00000" pt_clust_7="13000.00000" pt_clust_8="13000.00000" pt_clust_9="35.94919" pt_clust_10="26.44839"></scales>
<clustering>
<clus scale="   26.448">  1 10  2 -1</clus>
<clus scale="   35.949">  2  9  1 -1</clus>
<clus scale="   90.985">  5  6 -1 -1</clus>
<clus scale="   92.289">  7  8 -1 -1</clus>
<clus scale="  102.541">  1  5  2 -1</clus>
<clus scale="   26.448">  1  5  2 -1</clus>
</clustering>
</event>
<event>
10    2  0.3544405E-006  0.9153754E+02  0.7546771E-02  0.1300872E+00
         21   -1    0    0  503  502  0.00000000000E+00  0.00000000000E+00  0.19002220722E+03  0.19002220722E+03  0.00000000000E+00 0.  1.
         -4   -1    0    0    0  501 -0.00000000000E+00 -0.00000000000E+00 -0.28683402790E+03  0.28683402790E+03  0.00000000000E+00 0.  1.
         23    2    1    2    0    0 -0.16086381065E+02 -0.11209911725E+02 -0.17201013261E+03  0.19426130054E+03  0.88122263876E+02 0.  0.
         23    2    1    2    0    0 -0.62968938112E+02 -0.10710498260E+02  0.10135684905E+03  0.15042636935E+03  0.90967465657E+02 0.  0.
        -11    1    3    3    0    0 -0.48008838732E+02 -0.46062349158E+01 -0.14194699343E+03  0.14991669334E+03  0.00000000000E+00 0.  1.
         11    1    3    3    0    0  0.31922457667E+02 -0.66036768096E+01 -0.30063139179E+02  0.44344607205E+02  0.00000000000E+00 0. -1.
        -11    1    4    4    0    0 -0.63832643344E+02  0.29509855683E+02  0.56818342911E+02  0.90408860351E+02  0.00000000000E+00 0. -1.
         11    1    4    4    0    0  0.86370523228E+00 -0.40220353943E+02  0.44538506138E+02  0.60017509004E+02  0.00000000000E+00 0.  1.
         21    1    1    2  503  501  0.38384329057E+01  0.25626153522E+02 -0.47314456491E+02  0.53945260260E+02  0.00000000000E+00 0. -1.
         -4    1    1    2    0  502  0.75216886271E+02 -0.37057435367E+01  0.21155919377E+02  0.78223304968E+02  0.00000000000E+00 0.  1.
<scales pt_clust_5="13000.00000" pt_clust_6="13000.00000" pt_clust_7="13000.00000" pt_clust_8="13000.00000" pt_clust_9="25.91203" pt_clust_10="75.68303"></scales>
<clustering>
<clus scale="   25.912">  2  9  1 -1</clus>
<clus scale="   75.683">  1 10  2 -1</clus>
<clus scale="   88.122">  5  6 -1 -1</clus>
<clus scale="   88.711">  2  5  1 -1</clus>
<clus scale="   90.967">  7  8 -1 -1</clus>
<clus scale="   75.683">  1  5  2 -1</clus>
</clustering>
</event>
<event>
10    2  0.3544405E-006  0.1951327E+03  0.7546771E-02  0.1154106E+00
         21   -1    0    0  501  502  0.00000000000E+00  0.00000000000E+00  0.14944179103E+03  0.14944179103E+03  0.00000000000E+00 0. -1.
          1   -1    0    0  503    0 -0.00000000000E+00 -0.00000000000E+00 -0.20760627739E+04  0.20760627739E+04  0.00000000000E+00 0. -1.
         23    2    1    2    0    0 -0.95173821271E+02  0.11207792413E+03 -0.86789070522E+03  0.88496399970E+03  0.91145418041E+02 0.  0.
         23    2    1    2    0    0  0.18111522298E+03 -0.16185625434E+03 -0.94504356082E+03  0.98018465006E+03  0.93029271203E+02 0.  0.
        -11    1    4    4    0    0  0.45005755027E+02  0.42373995581E+01 -0.17780617779E+03  0.18346255858E+03  0.00000000000E+00 0.  1.
         11    1    4    4    0    0  0.13610946795E+03 -0.16609365390E+03 -0.76723738303E+03  0.79672209148E+03  0.00000000000E+00 0. -1.
        -13    1    3    3    0    0 -0.39726360079E+02 -0.78714695360E+01 -0.22840438606E+03  0.23196703923E+03  0.00000000000E+00 0.  1.
         13    1    3    3    0    0 -0.55447461192E+02  0.11994939367E+03 -0.63948631916E+03  0.65299696047E+03  0.00000000000E+00 0. -1.
         21    1    1    2  503  502  0.34400372805E+02 -0.26451702998E+01 -0.20019668340E+03  0.20314796238E+03  0.00000000000E+00 0.  1.
          1    1    1    2  501    0 -0.12034177451E+03  0.52423500512E+02  0.86509966575E+02  0.15720795277E+03  0.00000000000E+00 0. -1.
<scales pt_clust_5="13000.00000" pt_clust_6="13000.00000" pt_clust_7="13000.00000" pt_clust_8="13000.00000" pt_clust_9="34.50192" pt_clust_10="130.64997"></scales>
<clustering>
<clus scale="   34.502">  2  9  1 -1</clus>
<clus scale="   91.145">  7  8 -1 -1</clus>
<clus scale="   93.029">  5  6 -1 -1</clus>
<clus scale="  130.650">  1 10  2 -1</clus>
<clus scale="  194.242">  2  7  1 -1</clus>
<clus scale="  130.650">  1  5  2 -1</clus>
</clustering>
</event>
<event>
10    2  0.3544405E-006  0.1535521E+03  0.7546771E-02  0.1204581E+00
         21   -1    0    0  503  502  0.00000000000E+00  0.00000000000E+00  0.12939147170E+03  0.12939147170E+03  0.00000000000E+00 0. -1.
         -2   -1    0    0    0  501 -0.00000000000E+00 -0.00000000000E+00 -0.46866477209E+03  0.46866477209E+03  0.00000000000E+00 0.  1.
         23    2    1    2    0    0  0.11083700776E+03 -0.45342014370E+02 -0.16950338811E+03  0.22668556573E+03  0.91182271170E+02 0.  0.
         23    2    1    2    0    0 -0.14621966177E+02  0.83024613939E+02 -0.41098283284E+02  0.13179129051E+03  0.92590425803E+02 0.  0.
        -11    1    4    4    0    0 -0.14266370655E+01  0.66594748117E+02 -0.69604748986E+02  0.96341667265E+02  0.00000000000E+00 0.  1.
         11    1    4    4    0    0 -0.13195329111E+02  0.16429865822E+02  0.28506465702E+02  0.35449623243E+02  0.00000000000E+00 0. -1.
        -13    1    3    3    0    0  0.10058652735E+03 -0.21386949431E+01 -0.14341551287E+03  0.17518628037E+03  0.00000000000E+00 0.  1.
         13    1    3    3    0    0  0.10250480416E+02 -0.43203319426E+02 -0.26087875238E+02  0.51499285361E+02  0.00000000000E+00 0. -1.
         21    1    1    2  503  501 -0.13834917396E+03 -0.50021301101E+02 -0.12901876146E+03  0.19567438593E+03  0.00000000000E+00 0. -1.
         -2    1    1    2    0  502  0.42134132374E+02  0.12338701532E+02  0.34713247261E+00  0.43905001621E+02  0.00000000000E+00 0.  1.
<scales pt_clust_5="13000.00000" pt_clust_6="13000.00000" pt_clust_7="13000.00000" pt_clust_8="13000.00000" pt_clust_9="123.54769" pt_clust_10="43.90363"></scales>
<clustering>
<clus scale="   43.904">  1 10  2 -1</clus>
<clus scale="   91.182">  7  8 -1 -1</clus>
<clus scale="   92.590">  5  6 -1 -1</clus>
<clus scale="  127.944">  1  5  2 -1</clus>
<clus scale="  123.548">  1  9  2 -1</clus>
<clus scale="   43.904">  1  5  2 -1</clus>
</clustering>
</event>
<event>
10    2  0.3544405E-006  0.1532087E+03  0.7546771E-02  0.1197519E+00
          1   -1    0    0  503    0 -0.00000000000E+00  0.00000000000E+00  0.10584202745E+04  0.10584202745E+04  0.00000000000E+00 0. -1.
         21   -1    0    0  501  502  0.00000000000E+00 -0.00000000000E+00 -0.69456475523E+02  0.69456475523E+02  0.00000000000E+00 0.  1.
         23    2    1    2    0    0 -0.91746862948E+02 -0.65231170396E+02  0.64479749495E+03  0.66030501123E+03  0.86984515368E+02 0.  0.
         23    2    1    2    0    0  0.99253829660E+02  0.81890550911E+02  0.27979392781E+03  0.32147523881E+03  0.92218773020E+02 0.  0.
        -11    1    4    4    0    0  0.21195420757E+02  0.31560078047E+02  0.15007102210E+02  0.40871720102E+02  0.00000000000E+00 0.  1.
         11    1    4    4    0    0  0.78058408903E+02  0.50330472865E+02  0.26478682560E+03  0.28060351871E+03  0.00000000000E+00 0. -1.
        -11    1    3    3    0    0 -0.60749596913E+02  0.43811469805E+01  0.20144019767E+03  0.21044681326E+03  0.00000000000E+00 0.  1.
         11    1    3    3    0    0 -0.30997266035E+02 -0.69612317377E+02  0.44335729728E+03  0.44985819798E+03  0.00000000000E+00 0. -1.
         21    1    1    2  503  502 -0.23171429598E+02  0.10584814219E+02  0.97299635407E+02  0.10057918518E+03  0.00000000000E+00 0.  1.
          1    1    1    2  501    0  0.15664462887E+02 -0.27244194734E+02 -0.32927259218E+02  0.45517314770E+02  0.00000000000E+00 0. -1.
<scales pt_clust_5="13000.00000" pt_clust_6="13000.00000" pt_clust_7="13000.00000" pt_clust_8="13000.00000" pt_clust_9="25.47456" pt_clust_10="31.29062"></scales>
<clustering>
<clus scale="   25.475">  1  9  2 -1</clus>
<clus scale="   31.291">  2 10  1 -1</clus>
<clus scale="   86.985">  7  8 -1 -1</clus>
<clus scale="   92.219">  5  6 -1 -1</clus>
<clus scale="  150.116">  1  7  2 -1</clus>
<clus scale="   31.291">  2  5  1 -1</clus>
</clustering>
</event>
<event>
10    2  0.3544405E-006  0.1645159E+03  0.7546771E-02  0.1184033E+00
         -1   -1    0    0    0  501 -0.00000000000E+00  0.00000000000E+00  0.13236452997E+03  0.13236452997E+03  0.00000000000E+00 0.  1.
         21   -1    0    0  503  502  0.00000000000E+00 -0.00000000000E+00 -0.50452664546E+03  0.50452664546E+03  0.00000000000E+00 0.  1.
         23    2    1    2    0    0 -0.10244335652E+03  0.83652139050E+02 -0.69373971127E+02  0.17528976572E+03  0.91768362914E+02 0.  0.
         23    2    1    2    0    0  0.12936304344E+03 -0.48669441828E+02 -0.18977714256E+03  0.25125714021E+03  0.89505726597E+02 0.  0.
        -11    1    3    3    0    0 -0.77484312973E+02  0.96987547797E+02 -0.31610480248E+02  0.12810006107E+03  0.00000000000E+00 0.  1.
         11    1    3    3    0    0 -0.24959043550E+02 -0.13335408747E+02 -0.37763490878E+02  0.47189704647E+02  0.00000000000E+00 0. -1.
        -11    1    4    4    0    0  0.83026571219E+02 -0.44467278824E+02 -0.18081601465E+03  0.20387540697E+03  0.00000000000E+00 0.  1.
         11    1    4    4    0    0  0.46336472218E+02 -0.42021630042E+01 -0.89611279147E+01  0.47381733242E+02  0.00000000000E+00 0. -1.
         21    1    1    2  503  501 -0.21552405830E+02 -0.56678102352E+01  0.44644059461E+02  0.49897117302E+02  0.00000000000E+00 0.  1.
         -1    1    1    2    0  502 -0.53672810845E+01 -0.29314886986E+02 -0.15765506126E+03  0.16044715219E+03  0.00000000000E+00 0.  1.
<scales pt_clust_5="13000.00000" pt_clust_6="13000.00000" pt_clust_7="13000.00000" pt_clust_8="13000.00000" pt_clust_9="22.28520" pt_clust_10="29.95916"></scales>
<clustering>
<clus scale="   22.285">  1  9  2 -1</clus>
<clus scale="   29.959">  2 10  1 -1</clus>
<clus scale="   89.506">  7  8 -1 -1</clus>
<clus scale="   91.768">  5  6 -1 -1</clus>
<clus scale="  163.265">  2  7  1 -1</clus>
<clus scale="   29.959">  2  5  1 -1</clus>
</clustering>
</event>
<event>
10    2  0.3544405E-006  0.1100227E+03  0.7546771E-02  0.1261111E+00
         21   -1    0    0  501  502  0.00000000000E+00  0.00000000000E+00  0.43541178843E+02  0.43541178843E+02  0.00000000000E+00 0. -1.
          1   -1    0    0  503    0 -0.00000000000E+00 -0.00000000000E+00 -0.95571716229E+03  0.95571716229E+03  0.00000000000E+00 0. -1.
         23    2    1    2    0    0 -0.58107648245E+02  0.15568530842E+02 -0.53590835143E+03  0.54661226215E+03  0.89265480832E+02 0.  0.
         23    2    1    2    0    0  0.61161533241E+02 -0.25670520573E+02 -0.29990288053E+03  0.32028714649E+03  0.90787717669E+02 0.  0.
        -11    1    4    4    0    0  0.10978665531E+02  0.23900154917E+02 -0.24326298979E+02  0.35826210013E+02  0.00000000000E+00 0. -1.
         11    1    4    4    0    0  0.50182867710E+02 -0.49570675490E+02 -0.27557658155E+03  0.28446093647E+03  0.00000000000E+00 0.  1.
        -13    1    3    3    0    0 -0.85933565466E+01  0.47797662637E+02 -0.24102024764E+03  0.24586423511E+03  0.00000000000E+00 0.  1.
         13    1    3    3    0    0 -0.49514291699E+02 -0.32229131795E+02 -0.29488810379E+03  0.30074802705E+03  0.00000000000E+00 0. -1.
         21    1    1    2  503  502 -0.43599167198E+02 -0.20177617193E+01 -0.78682905477E+02  0.89977543626E+02  0.00000000000E+00 0. -1.
          1    1    1    2  501    0  0.40545282202E+02  0.12119751450E+02  0.23181539932E+01  0.42381388863E+02  0.00000000000E+00 0. -1.
<scales pt_clust_5="13000.00000" pt_clust_6="13000.00000" pt_clust_7="13000.00000" pt_clust_8="13000.00000" pt_clust_9="32.81661" pt_clust_10="42.31794"></scales>
<clustering>
<clus scale="   42.318">  1 10  2 -1</clus>
<clus scale="   32.817">  1  9  2 -1</clus>
<clus scale="   89.265">  7  8 -1 -1</clus>
<clus scale="   90.788">  5  6 -1 -1</clus>
<clus scale="  108.770">  2  7  1 -1</clus>
<clus scale="   42.318">  1  5  2 -1</clus>
</clustering>
</event>
<event>
10    2  0.3544405E-006  0.9628990E+02  0.7546771E-02  0.1288402E+00
          3   -1    0    0  503    0 -0.00000000000E+00  0.00000000000E+00  0.14825273241E+03  0.14825273241E+03  0.00000000000E+00 0. -1.
         21   -1    0    0  501  502  0.00000000000E+00 -0.00000000000E+00 -0.23350324652E+03  0.23350324652E+03  0.00000000000E+00 0.  1.
         23    2    1    2    0    0 -0.16142254195E+02 -0.16634864276E+01  0.21067269825E+02  0.94674189926E+02  0.90862714150E+02 0.  0.
         23    2    1    2    0    0  0.41870959362E+02  0.22602636213E+02 -0.14228384150E+02  0.10337372808E+03  0.90662143916E+02 0.  0.
        -13    1    4    4    0    0  0.25858634890E+02  0.55695508342E+01  0.37914615761E+02  0.46229936007E+02  0.00000000000E+00 0. -1.
         13    1    4    4    0    0  0.16012324472E+02  0.17033085379E+02 -0.52142999911E+02  0.57143792071E+02  0.00000000000E+00 0.  1.
        -13    1    3    3    0    0 -0.18498749326E+01 -0.41861345186E+02 -0.85146979231E+01  0.42758558661E+02  0.00000000000E+00 0. -1.
         13    1    3    3    0    0 -0.14292379262E+02  0.40197858759E+02  0.29581967748E+02  0.51915631264E+02  0.00000000000E+00 0.  1.
         21    1    1    2  503  502 -0.71128907812E+01 -0.32004223433E+02  0.38938514909E+02  0.50902568463E+02  0.00000000000E+00 0.  1.
          3    1    1    2  501    0 -0.18615814386E+02  0.11065073648E+02 -0.13102791469E+03  0.13280549247E+03  0.00000000000E+00 0. -1.
<scales pt_clust_5="13000.00000" pt_clust_6="13000.00000" pt_clust_7="13000.00000" pt_clust_8="13000.00000" pt_clust_9="32.40953" pt_clust_10="21.65605"></scales>
<clustering>
<clus scale="   21.656">  2 10  1 -1</clus>
<clus scale="   32.410">  1  9  2 -1</clus>
<clus scale="   90.662">  5  6 -1 -1</clus>
<clus scale="   90.863">  7  8 -1 -1</clus>
<clus scale="   96.101">  2  5  1 -1</clus>
<clus scale="   21.656">  2  5  1 -1</clus>
</clustering>
</event>
<event>
10    2  0.3544405E-006  0.2269544E+03  0.7546771E-02  0.1129391E+00
         21   -1    0    0  501  502  0.00000000000E+00  0.00000000000E+00  0.14799552588E+03  0.14799552588E+03  0.00000000000E+00 0. -1.
          2   -1    0    0  503    0 -0.00000000000E+00 -0.00000000000E+00 -0.94518440590E+03  0.94518440590E+03  0.00000000000E+00 0. -1.
         23    2    1    2    0    0  0.18047981093E+03 -0.13288906439E+03 -0.32876755737E+03  0.40689212327E+03  0.85091877461E+02 0.  0.
         23    2    1    2    0    0 -0.11209395148E+03  0.17477383848E+03 -0.20151758775E+03  0.30402697652E+03  0.93338714926E+02 0.  0.
        -11    1    4    4    0    0  0.13000253758E+02  0.26149063143E+02 -0.49017783185E+02  0.57057192092E+02  0.00000000000E+00 0.  1.
         11    1    4    4    0    0 -0.12509420524E+03  0.14862477533E+03 -0.15249980456E+03  0.24696978442E+03  0.00000000000E+00 0. -1.
        -11    1    3    3    0    0 -0.52530042863E+01 -0.23296988283E+02 -0.37963677113E+02  0.44850691154E+02  0.00000000000E+00 0. -1.
         11    1    3    3    0    0  0.18573281522E+03 -0.10959207611E+03 -0.29080388026E+03  0.36204143212E+03  0.00000000000E+00 0.  1.
         21    1    1    2  503  502 -0.87190783263E+02 -0.32109009522E+02 -0.31568474344E+03  0.32907457881E+03  0.00000000000E+00 0. -1.
          2    1    1    2  501    0  0.18804923814E+02 -0.97757645642E+01  0.48781008550E+02  0.53186253183E+02  0.00000000000E+00 0. -1.
<scales pt_clust_5="13000.00000" pt_clust_6="13000.00000" pt_clust_7="13000.00000" pt_clust_8="13000.00000" pt_clust_9="91.93683" pt_clust_10="21.19412"></scales>
<clustering>
<clus scale="   21.194">  1 10  2 -1</clus>
<clus scale="   85.092">  7  8 -1 -1</clus>
<clus scale="   91.937">  2  9  1 -1</clus>
<clus scale="   93.339">  5  6 -1 -1</clus>
<clus scale="  223.689">  2  7  1 -1</clus>
<clus scale="   21.194">  1  5  2 -1</clus>
</clustering>
</event>
<event>
10    2  0.3544405E-006  0.9570030E+02  0.7546771E-02  0.1289832E+00
          1   -1    0    0  503    0 -0.00000000000E+00  0.00000000000E+00  0.37943992528E+03  0.37943992528E+03  0.00000000000E+00 0. -1.
         21   -1    0    0  501  502  0.00000000000E+00 -0.00000000000E+00 -0.18072766292E+03  0.18072766292E+03  0.00000000000E+00 0. -1.
         23    2    1    2    0    0 -0.98150096352E+00  0.11092601899E+02  0.23765055712E+03  0.25491944948E+03  0.91553969124E+02 0.  0.
         23    2    1    2    0    0 -0.60897417044E+02  0.21026081207E+02 -0.62595591406E+02  0.12856115741E+03  0.91973755163E+02 0.  0.
        -11    1    4    4    0    0  0.89483305007E+01 -0.18198402892E+02  0.79870041096E+01  0.21795566550E+02  0.00000000000E+00 0.  1.
         11    1    4    4    0    0 -0.69845747544E+02  0.39224484100E+02 -0.70582595516E+02  0.10676559086E+03  0.00000000000E+00 0. -1.
        -11    1    3    3    0    0  0.35238352997E+02  0.15300058670E+02  0.46473488065E+02  0.60296089510E+02  0.00000000000E+00 0. -1.
         11    1    3    3    0    0 -0.36219853960E+02 -0.42074567706E+01  0.19117706906E+03  0.19462335997E+03  0.00000000000E+00 0.  1.
         21    1    1    2  503  502  0.24315456455E+02  0.50310465285E+01  0.89149102896E+02  0.92542505903E+02  0.00000000000E+00 0. -1.
          1    1    1    2  501    0  0.37563461552E+02 -0.37149729635E+02 -0.65491806252E+02  0.84144475409E+02  0.00000000000E+00 0. -1.
<scales pt_clust_5="13000.00000" pt_clust_6="13000.00000" pt_clust_7="13000.00000" pt_clust_8="13000.00000" pt_clust_9="24.83048" pt_clust_10="53.27958"></scales>
<clustering>
<clus scale="   24.830">  1  9  2 -1</clus>
<clus scale="   53.280">  2 10  1 -1</clus>
<clus scale="   91.554">  7  8 -1 -1</clus>
<clus scale="   91.974">  5  6 -1 -1</clus>
<clus scale="   95.297">  1  7  2 -1</clus>
<clus scale="   53.280">  2  5  1 -1</clus>
</clustering>
</event>
<event>
10    2  0.3544405E-006  0.1734124E+03  0.7546771E-02  0.1201347E+00
          2   -1    0    0  503    0 -0.00000000000E+00  0.00000000000E+00  0.51285834642E+03  0.51285834642E+03  0.00000000000E+00 0. -1.
         21   -1    0    0  501  502  0.00000000000E+00 -0.00000000000E+00 -0.17581571620E+03  0.17581571620E+03  0.00000000000E+00 0. -1.
         23    2    1    2    0    0  0.14448520456E+02  0.11856317114E+02  0.19349203140E+02  0.97201190320E+02  0.93404216920E+02 0.  0.
         23    2    1    2    0    0  0.14361021756E+03 -0.92444179479E+02  0.88080610586E+02  0.21061768635E+03  0.86207858898E+02 0.  0.
        -11    1    3    3    0    0  0.21744244280E+02 -0.13608210372E+02 -0.31043689340E+02  0.40270413416E+02  0.00000000000E+00 0.  1.
         11    1    3    3    0    0 -0.72957238240E+01  0.25464527486E+02  0.50392892481E+02  0.56930776903E+02  0.00000000000E+00 0. -1.
        -11    1    4    4    0    0  0.95783204860E+02 -0.96291915216E+02  0.89430348486E+02  0.16261716545E+03  0.00000000000E+00 0. -1.
         11    1    4    4    0    0  0.47827012705E+02  0.38477357376E+01 -0.13497378998E+01  0.48000520903E+02  0.00000000000E+00 0.  1.
         21    1    1    2  503  502 -0.55035421751E+01  0.10633453429E+03  0.19521467746E+03  0.22236477342E+03  0.00000000000E+00 0. -1.
          2    1    1    2  501    0 -0.15255519585E+03 -0.25746671922E+02  0.34398139028E+02  0.15849041253E+03  0.00000000000E+00 0. -1.
<scales pt_clust_5="13000.00000" pt_clust_6="13000.00000" pt_clust_7="13000.00000" pt_clust_8="13000.00000" pt_clust_9="111.78587" pt_clust_10="150.46620"></scales>
<clustering>
<clus scale="   86.208">  7  8 -1 -1</clus>
<clus scale="   93.404">  5  6 -1 -1</clus>
<clus scale="   95.256">  1  5  2 -1</clus>
<clus scale="  111.786">  1  9  2 -1</clus>
<clus scale="  150.466">  2 10  1 -1</clus>
<clus scale="  150.466">  2  5  1 -1</clus>
</clustering>
</event>
<event>
10    2  0.3544405E-006  0.1278912E+03  0.7546771E-02  0.1231859E+00
          2   -1    0    0  503    0 -0.00000000000E+00  0.00000000000E+00  0.83475392487E+03  0.83475392487E+03  0.00000000000E+00 0. -1.
         21   -1    0    0  501  502  0.00000000000E+00 -0.00000000000E+00 -0.29586384148E+03  0.29586384148E+03  0.00000000000E+00 0. -1.
         23    2    1    2    0    0  0.64912095405E+02  0.15518809640E+03  0.69411882102E+03  0.71934634837E+03  0.85798052536E+02 0.  0.
         23    2    1    2    0    0 -0.53035501146E+02 -0.16172411456E+02 -0.81215934030E+02  0.13359150326E+03  0.90423174731E+02 0.  0.
        -11    1    3    3    0    0 -0.79395519514E+01  0.91641000978E+02  0.35401347123E+03  0.36576857077E+03  0.00000000000E+00 0.  1.
         11    1    3    3    0    0  0.72851647357E+02  0.63547095425E+02  0.34010534979E+03  0.35357777760E+03  0.00000000000E+00 0. -1.
        -11    1    4    4    0    0  0.25592549935E+02 -0.22471468359E+01 -0.14260678854E+02  0.29383587978E+02  0.00000000000E+00 0.  1.
         11    1    4    4    0    0 -0.78628051081E+02 -0.13925264620E+02 -0.66955255177E+02  0.10420791528E+03  0.00000000000E+00 0. -1.
         21    1    1    2  503  502 -0.51147480895E+02 -0.56314970771E+02  0.72387051186E+02  0.10501107520E+03  0.00000000000E+00 0.  1.
          2    1    1    2  501    0  0.39270886635E+02 -0.82700714176E+02 -0.14639985479E+03  0.17266883953E+03  0.00000000000E+00 0. -1.
<scales pt_clust_5="13000.00000" pt_clust_6="13000.00000" pt_clust_7="13000.00000" pt_clust_8="13000.00000" pt_clust_9="76.07523" pt_clust_10="92.06881"></scales>
<clustering>
<clus scale="   76.075">  1  9  2 -1</clus>
<clus scale="   85.798">  5  6 -1 -1</clus>
<clus scale="   90.423">  7  8 -1 -1</clus>
<clus scale="   92.069">  2 10  1 -1</clus>
<clus scale="  124.664">  1  5  2 -1</clus>
<clus scale="   92.069">  2  5  1 -1</clus>
</clustering>
</event>
<event>
10    2  0.3544405E-006  0.2683802E+03  0.7546771E-02  0.1102286E+00
         -3   -1    0    0    0  501 -0.00000000000E+00  0.00000000000E+00  0.45261369304E+03  0.45261369304E+03  0.00000000000E+00 0.  1.
         21   -1    0    0  503  502  0.00000000000E+00 -0.00000000000E+00 -0.57423172200E+03  0.57423172200E+03  0.00000000000E+00 0.  1.
         23    2    1    2    0    0  0.23792076558E+03  0.62394201389E+02 -0.10006305296E+03  0.28144202199E+03  0.93261300221E+02 0.  0.
         23    2    1    2    0    0 -0.19108206553E+03 -0.20211251314E+03 -0.88965659429E+02  0.30609141217E+03  0.91734618949E+02 0.  0.
        -11    1    4    4    0    0 -0.14693868937E+03 -0.16350843289E+03 -0.28181708176E+02  0.22163076216E+03  0.00000000000E+00 0.  1.
         11    1    4    4    0    0 -0.44143376166E+02 -0.38604080246E+02 -0.60783951253E+02  0.84460650015E+02  0.00000000000E+00 0. -1.
        -13    1    3    3    0    0  0.21895973682E+03  0.25073172087E+02 -0.75823618395E+02  0.23306919876E+03  0.00000000000E+00 0.  1.
         13    1    3    3    0    0  0.18961028760E+02  0.37321029301E+02 -0.24239434561E+02  0.48372823234E+02  0.00000000000E+00 0. -1.
         21    1    1    2  503  501 -0.24028243460E+02  0.33972864040E+02  0.23564948837E+03  0.23929520125E+03  0.00000000000E+00 0.  1.
         -3    1    1    2    0  502 -0.22810456581E+02  0.10574544771E+03 -0.16823880494E+03  0.20001677962E+03  0.00000000000E+00 0.  1.
<scales pt_clust_5="13000.00000" pt_clust_6="13000.00000" pt_clust_7="13000.00000" pt_clust_8="13000.00000" pt_clust_9="41.61144" pt_clust_10="111.01105"></scales>
<clustering>
<clus scale="   41.611">  1  9  2 -1</clus>
<clus scale="   91.735">  5  6 -1 -1</clus>
<clus scale="   93.261">  7  8 -1 -1</clus>
<clus scale="  111.011">  2 10  1 -1</clus>
<clus scale="  267.853">  2  5  1 -1</clus>
<clus scale="  111.011">  2  5  1 -1</clus>
</clustering>
</event>
<event>
10    2  0.3544405E-006  0.1357098E+03  0.7546771E-02  0.1220512E+00
         21   -1    0    0  501  502  0.00000000000E+00  0.00000000000E+00  0.18815943564E+03  0.18815943564E+03  0.00000000000E+00 0. -1.
          2   -1    0    0  503    0 -0.00000000000E+00 -0.00000000000E+00 -0.37914719304E+03  0.37914719304E+03  0.00000000000E+00 0. -1.
         23    2    1    2    0    0  0.14184037148E+02  0.95123124013E+02 -0.17237388783E+03  0.21990540175E+03  0.96933136149E+02 0.  0.
         23    2    1    2    0    0 -0.11342053578E+02 -0.10070349249E+03 -0.12535804652E+03  0.18549613375E+03  0.91784204686E+02 0.  0.
        -13    1    4    4    0    0 -0.36086614251E+02 -0.25728304736E+02 -0.95519307401E+01  0.45336836828E+02  0.00000000000E+00 0. -1.
         13    1    4    4    0    0  0.24744560673E+02 -0.74975187756E+02 -0.11580611578E+03  0.14015929693E+03  0.00000000000E+00 0.  1.
        -13    1    3    3    0    0 -0.33820072265E+02  0.51551624330E+01 -0.50501841974E+02  0.60998434656E+02  0.00000000000E+00 0.  1.
         13    1    3    3    0    0  0.48004109414E+02  0.89967961580E+02 -0.12187204585E+03  0.15890696710E+03  0.00000000000E+00 0. -1.
         21    1    1    2  503  502  0.41588743138E+01 -0.22701452058E+02 -0.20803842210E+02  0.31071723670E+02  0.00000000000E+00 0.  1.
          2    1    1    2  501    0 -0.70008578843E+01  0.28281820538E+02  0.12754801916E+03  0.13083336951E+03  0.00000000000E+00 0. -1.
<scales pt_clust_5="13000.00000" pt_clust_6="13000.00000" pt_clust_7="13000.00000" pt_clust_8="13000.00000" pt_clust_9="23.07926" pt_clust_10="29.02830"></scales>
<clustering>
<clus scale="   23.079">  2  9  1 -1</clus>
<clus scale="   29.028">  1 10  2 -1</clus>
<clus scale="   91.784">  5  6 -1 -1</clus>
<clus scale="   96.933">  7  8 -1 -1</clus>
<clus scale="  132.081">  1  5  2 -1</clus>
<clus scale="   29.028">  1  5  2 -1</clus>
</clustering>
</event>
<event>
10    2  0.3544405E-006  0.9954615E+02  0.7546771E-02  0.1283993E+00
         21   -1    0    0  501  502  0.00000000000E+00  0.00000000000E+00  0.79805741234E+02  0.79805741234E+02  0.00000000000E+00 0. -1.
          1   -1    0    0  503    0 -0.00000000000E+00 -0.00000000000E+00 -0.26255112787E+03  0.26255112787E+03  0.00000000000E+00 0. -1.
         23    2    1    2    0    0 -0.89365448452E+01  0.37679400351E+02 -0.14657190457E+03  0.17586243405E+03  0.89132897715E+02 0.  0.
         23    2    1    2    0    0 -0.11454638457E+02 -0.14297741630E+02 -0.21452717962E+02  0.98580240183E+02  0.94457453325E+02 0.  0.
        -11    1    3    3    0    0 -0.46623412956E+02  0.18109613916E+02 -0.10563755572E+03  0.11688025466E+03  0.00000000000E+00 0. -1.
         11    1    3    3    0    0  0.37686868110E+02  0.19569786435E+02 -0.40934348854E+02  0.58982179387E+02  0.00000000000E+00 0.  1.
        -11    1    4    4    0    0 -0.28521651619E+01 -0.35140467920E+02 -0.50636046380E+02  0.61700863241E+02  0.00000000000E+00 0.  1.
         11    1    4    4    0    0 -0.86024732953E+01  0.20842726290E+02  0.29183328418E+02  0.36879376941E+02  0.00000000000E+00 0. -1.
         21    1    1    2  503  502  0.40986607463E+01 -0.39048459915E+02 -0.20903643530E+02  0.44480822322E+02  0.00000000000E+00 0. -1.
          1    1    1    2  501    0  0.16292522556E+02  0.15666801193E+02  0.61828794316E+01  0.23433372547E+02  0.00000000000E+00 0. -1.
<scales pt_clust_5="13000.00000" pt_clust_6="13000.00000" pt_clust_7="13000.00000" pt_clust_8="13000.00000" pt_clust_9="36.88765" pt_clust_10="22.60299"></scales>
<clustering>
<clus scale="   22.603">  1 10  2 -1</clus>
<clus scale="   36.888">  1  9  2 -1</clus>
<clus scale="   89.133">  5  6 -1 -1</clus>
<clus scale="   94.457">  7  8 -1 -1</clus>
<clus scale="   94.509">  2  5  1 -1</clus>
<clus scale="   22.603">  1  5  2 -1</clus>
</clustering>
</event>
<event>
10    2  0.3544405E-006  0.1333914E+03  0.7546771E-02  0.1222559E+00
          2   -1    0    0  503    0 -0.00000000000E+00  0.00000000000E+00  0.33573617428E+03  0.33573617428E+03  0.00000000000E+00 0. -1.
         21   -1    0    0  501  502  0.00000000000E+00 -0.00000000000E+00 -0.13294418417E+03  0.13294418417E+03  0.00000000000E+00 0. -1.
         23    2    1    2    0    0 -0.88387436609E+02 -0.88392253822E+02  0.10983367045E+03  0.19021255559E+03  0.92151243356E+02 0.  0.
         23    2    1    2    0    0  0.36542091568E+02  0.64667793073E+02  0.46713297824E+02  0.12739073980E+03  0.92352696090E+02 0.  0.
        -11    1    3    3    0    0 -0.59063697976E+02 -0.54118424706E+02  0.10086438574E+02  0.80740699491E+02  0.00000000000E+00 0. -1.
         11    1    3    3    0    0 -0.29323738633E+02 -0.34273829116E+02  0.99747231879E+02  0.10947185610E+03  0.00000000000E+00 0.  1.
        -11    1    4    4    0    0  0.58955032996E+02  0.46638140939E+02  0.32134667172E+01  0.75240537439E+02  0.00000000000E+00 0.  1.
         11    1    4    4    0    0 -0.22412941428E+02  0.18029652133E+02  0.43499831107E+02  0.52150202357E+02  0.00000000000E+00 0. -1.
         21    1    1    2  503  502  0.30156332901E+02  0.15122671708E+02  0.92942091573E+02  0.98875335648E+02  0.00000000000E+00 0.  1.
          2    1    1    2  501    0  0.21689012140E+02  0.86017890417E+01 -0.46697069741E+02  0.52201727411E+02  0.00000000000E+00 0. -1.
<scales pt_clust_5="13000.00000" pt_clust_6="13000.00000" pt_clust_7="13000.00000" pt_clust_8="13000.00000" pt_clust_9="34.56167" pt_clust_10="23.33247"></scales>
<clustering>
<clus scale="   23.332">  2 10  1 -1</clus>
<clus scale="   34.562">  1  9  2 -1</clus>
<clus scale="   92.151">  5  6 -1 -1</clus>
<clus scale="   92.353">  7  8 -1 -1</clus>
<clus scale="  133.252">  1  5  2 -1</clus>
<clus scale="   23.332">  2  5  1 -1</clus>
</clustering>
</event>
<event>
10    2  0.3544405E-006  0.1205235E+03  0.7546771E-02  0.1246275E+00
         21   -1    0    0  501  502  0.00000000000E+00  0.00000000000E+00  0.43448723007E+02  0.43448723007E+02  0.00000000000E+00 0.  1.
          2   -1    0    0  503    0 -0.00000000000E+00 -0.00000000000E+00 -0.54426906121E+03  0.54426906121E+03  0.00000000000E+00 0. -1.
         23    2    1    2    0    0 -0.67027905746E+02 -0.53154539257E+01 -0.26076354887E+03  0.28862909810E+03  0.10386594075E+03 0.  0.
         23    2    1    2    0    0  0.55594304762E+02 -0.35551116212E+02 -0.16204164782E+03  0.19803161190E+03  0.92759986508E+02 0.  0.
        -11    1    3    3    0    0 -0.93958823126E+02  0.67527817814E+01 -0.19646519374E+03  0.21788169463E+03  0.00000000000E+00 0. -1.
         11    1    3    3    0    0  0.26930917380E+02 -0.12068235707E+02 -0.64298355134E+02  0.70747403464E+02  0.00000000000E+00 0.  1.
        -13    1    4    4    0    0  0.31745062339E+02 -0.67117469341E+02 -0.10781328612E+03  0.13090534113E+03  0.00000000000E+00 0.  1.
         13    1    4    4    0    0  0.23849242423E+02  0.31566353129E+02 -0.54228361703E+02  0.67126270766E+02  0.00000000000E+00 0. -1.
         21    1    1    2  503  502  0.16631958682E+02  0.16866688127E+02 -0.71969356069E+02  0.75767377089E+02  0.00000000000E+00 0.  1.
          2    1    1    2  501    0 -0.51983576983E+01  0.23999882011E+02 -0.60457854354E+01  0.25289697128E+02  0.00000000000E+00 0. -1.
<scales pt_clust_5="13000.00000" pt_clust_6="13000.00000" pt_clust_7="13000.00000" pt_clust_8="13000.00000" pt_clust_9="23.68770" pt_clust_10="24.99691"></scales>
<clustering>
<clus scale="   23.688">  2  9  1 -1</clus>
<clus scale="   24.997">  1 10  2 -1</clus>
<clus scale="   92.760">  7  8 -1 -1</clus>
<clus scale="  103.866">  5  6 -1 -1</clus>
<clus scale="  111.095">  1  7  2 -1</clus>
<clus scale="   24.997">  1  5  2 -1</clus>
</clustering>
</event>
<event>
10    2  0.3544405E-006  0.1017453E+03  0.7546771E-02  0.1277226E+00
          4   -1    0    0  503    0 -0.00000000000E+00  0.00000000000E+00  0.36736677067E+03  0.36736677067E+03  0.00000000000E+00 0. -1.
         21   -1    0    0  501  502  0.00000000000E+00 -0.00000000000E+00 -0.10698252269E+03  0.10698252269E+03  0.00000000000E+00 0. -1.
         23    2    1    2    0    0  0.60241400960E+00 -0.21379065287E+02  0.23877835911E+03  0.25657064656E+03  0.91410965223E+02 0.  0.
         23    2    1    2    0    0 -0.40043237525E+02  0.70755187999E+02  0.38777312496E+02  0.12747910771E+03  0.90208012046E+02 0.  0.
        -11    1    3    3    0    0  0.40031355357E+02  0.23987410967E+01  0.61573979977E+02  0.73482095648E+02  0.00000000000E+00 0.  1.
         11    1    3    3    0    0 -0.39428941347E+02 -0.23777806384E+02  0.17720437913E+03  0.18308855091E+03  0.00000000000E+00 0. -1.
        -13    1    4    4    0    0 -0.56706303617E+02  0.26249653292E+02  0.48341658644E+02  0.79003576680E+02  0.00000000000E+00 0.  1.
         13    1    4    4    0    0  0.16663066092E+02  0.44505534707E+02 -0.95643461479E+01  0.48475531028E+02  0.00000000000E+00 0. -1.
         21    1    1    2  503  502  0.72809130090E+01 -0.19359086570E+02  0.22854454235E+02  0.30823886930E+02  0.00000000000E+00 0.  1.
          4    1    1    2  501    0  0.32159910506E+02 -0.30017036142E+02 -0.40025877859E+02  0.59475652169E+02  0.00000000000E+00 0. -1.
<scales pt_clust_5="13000.00000" pt_clust_6="13000.00000" pt_clust_7="13000.00000" pt_clust_8="13000.00000" pt_clust_9="20.68299" pt_clust_10="44.52186"></scales>
<clustering>
<clus scale="   20.683">  1  9  2 -1</clus>
<clus scale="   44.522">  2 10  1 -1</clus>
<clus scale="   90.208">  7  8 -1 -1</clus>
<clus scale="   91.411">  5  6 -1 -1</clus>
<clus scale="  100.666">  2  7  1 -1</clus>
<clus scale="   44.522">  2  5  1 -1</clus>
</clustering>
</event>
<event>
10    2  0.3544405E-006  0.1421662E+03  0.7546771E-02  0.1210820E+00
          3   -1    0    0  503    0 -0.00000000000E+00  0.00000000000E+00  0.20695755321E+04  0.20695755321E+04  0.00000000000E+00 0. -1.
         21   -1    0    0  501  502  0.00000000000E+00 -0.00000000000E+00 -0.24971889248E+02  0.24971889248E+02  0.00000000000E+00 0. -1.
         23    2    1    2    0    0  0.42223941751E+02  0.15585617421E+03  0.88988961228E+03  0.90910908078E+03  0.92205153963E+02 0.  0.
         23    2    1    2    0    0  0.49774432506E+02 -0.66659913399E+02  0.46119163872E+03  0.47728259029E+03  0.90442828268E+02 0.  0.
        -13    1    3    3    0    0 -0.29522754810E+02  0.41743540185E+02  0.23827824188E+03  0.24370194245E+03  0.00000000000E+00 0.  1.
         13    1    3    3    0    0  0.71746696560E+02  0.11411263403E+03  0.65161137040E+03  0.66540713833E+03  0.00000000000E+00 0. -1.
        -13    1    4    4    0    0 -0.12052720096E+02 -0.49710594354E+02  0.12548915157E+03  0.13551360970E+03  0.00000000000E+00 0.  1.
         13    1    4    4    0    0  0.61827152602E+02 -0.16949319045E+02  0.33570248715E+03  0.34176898059E+03  0.00000000000E+00 0. -1.
         21    1    1    2  503  502  0.52180558663E+01 -0.27585952065E+02  0.14336891869E+03  0.14609195634E+03  0.00000000000E+00 0. -1.
          3    1    1    2  501    0 -0.97216430123E+02 -0.61610308750E+02  0.55015347320E+03  0.56206379398E+03  0.00000000000E+00 0. -1.
<scales pt_clust_5="13000.00000" pt_clust_6="13000.00000" pt_clust_7="13000.00000" pt_clust_8="13000.00000" pt_clust_9="28.07513" pt_clust_10="118.32838"></scales>
<clustering>
<clus scale="   28.075">  1  9  2 -1</clus>
<clus scale="   90.443">  7  8 -1 -1</clus>
<clus scale="   92.205">  5  6 -1 -1</clus>
<clus scale="  118.328">  2 10  1 -1</clus>
<clus scale="  141.030">  2  7  1 -1</clus>
<clus scale="  118.328">  2  5  1 -1</clus>
</clustering>
</event>
<event>
10    2  0.3544405E-006  0.1004201E+03  0.7546771E-02  0.1280731E+00
          4   -1    0    0  503    0 -0.00000000000E+00  0.00000000000E+00  0.13435848768E+03  0.13435848768E+03  0.00000000000E+00 0. -1.
         21   -1    0    0  501  502  0.00000000000E+00 -0.00000000000E+00 -0.16011393027E+03  0.16011393027E+03  0.00000000000E+00 0.  1.
         23    2    1    2    0    0  0.31980429985E+02 -0.45903318131E+02 -0.26956118222E+02  0.11007902214E+03  0.90889472928E+02 0.  0.
         23    2    1    2    0    0  0.19341316446E+02  0.40670085406E+02 -0.26172250272E+02  0.10237918272E+03  0.88138345808E+02 0.  0.
        -11    1    4    4    0    0  0.32534306366E+02  0.71879715452E+01 -0.49371116858E+02  0.59562196110E+02  0.00000000000E+00 0.  1.
         11    1    4    4    0    0 -0.13192989920E+02  0.33482113860E+02  0.23198866587E+02  0.42816986612E+02  0.00000000000E+00 0. -1.
        -13    1    3    3    0    0  0.21432735291E+02 -0.65340961216E+02  0.74602980222E+01  0.69169786766E+02  0.00000000000E+00 0.  1.
         13    1    3    3    0    0  0.10547694695E+02  0.19437643086E+02 -0.34416416244E+02  0.40909235378E+02  0.00000000000E+00 0. -1.
         21    1    1    2  503  502 -0.38258165647E+02  0.24810830626E+02  0.34770302179E+02  0.57343164097E+02  0.00000000000E+00 0. -1.
          4    1    1    2  501    0 -0.13063580784E+02 -0.19577597902E+02 -0.73973762693E+01  0.24671048988E+02  0.00000000000E+00 0. -1.
<scales pt_clust_5="13000.00000" pt_clust_6="13000.00000" pt_clust_7="13000.00000" pt_clust_8="13000.00000" pt_clust_9="45.66032" pt_clust_10="23.53592"></scales>
<clustering>
<clus scale="   23.536">  2 10  1 -1</clus>
<clus scale="   45.660">  1  9  2 -1</clus>
<clus scale="   88.138">  5  6 -1 -1</clus>
<clus scale="   90.889">  7  8 -1 -1</clus>
<clus scale="   97.937">  2  5  1 -1</clus>
<clus scale="   23.536">  2  5  1 -1</clus>
</clustering>
</event>
<event>
10    2  0.3544405E-006  0.1010083E+03  0.7546771E-02  0.1280532E+00
          1   -1    0    0  503    0 -0.00000000000E+00  0.00000000000E+00  0.52793465081E+03  0.52793465081E+03  0.00000000000E+00 0. -1.
         21   -1    0    0  501  502  0.00000000000E+00 -0.00000000000E+00 -0.38764206596E+02  0.38764206596E+02  0.00000000000E+00 0.  1.
         23    2    1    2    0    0  0.63982070886E+01 -0.41003273030E+01  0.16692385891E+03  0.19008579173E+03  0.90616134374E+02 0.  0.
         23    2    1    2    0    0 -0.59056436519E+02  0.27810414757E+02  0.16661655596E+03  0.20274217273E+03  0.95300734633E+02 0.  0.
        -11    1    4    4    0    0  0.19799761533E+02  0.30323079411E+02  0.44780548309E+02  0.57591815465E+02  0.00000000000E+00 0.  1.
         11    1    4    4    0    0 -0.78856198052E+02 -0.25126646542E+01  0.12183600765E+03  0.14515035727E+03  0.00000000000E+00 0. -1.
        -13    1    3    3    0    0  0.40320957502E+01  0.40656224466E+02  0.11185886096E+03  0.11908648604E+03  0.00000000000E+00 0.  1.
         13    1    3    3    0    0  0.23661113385E+01 -0.44756551769E+02  0.55064997950E+02  0.70999305689E+02  0.00000000000E+00 0. -1.
         21    1    1    2  503  502  0.29991928196E+02  0.12947905110E+02  0.85831369298E+02  0.91837835118E+02  0.00000000000E+00 0.  1.
          1    1    1    2  501    0  0.22666301235E+02 -0.36657992563E+02  0.69798660055E+02  0.82033057823E+02  0.00000000000E+00 0. -1.
<scales pt_clust_5="13000.00000" pt_clust_6="13000.00000" pt_clust_7="13000.00000" pt_clust_8="13000.00000" pt_clust_9="32.66748" pt_clust_10="44.27650"></scales>
<clustering>
<clus scale="   32.667">  1  9  2 -1</clus>
<clus scale="   44.277">  2 10  1 -1</clus>
<clus scale="   90.616">  7  8 -1 -1</clus>
<clus scale="   95.301">  5  6 -1 -1</clus>
<clus scale="   96.601">  1  7  2 -1</clus>
<clus scale="   44.277">  2  5  1 -1</clus>
</clustering>
</event>
<event>
10    2  0.3544405E-006  0.9463683E+02  0.7546771E-02  0.1294166E+00
          3   -1    0    0  503    0 -0.00000000000E+00  0.00000000000E+00  0.28576593424E+03  0.28576593424E+03  0.00000000000E+00 0. -1.
         21   -1    0    0  501  502  0.00000000000E+00 -0.00000000000E+00 -0.41208146724E+03  0.41208146724E+03  0.00000000000E+00 0. -1.
         23    2    1    2    0    0 -0.13043646277E+01 -0.27356135435E+02  0.17098417179E+03  0.19553094954E+03  0.90811374344E+02 0.  0.
         23    2    1    2    0    0 -0.43787776119E+02  0.43891457469E+02 -0.32350712781E+03  0.34066332780E+03  0.86895407187E+02 0.  0.
        -11    1    3    3    0    0 -0.47027387482E+01 -0.60336813680E+02  0.95154817320E+02  0.11277005851E+03  0.00000000000E+00 0. -1.
         11    1    3    3    0    0  0.33983741206E+01  0.32980678245E+02  0.75829354471E+02  0.82760891028E+02  0.00000000000E+00 0.  1.
        -11    1    4    4    0    0 -0.66446576555E+02  0.30749309260E+02 -0.17240615598E+03  0.18730870288E+03  0.00000000000E+00 0. -1.
         11    1    4    4    0    0  0.22658800436E+02  0.13142148208E+02 -0.15110097183E+03  0.15335462492E+03  0.00000000000E+00 0.  1.
         21    1    1    2  503  502  0.18943057306E+02  0.87985988973E+01  0.87720463440E+02  0.90172803377E+02  0.00000000000E+00 0. -1.
          3    1    1    2  501    0  0.26149083440E+02 -0.25333920931E+02 -0.61513040426E+02  0.71480320767E+02  0.00000000000E+00 0. -1.
<scales pt_clust_5="13000.00000" pt_clust_6="13000.00000" pt_clust_7="13000.00000" pt_clust_8="13000.00000" pt_clust_9="20.88671" pt_clust_10="36.60135"></scales>
<clustering>
<clus scale="   20.887">  1  9  2 -1</clus>
<clus scale="   36.601">  2 10  1 -1</clus>
<clus scale="   86.895">  7  8 -1 -1</clus>
<clus scale="   90.811">  5  6 -1 -1</clus>
<clus scale="   90.886">  2  7  1 -1</clus>
<clus scale="   36.601">  2  5  1 -1</clus>
</clustering>
</event>
<event>
10    2  0.3544405E-006  0.2382771E+03  0.7546771E-02  0.1120991E+00
          1   -1    0    0  503    0 -0.00000000000E+00  0.00000000000E+00  0.74323576252E+03  0.74323576252E+03  0.00000000000E+00 0. -1.
         21   -1    0    0  501  502  0.00000000000E+00 -0.00000000000E+00 -0.27882104634E+03  0.27882104634E+03  0.00000000000E+00 0.  1.
         23    2    1    2    0    0  0.13297501547E+03  0.17519092238E+03  0.36354311268E+03  0.43429362139E+03  0.89850658188E+02 0.  0.
         23    2    1    2    0    0 -0.46686350190E+02 -0.22363712489E+03  0.34794837467E+02  0.24820495008E+03  0.90563997279E+02 0.  0.
        -11    1    3    3    0    0  0.13849667258E+03  0.15424153692E+03  0.35482372670E+03  0.41093996770E+03  0.00000000000E+00 0. -1.
         11    1    3    3    0    0 -0.55216571126E+01  0.20949385464E+02  0.87193859821E+01  0.23353653686E+02  0.00000000000E+00 0.  1.
        -11    1    4    4    0    0  0.27525721910E+02 -0.56987467025E+02  0.70007629347E+01  0.63672972651E+02  0.00000000000E+00 0. -1.
         11    1    4    4    0    0 -0.74212072100E+02 -0.16664965787E+03  0.27794074533E+02  0.18453197743E+03  0.00000000000E+00 0.  1.
         21    1    1    2  503  502 -0.52823791046E+02  0.32254471368E+02  0.19541547651E+03  0.20498271216E+03  0.00000000000E+00 0. -1.
          1    1    1    2  501    0 -0.33464874229E+02  0.16191731142E+02 -0.12933871048E+03  0.13457552523E+03  0.00000000000E+00 0. -1.
<scales pt_clust_5="13000.00000" pt_clust_6="13000.00000" pt_clust_7="13000.00000" pt_clust_8="13000.00000" pt_clust_9="63.09793" pt_clust_10="37.17620"></scales>
<clustering>
<clus scale="   37.176">  2 10  1 -1</clus>
<clus scale="   63.098">  1  9  2 -1</clus>
<clus scale="   89.851">  5  6 -1 -1</clus>
<clus scale="   90.564">  7  8 -1 -1</clus>
<clus scale="  238.007">  1  5  2 -1</clus>
<clus scale="   37.176">  2  5  1 -1</clus>
</clustering>
</event>
<event>
10    2  0.3544405E-006  0.2007678E+03  0.7546771E-02  0.1149458E+00
          1   -1    0    0  503    0 -0.00000000000E+00  0.00000000000E+00  0.46667355747E+03  0.46667355747E+03  0.00000000000E+00 0. -1.
         21   -1    0    0  501  502  0.00000000000E+00 -0.00000000000E+00 -0.48364806555E+03  0.48364806555E+03  0.00000000000E+00 0.  1.
         23    2    1    2    0    0  0.94990201446E+02  0.13292868774E+03  0.32072785202E+03  0.37140786447E+03  0.91565672246E+02 0.  0.
         23    2    1    2    0    0 -0.57413843481E+02 -0.10476816483E+03 -0.91107592355E+02  0.17396752009E+03  0.87700552305E+02 0.  0.
        -11    1    3    3    0    0  0.12956985738E+01  0.48249691327E+02  0.36915844690E+02  0.60765871483E+02  0.00000000000E+00 0.  1.
         11    1    3    3    0    0  0.93694502872E+02  0.84678996411E+02  0.28381200733E+03  0.31064199299E+03  0.00000000000E+00 0. -1.
        -13    1    4    4    0    0 -0.14678116675E+02 -0.31162568372E+02  0.15313832511E+02  0.37697032282E+02  0.00000000000E+00 0. -1.
         13    1    4    4    0    0 -0.42735726806E+02 -0.73605596459E+02 -0.10642142487E+03  0.13627048780E+03  0.00000000000E+00 0.  1.
         21    1    1    2  503  502 -0.10154177292E+01  0.49080236049E+02  0.65221524658E+02  0.81631782551E+02  0.00000000000E+00 0.  1.
          1    1    1    2  501    0 -0.36560940236E+02 -0.77240758956E+02 -0.31181629240E+03  0.32331445592E+03  0.00000000000E+00 0. -1.
<scales pt_clust_5="13000.00000" pt_clust_6="13000.00000" pt_clust_7="13000.00000" pt_clust_8="13000.00000" pt_clust_9="49.09074" pt_clust_10="84.81505"></scales>
<clustering>
<clus scale="   49.091">  1  9  2 -1</clus>
<clus scale="   84.815">  2 10  1 -1</clus>
<clus scale="   87.701">  7  8 -1 -1</clus>
<clus scale="   91.566">  5  6 -1 -1</clus>
<clus scale="  199.035">  2  7  1 -1</clus>
<clus scale="   84.815">  2  5  1 -1</clus>
</clustering>
</event>
<event>
10    2  0.3544405E-006  0.1134220E+03  0.7546771E-02  0.1260197E+00
         21   -1    0    0  501  502  0.00000000000E+00  0.00000000000E+00  0.28959315122E+03  0.28959315122E+03  0.00000000000E+00 0. -1.
          1   -1    0    0  503    0 -0.00000000000E+00 -0.00000000000E+00 -0.35884982908E+03  0.35884982908E+03  0.00000000000E+00 0. -1.
         23    2    1    2    0    0 -0.18679705112E+02 -0.44925128033E+02 -0.19451435331E+03  0.21933057520E+03  0.88898082445E+02 0.  0.
         23    2    1    2    0    0 -0.57043495835E+02  0.48619361078E+02 -0.69017060494E+02  0.14467759853E+03  0.10271538437E+03 0.  0.
        -13    1    4    4    0    0 -0.78862608681E+02  0.51217929666E+02 -0.76753222140E+02  0.12138222471E+03  0.00000000000E+00 0. -1.
         13    1    4    4    0    0  0.21819112846E+02 -0.25985685880E+01  0.77361616463E+01  0.23295373813E+02  0.00000000000E+00 0.  1.
        -13    1    3    3    0    0  0.23334642010E+02 -0.31317480653E+02 -0.15573702559E+03  0.16055936987E+03  0.00000000000E+00 0.  1.
         13    1    3    3    0    0 -0.42014347123E+02 -0.13607647381E+02 -0.38777327720E+02  0.58771205334E+02  0.00000000000E+00 0. -1.
         21    1    1    2  503  502  0.35089742705E+02  0.33849126318E+01 -0.36064392986E+02  0.50432014812E+02  0.00000000000E+00 0.  1.
          1    1    1    2  501    0  0.40633458243E+02 -0.70791456762E+01  0.23033912894E+03  0.23400279176E+03  0.00000000000E+00 0. -1.
<scales pt_clust_5="13000.00000" pt_clust_6="13000.00000" pt_clust_7="13000.00000" pt_clust_8="13000.00000" pt_clust_9="35.25263" pt_clust_10="41.44282"></scales>
<clustering>
<clus scale="   35.253">  2  9  1 -1</clus>
<clus scale="   41.443">  1 10  2 -1</clus>
<clus scale="   88.898">  7  8 -1 -1</clus>
<clus scale="  101.079">  2  7  1 -1</clus>
<clus scale="  102.715">  5  6 -1 -1</clus>
<clus scale="   41.443">  1  5  2 -1</clus>
</clustering>
</event>
<event>
10    2  0.3544405E-006  0.1101557E+03  0.7546771E-02  0.1261146E+00
          1   -1    0    0  503    0 -0.00000000000E+00  0.00000000000E+00  0.36796492602E+03  0.36796492602E+03  0.00000000000E+00 0. -1.
         21   -1    0    0  501  502  0.00000000000E+00 -0.00000000000E+00 -0.63848899447E+02  0.63848899447E+02  0.00000000000E+00 0.  1.
         23    2    1    2    0    0 -0.42801065181E+01 -0.42699326979E+02  0.79402501321E+02  0.12862236878E+03  0.91637354269E+02 0.  0.
         23    2    1    2    0    0  0.32401931870E+02  0.76197716153E+02  0.77700485752E+02  0.14451946389E+03  0.89400966561E+02 0.  0.
        -11    1    3    3    0    0  0.33924391503E+02  0.24751382376E+01  0.63248784346E+01  0.34597611700E+02  0.00000000000E+00 0.  1.
         11    1    3    3    0    0 -0.38204498021E+02 -0.45174465217E+02  0.73077622886E+02  0.94024757077E+02  0.00000000000E+00 0. -1.
        -13    1    4    4    0    0 -0.21664369265E+02  0.58536682903E+02  0.25861478066E+02  0.67562594597E+02  0.00000000000E+00 0. -1.
         13    1    4    4    0    0  0.54066301136E+02  0.17661033250E+02  0.51839007687E+02  0.76956869296E+02  0.00000000000E+00 0.  1.
         21    1    1    2  503  502  0.18661121730E+01 -0.22096807190E+02  0.95053289587E+02  0.97605733049E+02  0.00000000000E+00 0. -1.
          1    1    1    2  501    0 -0.29987937525E+02 -0.11401581984E+02  0.51959749912E+02  0.61066259748E+02  0.00000000000E+00 0. -1.
<scales pt_clust_5="13000.00000" pt_clust_6="13000.00000" pt_clust_7="13000.00000" pt_clust_8="13000.00000" pt_clust_9="22.17547" pt_clust_10="33.64675"></scales>
<clustering>
<clus scale="   22.175">  1  9  2 -1</clus>
<clus scale="   33.647">  2 10  1 -1</clus>
<clus scale="   89.401">  7  8 -1 -1</clus>
<clus scale="   91.637">  5  6 -1 -1</clus>
<clus scale="  108.302">  2  7  1 -1</clus>
<clus scale="   33.647">  2  5  1 -1</clus>
</clustering>
</event>
<event>
10    2  0.3544405E-006  0.9659657E+02  0.7546771E-02  0.1289493E+00
         21   -1    0    0  501  502  0.00000000000E+00  0.00000000000E+00  0.14439726812E+03  0.14439726812E+03  0.00000000000E+00 0.  1.
          1   -1    0    0  503    0 -0.00000000000E+00 -0.00000000000E+00 -0.29397184791E+03  0.29397184791E+03  0.00000000000E+00 0. -1.
         23    2    1    2    0    0 -0.20026655586E+02  0.91722877049E+00 -0.18698160861E+03  0.20883063411E+03  0.90808609407E+02 0.  0.
         23    2    1    2    0    0 -0.20256432368E+01  0.39672122764E+02  0.17860753173E+02  0.97517533465E+02  0.87250686382E+02 0.  0.
        -11    1    3    3    0    0  0.17185015407E+01 -0.42375475777E+02 -0.10977506138E+03  0.11768261679E+03  0.00000000000E+00 0. -1.
         11    1    3    3    0    0 -0.21745157126E+02  0.43292704548E+02 -0.77206547238E+02  0.91148017323E+02  0.00000000000E+00 0.  1.
        -11    1    4    4    0    0 -0.27450756305E+01 -0.24381754821E+02 -0.11445578378E+02  0.27074095974E+02  0.00000000000E+00 0. -1.
         11    1    4    4    0    0  0.71943239373E+00  0.64053877585E+02  0.29306331551E+02  0.70443437492E+02  0.00000000000E+00 0.  1.
         21    1    1    2  503  502  0.16773384688E+01 -0.35865159381E+02 -0.48777754974E+02  0.60567256022E+02  0.00000000000E+00 0. -1.
          1    1    1    2  501    0  0.20374960354E+02 -0.47241921530E+01  0.68324030627E+02  0.71453692431E+02  0.00000000000E+00 0. -1.
<scales pt_clust_5="13000.00000" pt_clust_6="13000.00000" pt_clust_7="13000.00000" pt_clust_8="13000.00000" pt_clust_9="36.38789" pt_clust_10="20.91547"></scales>
<clustering>
<clus scale="   20.915">  1 10  2 -1</clus>
<clus scale="   36.388">  2  9  1 -1</clus>
<clus scale="   87.251">  7  8 -1 -1</clus>
<clus scale="   90.809">  5  6 -1 -1</clus>
<clus scale="   93.260">  1  7  2 -1</clus>
<clus scale="   20.915">  1  5  2 -1</clus>
</clustering>
</event>
<event>
10    2  0.3544405E-006  0.1898698E+03  0.7546771E-02  0.1174827E+00
          3   -1    0    0  503    0 -0.00000000000E+00  0.00000000000E+00  0.57893247828E+03  0.57893247828E+03  0.00000000000E+00 0. -1.
         21   -1    0    0  501  502  0.00000000000E+00 -0.00000000000E+00 -0.23380174451E+03  0.23380174451E+03  0.00000000000E+00 0. -1.
         23    2    1    2    0    0  0.75306572156E+02 -0.20591087311E+02  0.28008487696E+03  0.30533692751E+03  0.93209593460E+02 0.  0.
         23    2    1    2    0    0 -0.20754746657E+01  0.17173104791E+03 -0.80092696708E+02  0.20852231202E+03  0.87010655296E+02 0.  0.
        -11    1    4    4    0    0 -0.46428388930E+01  0.52106079972E+02  0.16385674414E+02  0.54818699812E+02  0.00000000000E+00 0.  1.
         11    1    4    4    0    0  0.25673642273E+01  0.11962496793E+03 -0.96478371121E+02  0.15370361221E+03  0.00000000000E+00 0. -1.
        -11    1    3    3    0    0  0.55460732111E+02 -0.46406931380E+02  0.25253031369E+03  0.26268051968E+03  0.00000000000E+00 0. -1.
         11    1    3    3    0    0  0.19845840044E+02  0.25815844069E+02  0.27554563271E+02  0.42656407831E+02  0.00000000000E+00 0.  1.
         21    1    1    2  503  502  0.22794407375E+02  0.30772730221E+01  0.11183769320E+03  0.11417847537E+03  0.00000000000E+00 0. -1.
          3    1    1    2  501    0 -0.96025504865E+02 -0.15421723362E+03  0.33300860327E+02  0.18469650789E+03  0.00000000000E+00 0. -1.
<scales pt_clust_5="13000.00000" pt_clust_6="13000.00000" pt_clust_7="13000.00000" pt_clust_8="13000.00000" pt_clust_9="23.00119" pt_clust_10="168.75934"></scales>
<clustering>
<clus scale="   23.001">  1  9  2 -1</clus>
<clus scale="   87.011">  5  6 -1 -1</clus>
<clus scale="   93.210">  7  8 -1 -1</clus>
<clus scale="  130.649">  1  7  2 -1</clus>
<clus scale="  168.759">  2 10  1 -1</clus>
<clus scale="  168.759">  2  5  1 -1</clus>
</clustering>
</event>
<event>
10    2  0.3544405E-006  0.1037598E+03  0.7546771E-02  0.1272663E+00
          1   -1    0    0  503    0 -0.00000000000E+00  0.00000000000E+00  0.41253355085E+03  0.41253355085E+03  0.00000000000E+00 0. -1.
         21   -1    0    0  501  502  0.00000000000E+00 -0.00000000000E+00 -0.83661679492E+02  0.83661679492E+02  0.00000000000E+00 0. -1.
         23    2    1    2    0    0 -0.33958920860E+02  0.52046936687E+02  0.15239245690E+03  0.18729620064E+03  0.89410927357E+02 0.  0.
         23    2    1    2    0    0  0.12699331315E+02 -0.42057270697E+02  0.92450440764E+02  0.13603212108E+03  0.89596690412E+02 0.  0.
        -13    1    3    3    0    0  0.29618781321E+02  0.22175413684E+02  0.37857583511E+02  0.52935978391E+02  0.00000000000E+00 0.  1.
         13    1    3    3    0    0 -0.63577702181E+02  0.29871523003E+02  0.11453487339E+03  0.13436022225E+03  0.00000000000E+00 0. -1.
        -13    1    4    4    0    0 -0.22248996093E+02  0.13769501827E+02  0.51401434698E+01  0.26665297347E+02  0.00000000000E+00 0. -1.
         13    1    4    4    0    0  0.34948327408E+02 -0.55826772524E+02  0.87310297294E+02  0.10936682373E+03  0.00000000000E+00 0.  1.
         21    1    1    2  503  502 -0.12725947843E+02 -0.17614574788E+02  0.12049536978E+03  0.12243919770E+03  0.00000000000E+00 0. -1.
          1    1    1    2  501    0  0.33985537388E+02  0.76249087984E+01 -0.36466396087E+02  0.50427710927E+02  0.00000000000E+00 0. -1.
<scales pt_clust_5="13000.00000" pt_clust_6="13000.00000" pt_clust_7="13000.00000" pt_clust_8="13000.00000" pt_clust_9="21.73069" pt_clust_10="34.44184"></scales>
<clustering>
<clus scale="   21.731">  1  9  2 -1</clus>
<clus scale="   34.442">  2 10  1 -1</clus>
<clus scale="   89.411">  5  6 -1 -1</clus>
<clus scale="   89.597">  7  8 -1 -1</clus>
<clus scale="  103.599">  1  5  2 -1</clus>
<clus scale="   34.442">  2  5  1 -1</clus>
</clustering>
</event>
<event>
10    2  0.3544405E-006  0.1047491E+03  0.7546771E-02  0.1271215E+00
         21   -1    0    0  503  502  0.00000000000E+00  0.00000000000E+00  0.27583442879E+03  0.27583442879E+03  0.00000000000E+00 0. -1.
         -2   -1    0    0    0  501 -0.00000000000E+00 -0.00000000000E+00 -0.32779943275E+03  0.32779943275E+03  0.00000000000E+00 0.  1.
         23    2    1    2    0    0 -0.16167472547E+02 -0.61246171020E+02 -0.24216626693E+03  0.26744163680E+03  0.94170311765E+02 0.  0.
         23    2    1    2    0    0 -0.41647840016E+02  0.81026852817E+02  0.59028607321E+02  0.14283106800E+03  0.92824802982E+02 0.  0.
        -11    1    3    3    0    0  0.31549739472E+02 -0.34357176496E+01 -0.11987419068E+03  0.12400407980E+03  0.00000000000E+00 0. -1.
         11    1    3    3    0    0 -0.47717212019E+02 -0.57810453371E+02 -0.12229207626E+03  0.14343755700E+03  0.00000000000E+00 0.  1.
        -11    1    4    4    0    0 -0.36754694196E+02  0.32164967070E+02  0.76455258536E+02  0.90724303304E+02  0.00000000000E+00 0. -1.
         11    1    4    4    0    0 -0.48931458195E+01  0.48861885746E+02 -0.17426651215E+02  0.52106764698E+02  0.00000000000E+00 0.  1.
         21    1    1    2  503  501  0.16001171880E+02  0.27247532787E+02 -0.14433006173E+02  0.34738699051E+02  0.00000000000E+00 0.  1.
         -2    1    1    2    0  502  0.41814140682E+02 -0.47028214584E+02  0.14560566183E+03  0.15862245769E+03  0.00000000000E+00 0.  1.
<scales pt_clust_5="13000.00000" pt_clust_6="13000.00000" pt_clust_7="13000.00000" pt_clust_8="13000.00000" pt_clust_9="31.59851" pt_clust_10="62.72359"></scales>
<clustering>
<clus scale="   31.599">  2  9  1 -1</clus>
<clus scale="   62.724">  1 10  2 -1</clus>
<clus scale="   92.825">  7  8 -1 -1</clus>
<clus scale="   94.170">  5  6 -1 -1</clus>
<clus scale="  103.541">  1  7  2 -1</clus>
<clus scale="   62.724">  1  5  2 -1</clus>
</clustering>
</event>
<event>
10    2  0.3544405E-006  0.1834327E+03  0.7546771E-02  0.1184235E+00
         -2   -1    0    0    0  501 -0.00000000000E+00  0.00000000000E+00  0.43858199082E+03  0.43858199082E+03  0.00000000000E+00 0.  1.
         21   -1    0    0  503  502  0.00000000000E+00 -0.00000000000E+00 -0.37894496682E+03  0.37894496682E+03  0.00000000000E+00 0.  1.
         23    2    1    2    0    0  0.47913224936E+02  0.56603843587E+02  0.15149131277E+03  0.19169576182E+03  0.91093221599E+02 0.  0.
         23    2    1    2    0    0  0.12544004454E+03  0.12556394463E+01  0.16934490489E+03  0.22922918644E+03  0.90175061404E+02 0.  0.
        -11    1    4    4    0    0  0.73672894015E+02  0.40204549072E+02  0.12559470361E+03  0.15105671337E+03  0.00000000000E+00 0.  1.
         11    1    4    4    0    0  0.51767150521E+02 -0.38948909626E+02  0.43750201288E+02  0.78172473076E+02  0.00000000000E+00 0. -1.
        -13    1    3    3    0    0 -0.11367371554E+02 -0.18173563069E+02  0.35812521959E+02  0.41737659969E+02  0.00000000000E+00 0. -1.
         13    1    3    3    0    0  0.59280596489E+02  0.74777406656E+02  0.11567879081E+03  0.14995810185E+03  0.00000000000E+00 0.  1.
         21    1    1    2  503  501 -0.27147065264E+02  0.17891651028E+02  0.41075785367E+02  0.52386014093E+02  0.00000000000E+00 0.  1.
         -2    1    1    2    0  502 -0.14620620421E+03 -0.75751134062E+02 -0.30227497904E+03  0.34421599529E+03  0.00000000000E+00 0.  1.
<scales pt_clust_5="13000.00000" pt_clust_6="13000.00000" pt_clust_7="13000.00000" pt_clust_8="13000.00000" pt_clust_9="32.51268" pt_clust_10="159.73733"></scales>
<clustering>
<clus scale="   32.513">  1  9  2 -1</clus>
<clus scale="   90.175">  5  6 -1 -1</clus>
<clus scale="   91.093">  7  8 -1 -1</clus>
<clus scale="  117.252">  1  7  2 -1</clus>
<clus scale="  159.737">  2 10  1 -1</clus>
<clus scale="  159.737">  2  5  1 -1</clus>
</clustering>
</event>
<event>
10    2  0.3544405E-006  0.1535755E+03  0.7546771E-02  0.1196535E+00
          1   -1    0    0  503    0 -0.00000000000E+00  0.00000000000E+00  0.25979398137E+03  0.25979398137E+03  0.00000000000E+00 0. -1.
         21   -1    0    0  501  502  0.00000000000E+00 -0.00000000000E+00 -0.21372464847E+03  0.21372464847E+03  0.00000000000E+00 0. -1.
         23    2    1    2    0    0  0.65465062765E+02 -0.86812346860E+02  0.11828211062E+03  0.18357917770E+03  0.88817784165E+02 0.  0.
         23    2    1    2    0    0 -0.99856853162E+02  0.14641404638E+03 -0.31266438637E+02  0.20167007219E+03  0.91020677484E+02 0.  0.
        -11    1    3    3    0    0  0.42756068178E+02 -0.21986197686E+02  0.15084574679E+01  0.48101452147E+02  0.00000000000E+00 0. -1.
         11    1    3    3    0    0  0.22708994587E+02 -0.64826149174E+02  0.11677365315E+03  0.13547772556E+03  0.00000000000E+00 0.  1.
        -13    1    4    4    0    0 -0.74457663323E+02  0.87534906921E+02  0.23553016726E+02  0.11730749402E+03  0.00000000000E+00 0.  1.
         13    1    4    4    0    0 -0.25399189839E+02  0.58879139461E+02 -0.54819455363E+02  0.84362578164E+02  0.00000000000E+00 0. -1.
         21    1    1    2  503  502  0.10169566716E+02 -0.27973721760E+02  0.18228910943E+01  0.29820666127E+02  0.00000000000E+00 0. -1.
          1    1    1    2  501    0  0.24222223680E+02 -0.31627977763E+02 -0.42769230178E+02  0.58448713821E+02  0.00000000000E+00 0. -1.
<scales pt_clust_5="13000.00000" pt_clust_6="13000.00000" pt_clust_7="13000.00000" pt_clust_8="13000.00000" pt_clust_9="29.76490" pt_clust_10="47.08657"></scales>
<clustering>
<clus scale="   29.765">  2  9  1 -1</clus>
<clus scale="   47.087">  2 10  1 -1</clus>
<clus scale="   88.818">  5  6 -1 -1</clus>
<clus scale="   91.021">  7  8 -1 -1</clus>
<clus scale="  152.280">  1  5  2 -1</clus>
<clus scale="   29.765">  2  5  1 -1</clus>
</clustering>
</event>
<event>
10    2  0.3544405E-006  0.1928038E+03  0.7546771E-02  0.1156086E+00
         21   -1    0    0  501  502  0.00000000000E+00  0.00000000000E+00  0.18342020152E+03  0.18342020152E+03  0.00000000000E+00 0. -1.
          1   -1    0    0  503    0 -0.00000000000E+00 -0.00000000000E+00 -0.11260662171E+04  0.11260662171E+04  0.00000000000E+00 0. -1.
         23    2    1    2    0    0  0.24074382733E+01 -0.15707845593E+03 -0.61551709846E+03  0.64195563604E+03  0.92554324933E+02 0.  0.
         23    2    1    2    0    0  0.32669058711E+02  0.13843085738E+03 -0.16063873127E+03  0.23318922173E+03  0.91334776903E+02 0.  0.
        -11    1    4    4    0    0 -0.22577741144E+02  0.74928884138E+01 -0.41081590715E+02  0.47472043011E+02  0.00000000000E+00 0. -1.
         11    1    4    4    0    0  0.55246799855E+02  0.13093796897E+03 -0.11955714056E+03  0.18571717872E+03  0.00000000000E+00 0.  1.
        -13    1    3    3    0    0 -0.34216581115E+02 -0.23190232872E+02 -0.18715496230E+03  0.19166518004E+03  0.00000000000E+00 0.  1.
         13    1    3    3    0    0  0.36624019389E+02 -0.13388822306E+03 -0.42836213616E+03  0.45029045600E+03  0.00000000000E+00 0. -1.
         21    1    1    2  503  502 -0.30957945928E+02 -0.47179738595E+02 -0.28940153342E+03  0.29485177580E+03  0.00000000000E+00 0. -1.
          1    1    1    2  501    0 -0.41185510561E+01  0.65827337142E+02  0.12291134756E+03  0.13948978506E+03  0.00000000000E+00 0. -1.
<scales pt_clust_5="13000.00000" pt_clust_6="13000.00000" pt_clust_7="13000.00000" pt_clust_8="13000.00000" pt_clust_9="56.42980" pt_clust_10="65.50809"></scales>
<clustering>
<clus scale="   56.430">  2  9  1 -1</clus>
<clus scale="   65.508">  1 10  2 -1</clus>
<clus scale="   91.335">  5  6 -1 -1</clus>
<clus scale="   92.554">  7  8 -1 -1</clus>
<clus scale="  192.221">  1  5  2 -1</clus>
<clus scale="   65.508">  1  5  2 -1</clus>
</clustering>
</event>
<event>
10    2  0.3544405E-006  0.1322575E+03  0.7546771E-02  0.1224637E+00
          2   -1    0    0  503    0 -0.00000000000E+00  0.00000000000E+00  0.82483591663E+03  0.82483591663E+03  0.00000000000E+00 0. -1.
         21   -1    0    0  501  502  0.00000000000E+00 -0.00000000000E+00 -0.14239214117E+03  0.14239214117E+03  0.00000000000E+00 0. -1.
         23    2    1    2    0    0 -0.77374628000E+02  0.62619754462E+02  0.63491134025E+03  0.64950958055E+03  0.94033071494E+02 0.  0.
         23    2    1    2    0    0  0.37737651755E+02 -0.48567306606E+02  0.46566556142E+02  0.12015609700E+03  0.92120192486E+02 0.  0.
        -13    1    4    4    0    0 -0.28839602175E+02 -0.28338843434E+02  0.10462128339E+02  0.41764444569E+02  0.00000000000E+00 0.  1.
         13    1    4    4    0    0  0.66577253931E+02 -0.20228463171E+02  0.36104427804E+02  0.78391652427E+02  0.00000000000E+00 0. -1.
        -13    1    3    3    0    0 -0.35638115106E+00 -0.21811584103E+02  0.13079821336E+03  0.13260484466E+03  0.00000000000E+00 0.  1.
         13    1    3    3    0    0 -0.77018246849E+02  0.84431338565E+02  0.50411312690E+03  0.51690473589E+03  0.00000000000E+00 0. -1.
         21    1    1    2  503  502  0.78469623289E+02  0.19326026189E+02  0.73187680795E+02  0.10902941662E+03  0.00000000000E+00 0. -1.
          2    1    1    2  501    0 -0.38832647044E+02 -0.33378474045E+02 -0.72221801727E+02  0.88532963640E+02  0.00000000000E+00 0. -1.
<scales pt_clust_5="13000.00000" pt_clust_6="13000.00000" pt_clust_7="13000.00000" pt_clust_8="13000.00000" pt_clust_9="67.94104" pt_clust_10="51.20642"></scales>
<clustering>
<clus scale="   51.206">  2 10  1 -1</clus>
<clus scale="   67.941">  2  9  1 -1</clus>
<clus scale="   92.120">  5  6 -1 -1</clus>
<clus scale="   94.033">  7  8 -1 -1</clus>
<clus scale="  130.904">  2  5  1 -1</clus>
<clus scale="   51.206">  2  5  1 -1</clus>
</clustering>
</event>
<event>
10    2  0.3544405E-006  0.1319878E+03  0.7546771E-02  0.1224601E+00
         -1   -1    0    0    0  501 -0.00000000000E+00  0.00000000000E+00  0.58648020967E+03  0.58648020967E+03  0.00000000000E+00 0.  1.
         21   -1    0    0  503  502  0.00000000000E+00 -0.00000000000E+00 -0.39744237585E+03  0.39744237585E+03  0.00000000000E+00 0.  1.
         23    2    1    2    0    0 -0.19622091503E+02  0.59633305069E+02  0.14509809399E+03  0.18277090765E+03  0.91709270281E+02 0.  0.
         23    2    1    2    0    0  0.39655116650E+02 -0.12004312052E+03  0.31277440056E+03  0.34966911654E+03  0.91966223985E+02 0.  0.
        -11    1    3    3    0    0  0.14543091485E+02  0.46365042472E+02  0.20230421149E+02  0.52635431159E+02  0.00000000000E+00 0. -1.
         11    1    3    3    0    0 -0.34165182988E+02  0.13268262597E+02  0.12486767284E+03  0.13013547649E+03  0.00000000000E+00 0.  1.
        -11    1    4    4    0    0  0.13642399392E+02 -0.98699286797E+02  0.29549903488E+03  0.31184506392E+03  0.00000000000E+00 0.  1.
         11    1    4    4    0    0  0.26012717258E+02 -0.21343833721E+02  0.17275365679E+02  0.37824052617E+02  0.00000000000E+00 0. -1.
         21    1    1    2  503  501  0.31408449200E+02 -0.10643571274E+02  0.82735362792E+02  0.89134261353E+02  0.00000000000E+00 0. -1.
         -1    1    1    2    0  502 -0.51441474347E+02  0.71053386723E+02 -0.35157002353E+03  0.36234829997E+03  0.00000000000E+00 0.  1.
<scales pt_clust_5="13000.00000" pt_clust_6="13000.00000" pt_clust_7="13000.00000" pt_clust_8="13000.00000" pt_clust_9="33.16288" pt_clust_10="87.42918"></scales>
<clustering>
<clus scale="   33.163">  1  9  2 -1</clus>
<clus scale="   87.429">  2 10  1 -1</clus>
<clus scale="   91.709">  5  6 -1 -1</clus>
<clus scale="   91.966">  7  8 -1 -1</clus>
<clus scale="  131.809">  1  5  2 -1</clus>
<clus scale="   87.429">  2  5  1 -1</clus>
</clustering>
</event>
<event>
10    2  0.3544405E-006  0.1605206E+03  0.7546771E-02  0.1202936E+00
         21   -1    0    0  501  502  0.00000000000E+00  0.00000000000E+00  0.65890258705E+03  0.65890258705E+03  0.00000000000E+00 0. -1.
          3   -1    0    0  503    0 -0.00000000000E+00 -0.00000000000E+00 -0.20028490464E+03  0.20028490464E+03  0.00000000000E+00 0. -1.
         23    2    1    2    0    0  0.22380509597E+02  0.74837638458E+02  0.23089878618E+02  0.12302012776E+03  0.92191377038E+02 0.  0.
         23    2    1    2    0    0 -0.21253512994E+02 -0.17698819731E+03  0.35611222718E+02  0.20368272125E+03  0.91880128168E+02 0.  0.
        -11    1    4    4    0    0 -0.34404073731E+02 -0.30645251274E+02  0.33096220339E+02  0.56728577593E+02  0.00000000000E+00 0.  1.
         11    1    4    4    0    0  0.13150560737E+02 -0.14634294603E+03  0.25150023791E+01  0.14695414366E+03  0.00000000000E+00 0. -1.
        -13    1    3    3    0    0  0.34943138829E+02 -0.80364085926E+01 -0.79007632757E+00  0.35864063280E+02  0.00000000000E+00 0.  1.
         13    1    3    3    0    0 -0.12562629232E+02  0.82874047051E+02  0.23879954945E+02  0.87156064482E+02  0.00000000000E+00 0. -1.
         21    1    1    2  503  502  0.52091542401E+01 -0.24715970214E+02 -0.54809646110E+02  0.60349911170E+02  0.00000000000E+00 0. -1.
          3    1    1    2  501    0 -0.63361508433E+01  0.12686652906E+03  0.45472622718E+03  0.47213473151E+03  0.00000000000E+00 0. -1.
<scales pt_clust_5="13000.00000" pt_clust_6="13000.00000" pt_clust_7="13000.00000" pt_clust_8="13000.00000" pt_clust_9="25.25895" pt_clust_10="131.62411"></scales>
<clustering>
<clus scale="   25.259">  2  9  1 -1</clus>
<clus scale="   91.880">  5  6 -1 -1</clus>
<clus scale="   92.191">  7  8 -1 -1</clus>
<clus scale="  116.041">  2  7  1 -1</clus>
<clus scale="  131.624">  1 10  2 -1</clus>
<clus scale="  131.624">  1  5  2 -1</clus>
</clustering>
</event>
<event>
10    2  0.3544405E-006  0.9675273E+02  0.7546771E-02  0.1288226E+00
         21   -1    0    0  503  502  0.00000000000E+00  0.00000000000E+00  0.37042546373E+03  0.37042546373E+03  0.00000000000E+00 0.  1.
         -1   -1    0    0    0  501 -0.00000000000E+00 -0.00000000000E+00 -0.39719001503E+03  0.39719001503E+03  0.00000000000E+00 0.  1.
         23    2    1    2    0    0 -0.29613395789E+02  0.42512570484E+02 -0.25208942145E+03  0.27268329235E+03  0.90126742201E+02 0.  0.
         23    2    1    2    0    0  0.92601414891E+01  0.16811841177E+02 -0.43511297196E+02  0.10350268487E+03  0.91930324529E+02 0.  0.
        -11    1    3    3    0    0 -0.59619787074E+01  0.57366052963E+02 -0.22986744419E+03  0.23699251280E+03  0.00000000000E+00 0.  1.
         11    1    3    3    0    0 -0.23651417081E+02 -0.14853482479E+02 -0.22221977259E+02  0.35690779552E+02  0.00000000000E+00 0. -1.
        -11    1    4    4    0    0  0.12960450039E+02  0.51269477255E+02 -0.73062911571E+01  0.53384590039E+02  0.00000000000E+00 0.  1.
         11    1    4    4    0    0 -0.37003085502E+01 -0.34457636078E+02 -0.36205006039E+02  0.50118094833E+02  0.00000000000E+00 0. -1.
         21    1    1    2  503  501 -0.45220296875E+01 -0.22925134114E+02 -0.57532425294E+02  0.62096622185E+02  0.00000000000E+00 0. -1.
         -1    1    1    2    0  502  0.24875283987E+02 -0.36399277547E+02  0.32636859264E+03  0.32933287935E+03  0.00000000000E+00 0.  1.
<scales pt_clust_5="13000.00000" pt_clust_6="13000.00000" pt_clust_7="13000.00000" pt_clust_8="13000.00000" pt_clust_9="23.36687" pt_clust_10="44.15927"></scales>
<clustering>
<clus scale="   23.367">  2  9  1 -1</clus>
<clus scale="   44.159">  1 10  2 -1</clus>
<clus scale="   90.127">  5  6 -1 -1</clus>
<clus scale="   91.930">  7  8 -1 -1</clus>
<clus scale="   95.041">  2  5  1 -1</clus>
<clus scale="   44.159">  1  5  2 -1</clus>
</clustering>
</event>
<event>
10    2  0.3544405E-006  0.9475009E+02  0.7546771E-02  0.1294432E+00
         21   -1    0    0  501  502  0.00000000000E+00  0.00000000000E+00  0.68659091199E+02  0.68659091199E+02  0.00000000000E+00 0. -1.
          3   -1    0    0  503    0 -0.00000000000E+00 -0.00000000000E+00 -0.36766177217E+03  0.36766177217E+03  0.00000000000E+00 0. -1.
         23    2    1    2    0    0 -0.28013434554E+02 -0.17476132550E+02 -0.16775819164E+03  0.19481505152E+03  0.93380542474E+02 0.  0.
         23    2    1    2    0    0  0.86850261321E+01 -0.14440105105E+02 -0.19567612634E+01  0.90281086473E+02  0.88672991072E+02 0.  0.
        -11    1    3    3    0    0  0.29671719289E+02 -0.15035065842E+02 -0.10210059244E+03  0.10738247113E+03  0.00000000000E+00 0. -1.
         11    1    3    3    0    0 -0.57685153843E+02 -0.24410667077E+01 -0.65657599205E+02  0.87432580392E+02  0.00000000000E+00 0.  1.
        -13    1    4    4    0    0  0.20440878820E+02  0.34403607171E+02 -0.12567088192E+01  0.40037695118E+02  0.00000000000E+00 0.  1.
         13    1    4    4    0    0 -0.11755852688E+02 -0.48843712277E+02 -0.70005244412E+00  0.50243391355E+02  0.00000000000E+00 0. -1.
         21    1    1    2  503  502  0.31712021610E+02 -0.70632636299E+01 -0.31606357731E+02  0.45326635180E+02  0.00000000000E+00 0. -1.
          3    1    1    2  501    0 -0.12383613187E+02  0.38979501285E+02 -0.97681370341E+02  0.10589809020E+03  0.00000000000E+00 0. -1.
<scales pt_clust_5="13000.00000" pt_clust_6="13000.00000" pt_clust_7="13000.00000" pt_clust_8="13000.00000" pt_clust_9="32.48911" pt_clust_10="36.88571"></scales>
<clustering>
<clus scale="   32.489">  2  9  1 -1</clus>
<clus scale="   36.886">  1 10  2 -1</clus>
<clus scale="   88.673">  7  8 -1 -1</clus>
<clus scale="   90.114">  1  7  2 -1</clus>
<clus scale="   93.381">  5  6 -1 -1</clus>
<clus scale="   36.886">  1  5  2 -1</clus>
</clustering>
</event>
<event>
10    2  0.3544405E-006  0.1114043E+03  0.7546771E-02  0.1258494E+00
          2   -1    0    0  503    0 -0.00000000000E+00  0.00000000000E+00  0.48678632391E+03  0.48678632391E+03  0.00000000000E+00 0. -1.
         21   -1    0    0  501  502  0.00000000000E+00 -0.00000000000E+00 -0.10718927146E+03  0.10718927146E+03  0.00000000000E+00 0. -1.
         23    2    1    2    0    0 -0.48110298652E+02  0.48871540257E+02  0.14919393734E+03  0.18690949248E+03  0.89293332101E+02 0.  0.
         23    2    1    2    0    0  0.38521993409E+02 -0.56382460445E+02  0.77783893226E+02  0.13758689782E+03  0.90647088122E+02 0.  0.
        -11    1    4    4    0    0  0.56371319967E+01  0.20002362221E+02  0.42381270736E+02  0.47202159493E+02  0.00000000000E+00 0. -1.
         11    1    4    4    0    0  0.32884861412E+02 -0.76384822666E+02  0.35402622490E+02  0.90384738330E+02  0.00000000000E+00 0.  1.
        -13    1    3    3    0    0 -0.31382033738E+02 -0.22548192094E+02  0.60840251397E+02  0.72074886044E+02  0.00000000000E+00 0.  1.
         13    1    3    3    0    0 -0.16728264915E+02  0.71419732351E+02  0.88353685939E+02  0.11483460644E+03  0.00000000000E+00 0. -1.
         21    1    1    2  503  502  0.31132513937E+02  0.62572399241E+01  0.20780843288E+03  0.21022067275E+03  0.00000000000E+00 0.  1.
          2    1    1    2  501    0 -0.21544208694E+02  0.12536802639E+01 -0.55189210990E+02  0.59258532315E+02  0.00000000000E+00 0. -1.
<scales pt_clust_5="13000.00000" pt_clust_6="13000.00000" pt_clust_7="13000.00000" pt_clust_8="13000.00000" pt_clust_9="31.25148" pt_clust_10="21.58065"></scales>
<clustering>
<clus scale="   21.581">  2 10  1 -1</clus>
<clus scale="   31.251">  1  9  2 -1</clus>
<clus scale="   89.293">  7  8 -1 -1</clus>
<clus scale="   90.647">  5  6 -1 -1</clus>
<clus scale="  110.306">  1  7  2 -1</clus>
<clus scale="   21.581">  2  5  1 -1</clus>
</clustering>
</event>
<event>
10    2  0.3544405E-006  0.1186019E+03  0.7546771E-02  0.1245580E+00
          2   -1    0    0  503    0 -0.00000000000E+00  0.00000000000E+00  0.31779109775E+03  0.31779109775E+03  0.00000000000E+00 0. -1.
         21   -1    0    0  501  502  0.00000000000E+00 -0.00000000000E+00 -0.93054518418E+03  0.93054518418E+03  0.00000000000E+00 0. -1.
         23    2    1    2    0    0 -0.94765123685E+02  0.12880630819E+02  0.73638406913E+02  0.15117205059E+03  0.91016672047E+02 0.  0.
         23    2    1    2    0    0  0.28858546831E+02 -0.76274441232E+02  0.72067725759E+02  0.14155891750E+03  0.90523830658E+02 0.  0.
        -11    1    4    4    0    0  0.47514204911E+02 -0.95537202750E+01  0.48015073960E+02  0.68222581062E+02  0.00000000000E+00 0. -1.
         11    1    4    4    0    0 -0.18655658080E+02 -0.66720720957E+02  0.24052651799E+02  0.73336336437E+02  0.00000000000E+00 0.  1.
        -13    1    3    3    0    0 -0.42151593752E+02  0.18524471302E+02 -0.14584143601E+02  0.48297102785E+02  0.00000000000E+00 0.  1.
         13    1    3    3    0    0 -0.52613529933E+02 -0.56438404830E+01  0.88222550513E+02  0.10287494781E+03  0.00000000000E+00 0. -1.
         21    1    1    2  503  502 -0.47335392850E+01 -0.31824194907E+02  0.91719286099E+02  0.97198833420E+02  0.00000000000E+00 0. -1.
          2    1    1    2  501    0  0.70640116139E+02  0.95218005320E+02 -0.85017950521E+03  0.85840648042E+03  0.00000000000E+00 0. -1.
<scales pt_clust_5="13000.00000" pt_clust_6="13000.00000" pt_clust_7="13000.00000" pt_clust_8="13000.00000" pt_clust_9="32.17430" pt_clust_10="118.03771"></scales>
<clustering>
<clus scale="   32.174">  1  9  2 -1</clus>
<clus scale="   90.524">  5  6 -1 -1</clus>
<clus scale="   91.017">  7  8 -1 -1</clus>
<clus scale="  118.038">  2 10  1 -1</clus>
<clus scale="  118.224">  2  5  1 -1</clus>
<clus scale="  118.038">  2  5  1 -1</clus>
</clustering>
</event>
<event>
10    2  0.3544405E-006  0.1265254E+03  0.7546771E-02  0.1233088E+00
         21   -1    0    0  501  502  0.00000000000E+00  0.00000000000E+00  0.29195616261E+03  0.29195616261E+03  0.00000000000E+00 0.  1.
          1   -1    0    0  503    0 -0.00000000000E+00 -0.00000000000E+00 -0.31844405617E+03  0.31844405617E+03  0.00000000000E+00 0. -1.
         23    2    1    2    0    0 -0.67236695214E+02 -0.30395299694E+02 -0.16581976921E+03  0.20303706800E+03  0.91012129381E+02 0.  0.
         23    2    1    2    0    0  0.69192678532E+02  0.10192320628E+03 -0.18856332046E+02  0.15512948455E+03  0.92377643279E+02 0.  0.
        -11    1    3    3    0    0 -0.43254922372E+01 -0.50107597749E+02 -0.59185401407E+02  0.77668481220E+02  0.00000000000E+00 0.  1.
         11    1    3    3    0    0 -0.62911202977E+02  0.19712298054E+02 -0.10663436781E+03  0.12536858678E+03  0.00000000000E+00 0. -1.
        -13    1    4    4    0    0  0.38210085538E+02  0.43066865843E+02  0.36861063348E+02  0.68363027738E+02  0.00000000000E+00 0. -1.
         13    1    4    4    0    0  0.30982592994E+02  0.58856340441E+02 -0.55717395394E+02  0.86766456815E+02  0.00000000000E+00 0.  1.
         21    1    1    2  503  502  0.18761575811E+02 -0.30376511965E+02 -0.37156171276E+02  0.51529702793E+02  0.00000000000E+00 0.  1.
          1    1    1    2  501    0 -0.20717559129E+02 -0.41151394626E+02  0.19534437898E+03  0.20070396342E+03  0.00000000000E+00 0. -1.
<scales pt_clust_5="13000.00000" pt_clust_6="13000.00000" pt_clust_7="13000.00000" pt_clust_8="13000.00000" pt_clust_9="35.70335" pt_clust_10="46.25601"></scales>
<clustering>
<clus scale="   35.703">  2  9  1 -1</clus>
<clus scale="   46.256">  1 10  2 -1</clus>
<clus scale="   91.012">  5  6 -1 -1</clus>
<clus scale="   92.378">  7  8 -1 -1</clus>
<clus scale="  125.532">  2  5  1 -1</clus>
<clus scale="   46.256">  1  5  2 -1</clus>
</clustering>
</event>
<event>
10    2  0.3544405E-006  0.1322105E+03  0.7546771E-02  0.1226467E+00
          1   -1    0    0  503    0 -0.00000000000E+00  0.00000000000E+00  0.87140268876E+03  0.87140268876E+03  0.00000000000E+00 0. -1.
         21   -1    0    0  501  502  0.00000000000E+00 -0.00000000000E+00 -0.80378719178E+02  0.80378719178E+02  0.00000000000E+00 0. -1.
         23    2    1    2    0    0 -0.19414528245E+01 -0.11047263382E+03  0.47800464657E+03  0.49729606598E+03  0.81283227243E+02 0.  0.
         23    2    1    2    0    0 -0.11958585161E+03  0.62441821452E+02  0.12405322202E+03  0.20435674939E+03  0.90403109224E+02 0.  0.
        -11    1    4    4    0    0 -0.14216399665E+02  0.34551826918E+02 -0.23652447920E+01  0.37437002361E+02  0.00000000000E+00 0.  1.
         11    1    4    4    0    0 -0.10536945194E+03  0.27889994534E+02  0.12641846681E+03  0.16691974703E+03  0.00000000000E+00 0. -1.
        -13    1    3    3    0    0  0.25342028509E+02 -0.51411987197E+02  0.11483488507E+03  0.12834508820E+03  0.00000000000E+00 0.  1.
         13    1    3    3    0    0 -0.27283481334E+02 -0.59060646628E+02  0.36316976150E+03  0.36895097778E+03  0.00000000000E+00 0. -1.
         21    1    1    2  503  502  0.10312359680E+02  0.17786674878E+02  0.10635912171E+03  0.10832808193E+03  0.00000000000E+00 0. -1.
          1    1    1    2  501    0  0.11121494475E+03  0.30244137495E+02  0.82606979289E+02  0.14180051064E+03  0.00000000000E+00 0. -1.
<scales pt_clust_5="13000.00000" pt_clust_6="13000.00000" pt_clust_7="13000.00000" pt_clust_8="13000.00000" pt_clust_9="20.55993" pt_clust_10="117.41989"></scales>
<clustering>
<clus scale="   20.560">  1  9  2 -1</clus>
<clus scale="   81.283">  7  8 -1 -1</clus>
<clus scale="   90.403">  5  6 -1 -1</clus>
<clus scale="  117.420">  2 10  1 -1</clus>
<clus scale="  126.150">  1  7  2 -1</clus>
<clus scale="  117.420">  2  5  1 -1</clus>
</clustering>
</event>
<event>
10    2  0.3544405E-006  0.9759003E+02  0.7546771E-02  0.1287657E+00
         -1   -1    0    0    0  501 -0.00000000000E+00  0.00000000000E+00  0.36807162628E+03  0.36807162628E+03  0.00000000000E+00 0.  1.
         21   -1    0    0  503  502  0.00000000000E+00 -0.00000000000E+00 -0.34045223580E+03  0.34045223580E+03  0.00000000000E+00 0.  1.
         23    2    1    2    0    0  0.33185762692E+02  0.48544493609E+02  0.22273395910E+03  0.24722963922E+03  0.89745279917E+02 0.  0.
         23    2    1    2    0    0  0.57317612921E+01  0.42706152658E+02 -0.22352494192E+03  0.24624138816E+03  0.93886916122E+02 0.  0.
        -13    1    4    4    0    0  0.25376582668E+02 -0.21048857193E+02 -0.46001661036E+02  0.56596626712E+02  0.00000000000E+00 0. -1.
         13    1    4    4    0    0 -0.19644821376E+02  0.63755009851E+02 -0.17752328089E+03  0.18964476145E+03  0.00000000000E+00 0.  1.
        -13    1    3    3    0    0  0.21141070910E+02 -0.24463023021E+02  0.53249757222E+02  0.62297038603E+02  0.00000000000E+00 0. -1.
         13    1    3    3    0    0  0.12044691782E+02  0.73007516630E+02  0.16948420187E+03  0.18493260061E+03  0.00000000000E+00 0.  1.
         21    1    1    2  503  501 -0.26375065512E+02 -0.21730606015E+02  0.10525960745E+03  0.11066819001E+03  0.00000000000E+00 0.  1.
         -1    1    1    2    0  502 -0.12542458472E+02 -0.69520040252E+02 -0.76849234141E+02  0.10438464470E+03  0.00000000000E+00 0.  1.
<scales pt_clust_5="13000.00000" pt_clust_6="13000.00000" pt_clust_7="13000.00000" pt_clust_8="13000.00000" pt_clust_9="34.17402" pt_clust_10="72.03171"></scales>
<clustering>
<clus scale="   34.174">  1  9  2 -1</clus>
<clus scale="   72.032">  2 10  1 -1</clus>
<clus scale="   89.745">  7  8 -1 -1</clus>
<clus scale="   93.612">  1  7  2 -1</clus>
<clus scale="   93.887">  5  6 -1 -1</clus>
<clus scale="   72.032">  2  5  1 -1</clus>
</clustering>
</event>
<event>
10    2  0.3544405E-006  0.1013064E+03  0.7546771E-02  0.1280020E+00
         21   -1    0    0  501  502  0.00000000000E+00  0.00000000000E+00  0.14005255876E+03  0.14005255876E+03  0.00000000000E+00 0. -1.
          1   -1    0    0  503    0 -0.00000000000E+00 -0.00000000000E+00 -0.17536422209E+03  0.17536422209E+03  0.00000000000E+00 0. -1.
         23    2    1    2    0    0  0.35286219141E+01 -0.55038428710E+02 -0.90193318067E+02  0.14098170926E+03  0.93270187701E+02 0.  0.
         23    2    1    2    0    0 -0.34223829441E+02  0.16444688857E+02  0.42719690048E+02  0.10512617582E+03  0.88231755234E+02 0.  0.
        -11    1    4    4    0    0 -0.19034570464E+02 -0.34966187171E+02  0.30478152353E+02  0.50138477129E+02  0.00000000000E+00 0.  1.
         11    1    4    4    0    0 -0.15189258977E+02  0.51410876028E+02  0.12241537695E+02  0.54987698691E+02  0.00000000000E+00 0. -1.
        -13    1    3    3    0    0 -0.43110650717E+02 -0.37522814593E+02 -0.59309906383E+02  0.82365980935E+02  0.00000000000E+00 0. -1.
         13    1    3    3    0    0  0.46639272631E+02 -0.17515614116E+02 -0.30883411684E+02  0.58615728322E+02  0.00000000000E+00 0.  1.
         21    1    1    2  503  502  0.11840741598E+02  0.18643390895E+02 -0.18024915374E+02  0.28507486033E+02  0.00000000000E+00 0. -1.
          1    1    1    2  501    0  0.18854465929E+02  0.19950348957E+02  0.30186880060E+02  0.40801409740E+02  0.00000000000E+00 0. -1.
<scales pt_clust_5="13000.00000" pt_clust_6="13000.00000" pt_clust_7="13000.00000" pt_clust_8="13000.00000" pt_clust_9="22.08572" pt_clust_10="28.20706"></scales>
<clustering>
<clus scale="   22.086">  2  9  1 -1</clus>
<clus scale="   28.207">  1 10  2 -1</clus>
<clus scale="   88.232">  5  6 -1 -1</clus>
<clus scale="   93.270">  7  8 -1 -1</clus>
<clus scale="   96.688">  1  5  2 -1</clus>
<clus scale="   28.207">  1  5  2 -1</clus>
</clustering>
</event>
<event>
10    2  0.5443142E-006  0.8902593E+02  0.7546771E-02  0.1329706E+00
         21   -1    0    0  501  502  0.00000000000E+00  0.00000000000E+00  0.28428338011E+02  0.28428338011E+02  0.00000000000E+00 0.  1.
          1   -1    0    0  503    0 -0.00000000000E+00 -0.00000000000E+00 -0.33643291025E+03  0.33643291025E+03  0.00000000000E+00 0. -1.
         23    2    1    2    0    0  0.37826878432E+01  0.54195742663E+01 -0.11282826060E+03  0.12674999820E+03  0.57373034961E+02 0.  0.
         23    2    1    2    0    0  0.74241082914E+01  0.21473197296E+00 -0.13211792907E+03  0.15948175358E+03  0.89017521023E+02 0.  0.
        -13    1    4    4    0    0 -0.35580600369E+02 -0.14181428006E+02 -0.33298945347E+02  0.50753441106E+02  0.00000000000E+00 0.  1.
         13    1    4    4    0    0  0.43004708660E+02  0.14396159979E+02 -0.98818983727E+02  0.10872831248E+03  0.00000000000E+00 0. -1.
        -13    1    3    3    0    0  0.51624599385E+01  0.27318685471E+02 -0.29314577823E+02  0.40401807403E+02  0.00000000000E+00 0. -1.
         13    1    3    3    0    0 -0.13797720953E+01 -0.21899111205E+02 -0.83513682776E+02  0.86348190794E+02  0.00000000000E+00 0.  1.
         21    1    1    2  503  502 -0.16968654928E+01 -0.23979217065E+02 -0.45723784102E+02  0.51657977469E+02  0.00000000000E+00 0. -1.
          1    1    1    2  501    0 -0.95099306418E+01  0.18344910826E+02 -0.17334598465E+02  0.26971519015E+02  0.00000000000E+00 0. -1.
<scales pt_clust_5="13000.00000" pt_clust_6="13000.00000" pt_clust_7="13000.00000" pt_clust_8="13000.00000" pt_clust_9="21.86587" pt_clust_10="20.66336"></scales>
<clustering>
<clus scale="   20.663">  1 10  2 -1</clus>
<clus scale="   21.866">  2  9  1 -1</clus>
<clus scale="   57.373">  7  8 -1 -1</clus>
<clus scale="   57.386">  2  7  1 -1</clus>
<clus scale="   89.018">  5  6 -1 -1</clus>
<clus scale="   20.663">  1  5  2 -1</clus>
</clustering>
</event>
<event>
10    2  0.3544405E-006  0.9765938E+02  0.7546771E-02  0.1286475E+00
         -1   -1    0    0    0  501 -0.00000000000E+00  0.00000000000E+00  0.11711516733E+03  0.11711516733E+03  0.00000000000E+00 0.  1.
         21   -1    0    0  503  502  0.00000000000E+00 -0.00000000000E+00 -0.31058967011E+03  0.31058967011E+03  0.00000000000E+00 0.  1.
         23    2    1    2    0    0 -0.50647683402E+02  0.32708588184E+02  0.37983551553E+02  0.11453001934E+03  0.89662341963E+02 0.  0.
         23    2    1    2    0    0 -0.20132845137E+02 -0.43207296370E+02 -0.11365495071E+03  0.15376435513E+03  0.91944696282E+02 0.  0.
        -13    1    4    4    0    0 -0.14540510845E+02  0.26013348077E+02 -0.56278757442E+02  0.63682173903E+02  0.00000000000E+00 0. -1.
         13    1    4    4    0    0 -0.55923342925E+01 -0.69220644447E+02 -0.57376193266E+02  0.90082181225E+02  0.00000000000E+00 0.  1.
        -13    1    3    3    0    0  0.20624547346E+02  0.29595511721E+02  0.18687953651E+02  0.40626418485E+02  0.00000000000E+00 0. -1.
         13    1    3    3    0    0 -0.71272230748E+02  0.31130764634E+01  0.19295597902E+02  0.73903600855E+02  0.00000000000E+00 0.  1.
         21    1    1    2  503  501  0.42477539776E+02 -0.83578222155E+01 -0.74406893024E+01  0.43926739407E+02  0.00000000000E+00 0.  1.
         -1    1    1    2    0  502  0.28302988763E+02  0.18856530402E+02 -0.11036241433E+03  0.11548372357E+03  0.00000000000E+00 0.  1.
<scales pt_clust_5="13000.00000" pt_clust_6="13000.00000" pt_clust_7="13000.00000" pt_clust_8="13000.00000" pt_clust_9="46.53162" pt_clust_10="34.00923"></scales>
<clustering>
<clus scale="   34.009">  2 10  1 -1</clus>
<clus scale="   46.532">  1  9  2 -1</clus>
<clus scale="   89.662">  7  8 -1 -1</clus>
<clus scale="   91.945">  5  6 -1 -1</clus>
<clus scale="   95.514">  1  7  2 -1</clus>
<clus scale="   34.009">  2  5  1 -1</clus>
</clustering>
</event>
<event>
10    2  0.3544405E-006  0.1753182E+03  0.7546771E-02  0.1176069E+00
         21   -1    0    0  501  502  0.00000000000E+00  0.00000000000E+00  0.97966346953E+03  0.97966346953E+03  0.00000000000E+00 0.  1.
          1   -1    0    0  503    0 -0.00000000000E+00 -0.00000000000E+00 -0.11774395987E+03  0.11774395987E+03  0.00000000000E+00 0. -1.
         23    2    1    2    0    0 -0.91924536565E+01  0.12963128795E+03 -0.65835962957E+00  0.15896409071E+03  0.91544397303E+02 0.  0.
         23    2    1    2    0    0  0.74850280231E+01 -0.14044778172E+03  0.76954412460E+03  0.79060872879E+03  0.11437830783E+03 0.  0.
        -13    1    4    4    0    0 -0.33994974916E+02 -0.13524279064E+03  0.58601639874E+03  0.60237985552E+03  0.00000000000E+00 0.  1.
         13    1    4    4    0    0  0.41480002939E+02 -0.52049910857E+01  0.18352772586E+03  0.18822887327E+03  0.00000000000E+00 0. -1.
        -13    1    3    3    0    0  0.31083695038E+02  0.10859325624E+03 -0.65494466655E+01  0.11314409684E+03  0.00000000000E+00 0. -1.
         13    1    3    3    0    0 -0.40276148694E+02  0.21038031714E+02  0.58910870360E+01  0.45819993873E+02  0.00000000000E+00 0.  1.
         21    1    1    2  503  502 -0.20425058331E+02 -0.21984659217E+00 -0.22088723733E+02  0.30085595499E+02  0.00000000000E+00 0.  1.
          1    1    1    2  501    0  0.22132483965E+02  0.11036340360E+02  0.11512246843E+03  0.11774901440E+03  0.00000000000E+00 0. -1.
<scales pt_clust_5="13000.00000" pt_clust_6="13000.00000" pt_clust_7="13000.00000" pt_clust_8="13000.00000" pt_clust_9="20.42624" pt_clust_10="24.46854"></scales>
<clustering>
<clus scale="   20.426">  2  9  1 -1</clus>
<clus scale="   24.469">  1 10  2 -1</clus>
<clus scale="   91.544">  7  8 -1 -1</clus>
<clus scale="  114.378">  5  6 -1 -1</clus>
<clus scale="  161.352">  2  7  1 -1</clus>
<clus scale="   24.469">  1  5  2 -1</clus>
</clustering>
</event>
<event>
10    2  0.3544405E-006  0.1012828E+03  0.7546771E-02  0.1278137E+00
         21   -1    0    0  501  502  0.00000000000E+00  0.00000000000E+00  0.17040422891E+03  0.17040422891E+03  0.00000000000E+00 0. -1.
          3   -1    0    0  503    0 -0.00000000000E+00 -0.00000000000E+00 -0.16903979701E+03  0.16903979701E+03  0.00000000000E+00 0. -1.
         23    2    1    2    0    0 -0.98741689366E+01  0.16196424057E+02 -0.25949924791E+01  0.93956030459E+02  0.91984663446E+02 0.  0.
         23    2    1    2    0    0  0.66139899863E+02 -0.15582802347E+02 -0.15763787519E+02  0.11630573628E+03  0.93065660759E+02 0.  0.
        -11    1    3    3    0    0  0.30886699739E+02  0.11216353017E+02  0.27658428441E+02  0.42950942476E+02  0.00000000000E+00 0. -1.
         11    1    3    3    0    0 -0.40760868676E+02  0.49800710399E+01 -0.30253420920E+02  0.51005087983E+02  0.00000000000E+00 0.  1.
        -13    1    4    4    0    0  0.84668749597E+02 -0.24292243091E+01  0.59023391157E+01  0.84908985957E+02  0.00000000000E+00 0. -1.
         13    1    4    4    0    0 -0.18528849735E+02 -0.13153578038E+02 -0.21666126634E+02  0.31396750326E+02  0.00000000000E+00 0.  1.
         21    1    1    2  503  502  0.35689215978E+02 -0.12223832675E+01  0.56992072201E+01  0.36162070196E+02  0.00000000000E+00 0. -1.
          3    1    1    2  501    0 -0.91954946904E+02  0.60876155806E+00  0.14024004676E+02  0.93020188980E+02  0.00000000000E+00 0. -1.
<scales pt_clust_5="13000.00000" pt_clust_6="13000.00000" pt_clust_7="13000.00000" pt_clust_8="13000.00000" pt_clust_9="35.71014" pt_clust_10="79.17587"></scales>
<clustering>
<clus scale="   35.710">  1  9  2 -1</clus>
<clus scale="   79.176">  1 10  2 -1</clus>
<clus scale="   91.985">  5  6 -1 -1</clus>
<clus scale="   93.066">  7  8 -1 -1</clus>
<clus scale="  100.290">  2  5  1 -1</clus>
<clus scale="   35.710">  1  5  2 -1</clus>
</clustering>
</event>
<event>
10    2  0.3544405E-006  0.1130396E+03  0.7546771E-02  0.1255368E+00
          1   -1    0    0  503    0 -0.00000000000E+00  0.00000000000E+00  0.93404089841E+03  0.93404089841E+03  0.00000000000E+00 0. -1.
         21   -1    0    0  501  502  0.00000000000E+00 -0.00000000000E+00 -0.57396019622E+02  0.57396019622E+02  0.00000000000E+00 0. -1.
         23    2    1    2    0    0  0.33391930445E+02  0.93242875085E+02  0.38212980046E+03  0.40561743832E+03  0.93236618867E+02 0.  0.
         23    2    1    2    0    0  0.50446548059E+02 -0.19353127978E+02  0.50050008727E+02  0.11812480394E+03  0.92352954246E+02 0.  0.
        -11    1    4    4    0    0  0.10409899919E+02 -0.51800407431E+02  0.38329345567E+02  0.65274703813E+02  0.00000000000E+00 0.  1.
         11    1    4    4    0    0  0.40036648140E+02  0.32447279453E+02  0.11720663160E+02  0.52850100124E+02  0.00000000000E+00 0. -1.
        -13    1    3    3    0    0 -0.29630536996E+02  0.10804964068E+02  0.72533718621E+02  0.79093971377E+02  0.00000000000E+00 0.  1.
         13    1    3    3    0    0  0.63022467442E+02  0.82437911017E+02  0.30959608184E+03  0.32652346694E+03  0.00000000000E+00 0. -1.
         21    1    1    2  503  502 -0.18363281211E+01 -0.32688849261E+02  0.25587695313E+03  0.25796307509E+03  0.00000000000E+00 0. -1.
          1    1    1    2  501    0 -0.82002150383E+02 -0.41200897845E+02  0.18858811647E+03  0.20973160068E+03  0.00000000000E+00 0. -1.
<scales pt_clust_5="13000.00000" pt_clust_6="13000.00000" pt_clust_7="13000.00000" pt_clust_8="13000.00000" pt_clust_9="32.74039" pt_clust_10="96.93017"></scales>
<clustering>
<clus scale="   32.740">  1  9  2 -1</clus>
<clus scale="   92.353">  5  6 -1 -1</clus>
<clus scale="   93.237">  7  8 -1 -1</clus>
<clus scale="   96.930">  2 10  1 -1</clus>
<clus scale="  112.312">  2  5  1 -1</clus>
<clus scale="   96.930">  2  5  1 -1</clus>
</clustering>
</event>
<event>
10    2  0.3544405E-006  0.9131439E+02  0.7546771E-02  0.1300335E+00
         -1   -1    0    0    0  501 -0.00000000000E+00  0.00000000000E+00  0.29770020271E+03  0.29770020271E+03  0.00000000000E+00 0.  1.
         21   -1    0    0  503  502  0.00000000000E+00 -0.00000000000E+00 -0.11062391271E+03  0.11062391271E+03  0.00000000000E+00 0. -1.
         23    2    1    2    0    0  0.98416010373E+01  0.21447517177E+02  0.56501936838E+02  0.10876824248E+03  0.89895542723E+02 0.  0.
         23    2    1    2    0    0  0.22984847673E+02 -0.34157670329E+01 -0.21401124792E+02  0.96291867908E+02  0.90962327344E+02 0.  0.
        -11    1    3    3    0    0  0.44271736236E+02 -0.71399634853E+01  0.42739360841E+02  0.61948516310E+02  0.00000000000E+00 0. -1.
         11    1    3    3    0    0 -0.34430135199E+02  0.28587480663E+02  0.13762575997E+02  0.46819726169E+02  0.00000000000E+00 0.  1.
        -13    1    4    4    0    0  0.21693053682E+02 -0.39853397828E+02 -0.35075619407E+02  0.57351381616E+02  0.00000000000E+00 0.  1.
         13    1    4    4    0    0  0.12917939915E+01  0.36437630795E+02  0.13674494615E+02  0.38940486292E+02  0.00000000000E+00 0. -1.
         21    1    1    2  503  501 -0.89272412733E+01 -0.23885588712E+02  0.17054302306E+03  0.17243879987E+03  0.00000000000E+00 0.  1.
         -1    1    1    2    0  502 -0.23899207437E+02  0.58538385679E+01 -0.18567545108E+02  0.30825205165E+02  0.00000000000E+00 0.  1.
<scales pt_clust_5="13000.00000" pt_clust_6="13000.00000" pt_clust_7="13000.00000" pt_clust_8="13000.00000" pt_clust_9="25.53259" pt_clust_10="24.60568"></scales>
<clustering>
<clus scale="   24.606">  2 10  1 -1</clus>
<clus scale="   25.533">  1  9  2 -1</clus>
<clus scale="   89.896">  5  6 -1 -1</clus>
<clus scale="   90.252">  1  5  2 -1</clus>
<clus scale="   90.962">  7  8 -1 -1</clus>
<clus scale="   24.606">  2  5  1 -1</clus>
</clustering>
</event>
<event>
10    2  0.3544405E-006  0.1216768E+03  0.7546771E-02  0.1241274E+00
          1   -1    0    0  503    0 -0.00000000000E+00  0.00000000000E+00  0.10544488199E+04  0.10544488199E+04  0.00000000000E+00 0. -1.
         21   -1    0    0  501  502  0.00000000000E+00 -0.00000000000E+00 -0.81609965618E+02  0.81609965618E+02  0.00000000000E+00 0. -1.
         23    2    1    2    0    0  0.32221489355E+02  0.93318016427E+02  0.42763376979E+03  0.44761243492E+03  0.87975986864E+02 0.  0.
         23    2    1    2    0    0  0.48931456082E+02 -0.63637071372E+02  0.18186303758E+03  0.21862974577E+03  0.90999104680E+02 0.  0.
        -13    1    3    3    0    0  0.43088811348E+02  0.50876858401E+02  0.36583081366E+03  0.37185653767E+03  0.00000000000E+00 0. -1.
         13    1    3    3    0    0 -0.10867321993E+02  0.42441158026E+02  0.61802956125E+02  0.75755897247E+02  0.00000000000E+00 0.  1.
        -13    1    4    4    0    0  0.53963329781E+01 -0.59056492631E+02  0.15802204819E+03  0.16878316695E+03  0.00000000000E+00 0.  1.
         13    1    4    4    0    0  0.43535123104E+02 -0.45805787411E+01  0.23840989386E+02  0.49846578821E+02  0.00000000000E+00 0. -1.
         21    1    1    2  503  502 -0.67466259162E+02 -0.11337641807E+02  0.41115530783E+03  0.41680801984E+03  0.00000000000E+00 0.  1.
          1    1    1    2  501    0 -0.13686686275E+02 -0.18343303248E+02 -0.47813260952E+02  0.53008584947E+02  0.00000000000E+00 0. -1.
<scales pt_clust_5="13000.00000" pt_clust_6="13000.00000" pt_clust_7="13000.00000" pt_clust_8="13000.00000" pt_clust_9="69.92510" pt_clust_10="22.88672"></scales>
<clustering>
<clus scale="   22.887">  2 10  1 -1</clus>
<clus scale="   69.925">  1  9  2 -1</clus>
<clus scale="   87.976">  5  6 -1 -1</clus>
<clus scale="   90.999">  7  8 -1 -1</clus>
<clus scale="  119.433">  1  5  2 -1</clus>
<clus scale="   22.887">  2  5  1 -1</clus>
</clustering>
</event>
<event>
10    2  0.3544405E-006  0.2767654E+03  0.7546771E-02  0.1141454E+00
          1   -1    0    0  503    0 -0.00000000000E+00  0.00000000000E+00  0.25960735486E+03  0.25960735486E+03  0.00000000000E+00 0. -1.
         21   -1    0    0  501  502  0.00000000000E+00 -0.00000000000E+00 -0.73500794850E+03  0.73500794850E+03  0.00000000000E+00 0. -1.
         23    2    1    2    0    0  0.52748219435E+01 -0.14269928593E+02 -0.11717793696E+03  0.14915135908E+03  0.91016506186E+02 0.  0.
         23    2    1    2    0    0  0.16439607808E+03  0.22757041626E+03 -0.27466024524E+03  0.40093034010E+03  0.80576190362E+02 0.  0.
        -11    1    4    4    0    0  0.69910136610E+02  0.47340544851E+02 -0.51404044857E+02  0.98848015738E+02  0.00000000000E+00 0.  1.
         11    1    4    4    0    0  0.94485941474E+02  0.18022987141E+03 -0.22325620038E+03  0.30208232436E+03  0.00000000000E+00 0. -1.
        -11    1    3    3    0    0  0.47617211026E+02 -0.13484479899E+02 -0.70351712680E+02  0.86015076940E+02  0.00000000000E+00 0.  1.
         11    1    3    3    0    0 -0.42342389082E+02 -0.78544869405E+00 -0.46826224276E+02  0.63136282143E+02  0.00000000000E+00 0. -1.
         21    1    1    2  503  502 -0.53066108503E+02  0.86187427356E+01  0.11354881001E+03  0.12563290513E+03  0.00000000000E+00 0.  1.
          1    1    1    2  501    0 -0.11660479152E+03 -0.22191923040E+03 -0.19711122146E+03  0.31890069905E+03  0.00000000000E+00 0. -1.
<scales pt_clust_5="13000.00000" pt_clust_6="13000.00000" pt_clust_7="13000.00000" pt_clust_8="13000.00000" pt_clust_9="53.76146" pt_clust_10="264.77659"></scales>
<clustering>
<clus scale="   53.761">  1  9  2 -1</clus>
<clus scale="   80.576">  5  6 -1 -1</clus>
<clus scale="   91.017">  7  8 -1 -1</clus>
<clus scale="   91.984">  1  7  2 -1</clus>
<clus scale="  264.777">  2 10  1 -1</clus>
<clus scale="  264.777">  2  5  1 -1</clus>
</clustering>
</event>
<event>
10    2  0.3544405E-006  0.1434545E+03  0.7546771E-02  0.1211746E+00
          2   -1    0    0  503    0 -0.00000000000E+00  0.00000000000E+00  0.13312731789E+03  0.13312731789E+03  0.00000000000E+00 0. -1.
         21   -1    0    0  501  502  0.00000000000E+00 -0.00000000000E+00 -0.33748587726E+03  0.33748587726E+03  0.00000000000E+00 0. -1.
         23    2    1    2    0    0 -0.40992069934E+02 -0.98896170712E+02 -0.66621256072E+02  0.15063459230E+03  0.82411080911E+02 0.  0.
         23    2    1    2    0    0 -0.29036297574E+02  0.11398549867E+03 -0.53264775938E+02  0.16103350859E+03  0.96222939301E+02 0.  0.
        -11    1    4    4    0    0  0.66167547930E+01  0.29708037403E+02 -0.62041472627E+02  0.69104943789E+02  0.00000000000E+00 0.  1.
         11    1    4    4    0    0 -0.35653052367E+02  0.84277461269E+02  0.87766966891E+01  0.91928564798E+02  0.00000000000E+00 0. -1.
        -11    1    3    3    0    0 -0.55289883604E+02 -0.26921077005E+02 -0.26063823505E+02  0.66791006219E+02  0.00000000000E+00 0. -1.
         11    1    3    3    0    0  0.14297813671E+02 -0.71975093707E+02 -0.40557432567E+02  0.83843586078E+02  0.00000000000E+00 0.  1.
         21    1    1    2  503  502  0.60593480245E+01  0.23217855106E+02  0.19556038626E+02  0.30955179549E+02  0.00000000000E+00 0.  1.
          2    1    1    2  501    0  0.63969019483E+02 -0.38307183067E+02 -0.10402856598E+03  0.12798991472E+03  0.00000000000E+00 0. -1.
<scales pt_clust_5="13000.00000" pt_clust_6="13000.00000" pt_clust_7="13000.00000" pt_clust_8="13000.00000" pt_clust_9="23.99551" pt_clust_10="73.85875"></scales>
<clustering>
<clus scale="   23.996">  1  9  2 -1</clus>
<clus scale="   73.859">  2 10  1 -1</clus>
<clus scale="   82.411">  7  8 -1 -1</clus>
<clus scale="   96.223">  5  6 -1 -1</clus>
<clus scale="  134.581">  1  7  2 -1</clus>
<clus scale="   73.859">  2  5  1 -1</clus>
</clustering>
</event>
<event>
10    2  0.3544405E-006  0.1001164E+03  0.7546771E-02  0.1282369E+00
         -3   -1    0    0    0  501 -0.00000000000E+00  0.00000000000E+00  0.25956749222E+03  0.25956749222E+03  0.00000000000E+00 0.  1.
         21   -1    0    0  501  502  0.00000000000E+00 -0.00000000000E+00 -0.76060098057E+02  0.76060098057E+02  0.00000000000E+00 0. -1.
         23    2    1    2    0    0 -0.10516574585E+02 -0.35580909163E+02  0.14989778404E+03  0.18096294971E+03  0.94348524473E+02 0.  0.
         23    2    1    2    0    0  0.19046377889E+01  0.23267262684E+02  0.20046802485E+01  0.92768853483E+02  0.89761062136E+02 0.  0.
        -11    1    4    4    0    0  0.10882547867E+02  0.50947025505E+02  0.22937698778E+02  0.56922467279E+02  0.00000000000E+00 0.  1.
         11    1    4    4    0    0 -0.89779100779E+01 -0.27679762821E+02 -0.20933018529E+02  0.35846386204E+02  0.00000000000E+00 0. -1.
        -11    1    3    3    0    0 -0.48967983990E+02 -0.11612819070E+02  0.48456085237E+02  0.69862101452E+02  0.00000000000E+00 0. -1.
         11    1    3    3    0    0  0.38451409405E+02 -0.23968090093E+02  0.10144169880E+03  0.11110084826E+03  0.00000000000E+00 0.  1.
         21    1    1    2  503  502  0.66120991956E+01 -0.19881333669E+02  0.11874187848E+02  0.24082849111E+02  0.00000000000E+00 0. -1.
         -3    1    1    2    0  503  0.19998376001E+01  0.32194980148E+02  0.19730742025E+02  0.37812937971E+02  0.00000000000E+00 0.  1.
<scales pt_clust_5="13000.00000" pt_clust_6="13000.00000" pt_clust_7="13000.00000" pt_clust_8="13000.00000" pt_clust_9="20.95202" pt_clust_10="29.76270"></scales>
<clustering>
<clus scale="   20.952">  2  9  1 -1</clus>
<clus scale="   29.763">  2 10  1 -1</clus>
<clus scale="   89.761">  5  6 -1 -1</clus>
<clus scale="   94.349">  7  8 -1 -1</clus>
<clus scale="   95.806">  2  5  1 -1</clus>
<clus scale="   20.952">  2  5  1 -1</clus>
</clustering>
</event>
<event>
10    2  0.3544405E-006  0.1670342E+03  0.7546771E-02  0.1202863E+00
         -1   -1    0    0    0  501 -0.00000000000E+00  0.00000000000E+00  0.30422444106E+03  0.30422444106E+03  0.00000000000E+00 0.  1.
         21   -1    0    0  503  502  0.00000000000E+00 -0.00000000000E+00 -0.23660762681E+03  0.23660762681E+03  0.00000000000E+00 0. -1.
         23    2    1    2    0    0 -0.15971411928E+02  0.39271726449E+02  0.14873923327E+03  0.18246701787E+03  0.96816830141E+02 0.  0.
         23    2    1    2    0    0 -0.85497154935E+02  0.83483910568E+02 -0.37461389184E+02  0.15695964454E+03  0.94623715370E+02 0.  0.
        -11    1    4    4    0    0 -0.94743700203E+02  0.36095083675E+02 -0.11216205822E+02  0.10200503452E+03  0.00000000000E+00 0.  1.
         11    1    4    4    0    0  0.92465452687E+01  0.47388826892E+02 -0.26245183362E+02  0.54954610028E+02  0.00000000000E+00 0. -1.
        -11    1    3    3    0    0 -0.52759175767E+02  0.21746490780E+02  0.11914339084E+03  0.13210445893E+03  0.00000000000E+00 0.  1.
         11    1    3    3    0    0  0.36787763838E+02  0.17525235669E+02  0.29595842433E+02  0.50362558938E+02  0.00000000000E+00 0. -1.
         21    1    1    2  503  501 -0.15641434744E+02 -0.23843304581E+02  0.20610969003E+02  0.35184793554E+02  0.00000000000E+00 0.  1.
         -1    1    1    2    0  502  0.11711000161E+03 -0.98912332436E+02 -0.64271998848E+02  0.16622061190E+03  0.00000000000E+00 0.  1.
<scales pt_clust_5="13000.00000" pt_clust_6="13000.00000" pt_clust_7="13000.00000" pt_clust_8="13000.00000" pt_clust_9="28.51592" pt_clust_10="137.64730"></scales>
<clustering>
<clus scale="   28.516">  1  9  2 -1</clus>
<clus scale="   94.624">  5  6 -1 -1</clus>
<clus scale="   96.817">  7  8 -1 -1</clus>
<clus scale="  103.150">  1  7  2 -1</clus>
<clus scale="  137.647">  2 10  1 -1</clus>
<clus scale="  137.647">  2  5  1 -1</clus>
</clustering>
</event>
<event>
10    2  0.3544405E-006  0.1278654E+03  0.7546771E-02  0.1231209E+00
         21   -1    0    0  501  502  0.00000000000E+00  0.00000000000E+00  0.43179180455E+03  0.43179180455E+03  0.00000000000E+00 0. -1.
          2   -1    0    0  503    0 -0.00000000000E+00 -0.00000000000E+00 -0.47773016459E+03  0.47773016459E+03  0.00000000000E+00 0. -1.
         23    2    1    2    0    0 -0.27144948871E+01 -0.53126823684E+01 -0.33349264990E+03  0.34628770187E+03  0.93071111774E+02 0.  0.
         23    2    1    2    0    0  0.60845188480E+02  0.88721590399E+02  0.17332482761E+03  0.22340508457E+03  0.91075124937E+02 0.  0.
        -13    1    4    4    0    0  0.41235599334E+02 -0.66774005992E+01  0.69199204517E+02  0.80830020642E+02  0.00000000000E+00 0. -1.
         13    1    4    4    0    0  0.19609589147E+02  0.95398990999E+02  0.10412562309E+03  0.14257506393E+03  0.00000000000E+00 0.  1.
        -13    1    3    3    0    0 -0.68418364986E+01 -0.47005629015E+02 -0.22558690751E+03  0.23053371277E+03  0.00000000000E+00 0. -1.
         13    1    3    3    0    0  0.41273416116E+01  0.41692946647E+02 -0.10790574240E+03  0.11575398909E+03  0.00000000000E+00 0.  1.
         21    1    1    2  503  502 -0.30993415313E+02 -0.80024727024E+02 -0.95460307441E+02  0.12836362033E+03  0.00000000000E+00 0. -1.
          2    1    1    2  501    0 -0.27137278280E+02 -0.33841810068E+01  0.20968976970E+03  0.21146556237E+03  0.00000000000E+00 0. -1.
<scales pt_clust_5="13000.00000" pt_clust_6="13000.00000" pt_clust_7="13000.00000" pt_clust_8="13000.00000" pt_clust_9="86.79901" pt_clust_10="27.34748"></scales>
<clustering>
<clus scale="   27.347">  1 10  2 -1</clus>
<clus scale="   86.799">  2  9  1 -1</clus>
<clus scale="   91.075">  5  6 -1 -1</clus>
<clus scale="   93.071">  7  8 -1 -1</clus>
<clus scale="  126.420">  1  5  2 -1</clus>
<clus scale="   27.347">  1  5  2 -1</clus>
</clustering>
</event>
<event>
10    2  0.3544405E-006  0.1557881E+03  0.7546771E-02  0.1199954E+00
         21   -1    0    0  501  502  0.00000000000E+00  0.00000000000E+00  0.46373253712E+02  0.46373253712E+02  0.00000000000E+00 0.  1.
          2   -1    0    0  503    0 -0.00000000000E+00 -0.00000000000E+00 -0.13141517160E+04  0.13141517160E+04  0.00000000000E+00 0. -1.
         23    2    1    2    0    0 -0.52577398725E+02  0.33056830595E+02 -0.59526396197E+03  0.61038322173E+03  0.11988059078E+03 0.  0.
         23    2    1    2    0    0  0.57398865566E+02 -0.12738655055E+03 -0.43394701174E+03  0.46504847496E+03  0.91859196793E+02 0.  0.
        -13    1    3    3    0    0  0.29108577343E+02  0.40984654766E+02 -0.17018583050E+03  0.17745497486E+03  0.00000000000E+00 0.  1.
         13    1    3    3    0    0 -0.81685976068E+02 -0.79278241708E+01 -0.42507813147E+03  0.43292824687E+03  0.00000000000E+00 0. -1.
        -13    1    4    4    0    0  0.63845688532E+02 -0.33781376201E+02 -0.16210507702E+03  0.17746974198E+03  0.00000000000E+00 0.  1.
         13    1    4    4    0    0 -0.64468229664E+01 -0.93605174348E+02 -0.27184193471E+03  0.28757873298E+03  0.00000000000E+00 0. -1.
         21    1    1    2  503  502 -0.34484987400E+01  0.58262923645E+02 -0.24190505192E+03  0.24884636739E+03  0.00000000000E+00 0. -1.
          2    1    1    2  501    0 -0.13729681002E+01  0.36066796310E+02  0.33375633625E+01  0.36246905615E+02  0.00000000000E+00 0. -1.
<scales pt_clust_5="13000.00000" pt_clust_6="13000.00000" pt_clust_7="13000.00000" pt_clust_8="13000.00000" pt_clust_9="63.07654" pt_clust_10="36.09292"></scales>
<clustering>
<clus scale="   36.093">  1 10  2 -1</clus>
<clus scale="   63.077">  2  9  1 -1</clus>
<clus scale="   91.859">  7  8 -1 -1</clus>
<clus scale="  119.881">  5  6 -1 -1</clus>
<clus scale="  135.413">  1  7  2 -1</clus>
<clus scale="   36.093">  1  5  2 -1</clus>
</clustering>
</event>
<event>
10    2  0.3544405E-006  0.1713032E+03  0.7546771E-02  0.1199485E+00
         21   -1    0    0  501  502  0.00000000000E+00  0.00000000000E+00  0.14428593005E+03  0.14428593005E+03  0.00000000000E+00 0. -1.
          1   -1    0    0  503    0 -0.00000000000E+00 -0.00000000000E+00 -0.62401886835E+03  0.62401886835E+03  0.00000000000E+00 0. -1.
         23    2    1    2    0    0 -0.45773950066E+02  0.34273979963E+00 -0.13255657092E+03  0.16915932371E+03  0.94595244744E+02 0.  0.
         23    2    1    2    0    0 -0.33493587761E+02 -0.10271758650E+03 -0.29922750109E+03  0.33021211080E+03  0.88488517406E+02 0.  0.
        -11    1    3    3    0    0 -0.12841202999E+02 -0.31546069058E+02 -0.11522045457E+03  0.12014909121E+03  0.00000000000E+00 0. -1.
         11    1    3    3    0    0 -0.32932747066E+02  0.31888808857E+02 -0.17336116357E+02  0.49010232503E+02  0.00000000000E+00 0.  1.
        -13    1    4    4    0    0 -0.18270180390E+02  0.96000874935E+01 -0.89153632817E+02  0.91511373150E+02  0.00000000000E+00 0.  1.
         13    1    4    4    0    0 -0.15223407371E+02 -0.11231767399E+03 -0.21007386827E+03  0.23870073765E+03  0.00000000000E+00 0. -1.
         21    1    1    2  503  502  0.24072734589E+02 -0.40965868154E+02 -0.96732522142E+02  0.10777235148E+03  0.00000000000E+00 0. -1.
          1    1    1    2  501    0  0.55194803237E+02  0.14334071485E+03  0.48783655862E+02  0.16116101240E+03  0.00000000000E+00 0. -1.
<scales pt_clust_5="13000.00000" pt_clust_6="13000.00000" pt_clust_7="13000.00000" pt_clust_8="13000.00000" pt_clust_9="47.51525" pt_clust_10="146.67846"></scales>
<clustering>
<clus scale="   47.515">  2  9  1 -1</clus>
<clus scale="   88.489">  7  8 -1 -1</clus>
<clus scale="   94.595">  5  6 -1 -1</clus>
<clus scale="  102.893">  2  5  1 -1</clus>
<clus scale="  146.678">  1 10  2 -1</clus>
<clus scale="  146.678">  1  5  2 -1</clus>
</clustering>
</event>
<event>
10    2  0.3544405E-006  0.1868302E+03  0.7546771E-02  0.1161800E+00
         21   -1    0    0  503  502  0.00000000000E+00  0.00000000000E+00  0.17849840790E+03  0.17849840790E+03  0.00000000000E+00 0. -1.
         -1   -1    0    0    0  501 -0.00000000000E+00 -0.00000000000E+00 -0.45728411220E+03  0.45728411220E+03  0.00000000000E+00 0.  1.
         23    2    1    2    0    0 -0.13256722744E+03 -0.90434465171E+02 -0.10472410092E+03  0.21080157248E+03  0.87850460232E+02 0.  0.
         23    2    1    2    0    0  0.18408932264E+03 -0.23575306609E+02 -0.69039349893E+02  0.21828526742E+03  0.91855061624E+02 0.  0.
        -13    1    3    3    0    0 -0.10312085648E+03 -0.81503853157E+02 -0.37211162055E+02  0.13660695335E+03  0.00000000000E+00 0. -1.
         13    1    3    3    0    0 -0.29446370958E+02 -0.89306120136E+01 -0.67512938866E+02  0.74194619130E+02  0.00000000000E+00 0.  1.
        -13    1    4    4    0    0  0.22779608602E+02  0.25526492081E+02  0.41601719101E+01  0.34464755858E+02  0.00000000000E+00 0. -1.
         13    1    4    4    0    0  0.16130971404E+03 -0.49101798690E+02 -0.73199521803E+02  0.18382051156E+03  0.00000000000E+00 0.  1.
         21    1    1    2  503  501 -0.53624124844E+02  0.85448874464E+02 -0.13281808196E+03  0.16678638976E+03  0.00000000000E+00 0. -1.
         -1    1    1    2    0  502  0.21020296438E+01  0.28560897316E+02  0.27795828473E+02  0.39909290455E+02  0.00000000000E+00 0.  1.
<scales pt_clust_5="13000.00000" pt_clust_6="13000.00000" pt_clust_7="13000.00000" pt_clust_8="13000.00000" pt_clust_9="103.60991" pt_clust_10="28.63815"></scales>
<clustering>
<clus scale="   28.638">  1 10  2 -1</clus>
<clus scale="   87.850">  5  6 -1 -1</clus>
<clus scale="   91.855">  7  8 -1 -1</clus>
<clus scale="  103.610">  2  9  1 -1</clus>
<clus scale="  184.894">  2  5  1 -1</clus>
<clus scale="   28.638">  1  5  2 -1</clus>
</clustering>
</event>
<event>
10    2  0.3544405E-006  0.1443220E+03  0.7546771E-02  0.1207967E+00
         21   -1    0    0  501  502  0.00000000000E+00  0.00000000000E+00  0.11371521718E+03  0.11371521718E+03  0.00000000000E+00 0. -1.
          3   -1    0    0  503    0 -0.00000000000E+00 -0.00000000000E+00 -0.86273314870E+03  0.86273314870E+03  0.00000000000E+00 0. -1.
         23    2    1    2    0    0 -0.84660336329E+02  0.72117305741E+02 -0.39787490164E+03  0.42270709327E+03  0.89490619677E+02 0.  0.
         23    2    1    2    0    0  0.93469717484E+02 -0.72894276252E+02 -0.35147519519E+03  0.38195964966E+03  0.91149314529E+02 0.  0.
        -11    1    4    4    0    0  0.72029576816E+02 -0.12551780432E+02 -0.10959194541E+03  0.13174293767E+03  0.00000000000E+00 0.  1.
         11    1    4    4    0    0  0.21440140667E+02 -0.60342495820E+02 -0.24188324978E+03  0.25021671198E+03  0.00000000000E+00 0. -1.
        -13    1    3    3    0    0 -0.68791775531E+02  0.51695834028E+02 -0.38366834780E+03  0.39319990939E+03  0.00000000000E+00 0. -1.
         13    1    3    3    0    0 -0.15868560798E+02  0.20421471712E+02 -0.14206553837E+02  0.29507183882E+02  0.00000000000E+00 0.  1.
         21    1    1    2  503  502  0.18221027186E+01 -0.30851792563E+02 -0.79478763697E+02  0.85276180974E+02  0.00000000000E+00 0. -1.
          3    1    1    2  501    0 -0.10631483873E+02  0.31628763075E+02  0.79810929006E+02  0.86505441978E+02  0.00000000000E+00 0. -1.
<scales pt_clust_5="13000.00000" pt_clust_6="13000.00000" pt_clust_7="13000.00000" pt_clust_8="13000.00000" pt_clust_9="30.90555" pt_clust_10="33.23984"></scales>
<clustering>
<clus scale="   30.906">  2  9  1 -1</clus>
<clus scale="   33.240">  1 10  2 -1</clus>
<clus scale="   89.491">  7  8 -1 -1</clus>
<clus scale="   91.149">  5  6 -1 -1</clus>
<clus scale="  143.280">  2  7  1 -1</clus>
<clus scale="   33.240">  1  5  2 -1</clus>
</clustering>
</event>
<event>
10    2  0.3544405E-006  0.1887429E+03  0.7546771E-02  0.1159785E+00
          1   -1    0    0  503    0 -0.00000000000E+00  0.00000000000E+00  0.11296893790E+04  0.11296893790E+04  0.00000000000E+00 0. -1.
         21   -1    0    0  501  502  0.00000000000E+00 -0.00000000000E+00 -0.13178986541E+03  0.13178986541E+03  0.00000000000E+00 0. -1.
         23    2    1    2    0    0  0.14074164266E+03  0.76263540284E+02  0.78271279279E+03  0.80399747968E+03  0.90267900116E+02 0.  0.
         23    2    1    2    0    0 -0.18443607492E+03  0.32918502252E+01  0.86733177585E+02  0.22361707704E+03  0.91948088832E+02 0.  0.
        -13    1    3    3    0    0 -0.59968309957E+01  0.20814454939E+02  0.47055983923E+02  0.51802211722E+02  0.00000000000E+00 0.  1.
         13    1    3    3    0    0  0.14673847365E+03  0.55449085346E+02  0.73565680886E+03  0.75219526796E+03  0.00000000000E+00 0. -1.
        -13    1    4    4    0    0 -0.31406703198E+02  0.15361771882E+02  0.57587885337E+02  0.67370094098E+02  0.00000000000E+00 0. -1.
         13    1    4    4    0    0 -0.15302937172E+03 -0.12069921656E+02  0.29145292248E+02  0.15624698294E+03  0.00000000000E+00 0.  1.
         21    1    1    2  503  502  0.22664631438E+02 -0.74042242688E+02  0.17009422090E+03  0.18689029725E+03  0.00000000000E+00 0. -1.
          1    1    1    2  501    0  0.21029800823E+02 -0.55131478218E+01 -0.41640677666E+02  0.46974390449E+02  0.00000000000E+00 0. -1.
<scales pt_clust_5="13000.00000" pt_clust_6="13000.00000" pt_clust_7="13000.00000" pt_clust_8="13000.00000" pt_clust_9="78.55048" pt_clust_10="21.74045"></scales>
<clustering>
<clus scale="   21.740">  2 10  1 -1</clus>
<clus scale="   78.550">  1  9  2 -1</clus>
<clus scale="   90.268">  5  6 -1 -1</clus>
<clus scale="   91.948">  7  8 -1 -1</clus>
<clus scale="  187.930">  1  5  2 -1</clus>
<clus scale="   21.740">  2  5  1 -1</clus>
</clustering>
</event>
<event>
10    2  0.3544405E-006  0.1132312E+03  0.7546771E-02  0.1261642E+00
         21   -1    0    0  501  502  0.00000000000E+00  0.00000000000E+00  0.43081316010E+02  0.43081316010E+02  0.00000000000E+00 0.  1.
          1   -1    0    0  503    0 -0.00000000000E+00 -0.00000000000E+00 -0.91366461632E+03  0.91366461632E+03  0.00000000000E+00 0. -1.
         23    2    1    2    0    0 -0.49736150739E+01 -0.59729965479E+02 -0.54092855880E+03  0.55443678523E+03  0.10584912599E+03 0.  0.
         23    2    1    2    0    0 -0.47264205605E+02  0.29843580984E+02 -0.91846272040E+02  0.14033768435E+03  0.90190817179E+02 0.  0.
        -13    1    3    3    0    0  0.62550597126E+01  0.22952517370E+02 -0.39482089692E+02  0.46095327660E+02  0.00000000000E+00 0.  1.
         13    1    3    3    0    0 -0.11228674787E+02 -0.82682482849E+02 -0.50144646911E+03  0.50834145757E+03  0.00000000000E+00 0. -1.
        -13    1    4    4    0    0 -0.63803320329E+02 -0.23553152815E+01 -0.79777554634E+02  0.10218057261E+03  0.00000000000E+00 0.  1.
         13    1    4    4    0    0  0.16539114724E+02  0.32198896266E+02 -0.12068717406E+02  0.38157111741E+02  0.00000000000E+00 0. -1.
         21    1    1    2  503  502  0.95462690584E+01  0.25831373742E+02 -0.20783388609E+03  0.20965045988E+03  0.00000000000E+00 0.  1.
          1    1    1    2  501    0  0.42691551620E+02  0.40550107525E+01 -0.29974583382E+02  0.52321002866E+02  0.00000000000E+00 0. -1.
<scales pt_clust_5="13000.00000" pt_clust_6="13000.00000" pt_clust_7="13000.00000" pt_clust_8="13000.00000" pt_clust_9="27.53890" pt_clust_10="43.60508"></scales>
<clustering>
<clus scale="   27.539">  2  9  1 -1</clus>
<clus scale="   43.605">  1 10  2 -1</clus>
<clus scale="   90.191">  7  8 -1 -1</clus>
<clus scale="   98.750">  1  7  2 -1</clus>
<clus scale="  105.849">  5  6 -1 -1</clus>
<clus scale="   43.605">  1  5  2 -1</clus>
</clustering>
</event>
<event>
10    2  0.3544405E-006  0.9941601E+02  0.7546771E-02  0.1281797E+00
         21   -1    0    0  501  502  0.00000000000E+00  0.00000000000E+00  0.20596820170E+03  0.20596820170E+03  0.00000000000E+00 0. -1.
          2   -1    0    0  503    0 -0.00000000000E+00 -0.00000000000E+00 -0.22829991889E+03  0.22829991889E+03  0.00000000000E+00 0. -1.
         23    2    1    2    0    0  0.20208769907E+02  0.19230557244E+02 -0.47069836335E+02  0.10648811647E+03  0.91356120445E+02 0.  0.
         23    2    1    2    0    0 -0.38497673244E+02 -0.29023700164E+02 -0.65216424289E+02  0.12257091323E+03  0.91902125967E+02 0.  0.
        -11    1    4    4    0    0 -0.14691780053E+02  0.18100923969E+02 -0.65761765948E+02  0.69771783052E+02  0.00000000000E+00 0. -1.
         11    1    4    4    0    0 -0.23805893192E+02 -0.47124624133E+02  0.54534165869E+00  0.52799130181E+02  0.00000000000E+00 0.  1.
        -13    1    3    3    0    0  0.52456640688E+02 -0.72307664908E+01 -0.33329186289E+02  0.62568504817E+02  0.00000000000E+00 0. -1.
         13    1    3    3    0    0 -0.32247870781E+02  0.26461323735E+02 -0.13740650047E+02  0.43919611649E+02  0.00000000000E+00 0.  1.
         21    1    1    2  503  502  0.52207277496E+01 -0.54764189213E+02 -0.34120532092E+02  0.64734713474E+02  0.00000000000E+00 0.  1.
          2    1    1    2  501    0  0.13068175587E+02  0.64557332133E+02  0.12407507552E+03  0.14047437742E+03  0.00000000000E+00 0. -1.
<scales pt_clust_5="13000.00000" pt_clust_6="13000.00000" pt_clust_7="13000.00000" pt_clust_8="13000.00000" pt_clust_9="55.01248" pt_clust_10="63.45791"></scales>
<clustering>
<clus scale="   55.012">  2  9  1 -1</clus>
<clus scale="   63.458">  1 10  2 -1</clus>
<clus scale="   91.356">  7  8 -1 -1</clus>
<clus scale="   91.902">  5  6 -1 -1</clus>
<clus scale="   98.911">  2  7  1 -1</clus>
<clus scale="   63.458">  1  5  2 -1</clus>
</clustering>
</event>
<event>
10    2  0.3544405E-006  0.1770419E+03  0.7546771E-02  0.1172696E+00
         21   -1    0    0  501  502  0.00000000000E+00  0.00000000000E+00  0.45790274534E+03  0.45790274534E+03  0.00000000000E+00 0. -1.
          1   -1    0    0  503    0 -0.00000000000E+00 -0.00000000000E+00 -0.39048570913E+03  0.39048570913E+03  0.00000000000E+00 0. -1.
         23    2    1    2    0    0 -0.55217197254E+02 -0.12190449078E+03 -0.57000822416E+02  0.17290435548E+03  0.93472876506E+02 0.  0.
         23    2    1    2    0    0  0.92417134532E+02  0.13849763778E+02  0.18230212625E+03  0.22429883791E+03  0.91340903981E+02 0.  0.
        -13    1    3    3    0    0 -0.51237366773E+02 -0.74818571119E+02  0.96596257051E+01  0.91194269047E+02  0.00000000000E+00 0. -1.
         13    1    3    3    0    0 -0.39798304816E+01 -0.47085919659E+02 -0.66660448121E+02  0.81710086431E+02  0.00000000000E+00 0.  1.
        -13    1    4    4    0    0  0.66387906785E+02  0.36617210293E+02  0.58513369124E+02  0.95770499754E+02  0.00000000000E+00 0.  1.
         13    1    4    4    0    0  0.26029227747E+02 -0.22767446515E+02  0.12378875713E+03  0.12852833816E+03  0.00000000000E+00 0. -1.
         21    1    1    2  503  502 -0.12034875178E+03  0.17981858725E+03 -0.18393821839E+03  0.28399263117E+03  0.00000000000E+00 0. -1.
          1    1    1    2  501    0  0.83148814498E+02 -0.71763860253E+02  0.12605395077E+03  0.16719262991E+03  0.00000000000E+00 0. -1.
<scales pt_clust_5="13000.00000" pt_clust_6="13000.00000" pt_clust_7="13000.00000" pt_clust_8="13000.00000" pt_clust_9="151.65973" pt_clust_10="109.83523"></scales>
<clustering>
<clus scale="   91.341">  7  8 -1 -1</clus>
<clus scale="   93.473">  5  6 -1 -1</clus>
<clus scale="  109.835">  1 10  2 -1</clus>
<clus scale="  169.153">  2  5  1 -1</clus>
<clus scale="  151.660">  2  9  1 -1</clus>
<clus scale="  109.835">  1  5  2 -1</clus>
</clustering>
</event>
<event>
10    2  0.3544405E-006  0.1265872E+03  0.7546771E-02  0.1233333E+00
         21   -1    0    0  501  502  0.00000000000E+00  0.00000000000E+00  0.91400902279E+02  0.91400902279E+02  0.00000000000E+00 0.  1.
          1   -1    0    0  503    0 -0.00000000000E+00 -0.00000000000E+00 -0.37934444428E+03  0.37934444428E+03  0.00000000000E+00 0. -1.
         23    2    1    2    0    0  0.42083956038E+02  0.75803631718E+02 -0.22063331626E+03  0.25427452847E+03  0.91974048778E+02 0.  0.
         23    2    1    2    0    0 -0.56166106638E+00 -0.93653831107E+02 -0.57520199944E+02  0.14166809669E+03  0.89386356195E+02 0.  0.
        -11    1    4    4    0    0  0.39205525811E+02 -0.49500011387E+02 -0.52346406404E+02  0.82021159739E+02  0.00000000000E+00 0. -1.
         11    1    4    4    0    0 -0.39767186878E+02 -0.44153819719E+02 -0.51737935395E+01  0.59646936950E+02  0.00000000000E+00 0.  1.
        -13    1    3    3    0    0 -0.14683363821E+02  0.55644635024E+02 -0.15423352477E+03  0.16462049308E+03  0.00000000000E+00 0. -1.
         13    1    3    3    0    0  0.56767319859E+02  0.20158996693E+02 -0.66399791490E+02  0.89654035389E+02  0.00000000000E+00 0.  1.
         21    1    1    2  503  502 -0.20068972033E+02  0.76026830525E+01 -0.34424783552E+02  0.40566367235E+02  0.00000000000E+00 0.  1.
          1    1    1    2  501    0 -0.21453322939E+02  0.10247516337E+02  0.24634757759E+02  0.34236354158E+02  0.00000000000E+00 0. -1.
<scales pt_clust_5="13000.00000" pt_clust_6="13000.00000" pt_clust_7="13000.00000" pt_clust_8="13000.00000" pt_clust_9="21.46076" pt_clust_10="24.07548"></scales>
<clustering>
<clus scale="   21.461">  2  9  1 -1</clus>
<clus scale="   24.075">  1 10  2 -1</clus>
<clus scale="   89.386">  5  6 -1 -1</clus>
<clus scale="   91.974">  7  8 -1 -1</clus>
<clus scale="  124.720">  1  5  2 -1</clus>
<clus scale="   24.075">  1  5  2 -1</clus>
</clustering>
</event>
<event>
10    2  0.3544405E-006  0.1298834E+03  0.7546771E-02  0.1230265E+00
          2   -1    0    0  503    0 -0.00000000000E+00  0.00000000000E+00  0.41956800199E+03  0.41956800199E+03  0.00000000000E+00 0. -1.
         21   -1    0    0  501  502  0.00000000000E+00 -0.00000000000E+00 -0.38870420344E+03  0.38870420344E+03  0.00000000000E+00 0.  1.
         23    2    1    2    0    0  0.55792348615E+01  0.13484089874E+03  0.28232947899E+03  0.32574258411E+03  0.90471545597E+02 0.  0.
         23    2    1    2    0    0 -0.27842040263E+02 -0.11238858469E+02  0.12522384043E+02  0.10481644889E+03  0.99640286581E+02 0.  0.
        -13    1    4    4    0    0  0.17797528110E+02 -0.24082636224E+02  0.40038397498E+02  0.49997986445E+02  0.00000000000E+00 0. -1.
         13    1    4    4    0    0 -0.45639568373E+02  0.12843777755E+02 -0.27516013455E+02  0.54818462444E+02  0.00000000000E+00 0.  1.
        -13    1    3    3    0    0  0.41900368206E+02  0.33508298827E+02  0.76120550265E+02  0.93127789187E+02  0.00000000000E+00 0. -1.
         13    1    3    3    0    0 -0.36321133345E+02  0.10133259992E+03  0.20620892872E+03  0.23261479492E+03  0.00000000000E+00 0.  1.
         21    1    1    2  503  502  0.23178467632E+02 -0.30735479647E+02  0.42571138618E+02  0.57395234246E+02  0.00000000000E+00 0.  1.
          2    1    1    2  501    0 -0.91566223021E+00 -0.92866560627E+02 -0.30655920310E+03  0.32031793819E+03  0.00000000000E+00 0. -1.
<scales pt_clust_5="13000.00000" pt_clust_6="13000.00000" pt_clust_7="13000.00000" pt_clust_8="13000.00000" pt_clust_9="38.49560" pt_clust_10="93.43992"></scales>
<clustering>
<clus scale="   38.496">  1  9  2 -1</clus>
<clus scale="   90.472">  7  8 -1 -1</clus>
<clus scale="   93.440">  2 10  1 -1</clus>
<clus scale="   99.640">  5  6 -1 -1</clus>
<clus scale="  122.990">  1  7  2 -1</clus>
<clus scale="   93.440">  2  5  1 -1</clus>
</clustering>
</event>
<event>
10    2  0.3544405E-006  0.2356806E+03  0.7546771E-02  0.1123767E+00
          3   -1    0    0  503    0 -0.00000000000E+00  0.00000000000E+00  0.22703586802E+03  0.22703586802E+03  0.00000000000E+00 0. -1.
         21   -1    0    0  501  502  0.00000000000E+00 -0.00000000000E+00 -0.68801591313E+03  0.68801591313E+03  0.00000000000E+00 0. -1.
         23    2    1    2    0    0 -0.86783661661E+02 -0.16796294574E+03 -0.20684797038E+03  0.29978972999E+03  0.10651217904E+03 0.  0.
         23    2    1    2    0    0  0.19062724814E+03  0.16865855432E+03 -0.32505758762E+03  0.42300526708E+03  0.92122554390E+02 0.  0.
        -11    1    4    4    0    0  0.59311872535E+02  0.10851056209E+03 -0.17926900211E+03  0.21778387320E+03  0.00000000000E+00 0.  1.
         11    1    4    4    0    0  0.13131537561E+03  0.60147992225E+02 -0.14578858552E+03  0.20522139388E+03  0.00000000000E+00 0. -1.
        -13    1    3    3    0    0 -0.84135793746E+02 -0.10067940402E+03 -0.73464863550E+02  0.15037373561E+03  0.00000000000E+00 0. -1.
         13    1    3    3    0    0 -0.26478679154E+01 -0.67283541721E+02 -0.13338310683E+03  0.14941599439E+03  0.00000000000E+00 0.  1.
         21    1    1    2  503  502 -0.11987807586E+02  0.23084932119E+02  0.91535820322E+02  0.95160012735E+02  0.00000000000E+00 0. -1.
          3    1    1    2  501    0 -0.91855778894E+02 -0.23780540694E+02 -0.20610307427E+02  0.97096771337E+02  0.00000000000E+00 0. -1.
<scales pt_clust_5="13000.00000" pt_clust_6="13000.00000" pt_clust_7="13000.00000" pt_clust_8="13000.00000" pt_clust_9="26.01195" pt_clust_10="96.82093"></scales>
<clustering>
<clus scale="   26.012">  1  9  2 -1</clus>
<clus scale="   92.123">  5  6 -1 -1</clus>
<clus scale="   96.821">  2 10  1 -1</clus>
<clus scale="  106.512">  7  8 -1 -1</clus>
<clus scale="  229.537">  2  5  1 -1</clus>
<clus scale="   96.821">  2  5  1 -1</clus>
</clustering>
</event>
<event>
10    2  0.3544405E-006  0.1183323E+03  0.7546771E-02  0.1246439E+00
          1   -1    0    0  503    0 -0.00000000000E+00  0.00000000000E+00  0.13935926110E+03  0.13935926110E+03  0.00000000000E+00 0. -1.
         21   -1    0    0  501  502  0.00000000000E+00 -0.00000000000E+00 -0.20997237410E+03  0.20997237410E+03  0.00000000000E+00 0.  1.
         23    2    1    2    0    0  0.76172295642E+02  0.44694539993E+01 -0.27079453157E+02  0.12340662833E+03  0.93132725124E+02 0.  0.
         23    2    1    2    0    0 -0.65391346788E+02  0.29645837548E+01 -0.73382248667E+02  0.13427142799E+03  0.91427812859E+02 0.  0.
        -11    1    4    4    0    0 -0.19849973950E+02 -0.17635334678E+02 -0.79591300371E+02  0.83903525491E+02  0.00000000000E+00 0.  1.
         11    1    4    4    0    0 -0.45541372838E+02  0.20599918433E+02  0.62090517035E+01  0.50367902503E+02  0.00000000000E+00 0. -1.
        -13    1    3    3    0    0 -0.91870975572E+01  0.28967381019E+02 -0.14648328367E+02  0.33735522059E+02  0.00000000000E+00 0. -1.
         13    1    3    3    0    0  0.85359393199E+02 -0.24497927020E+02 -0.12431124791E+02  0.89671106267E+02  0.00000000000E+00 0.  1.
         21    1    1    2  503  502  0.10562007821E+02  0.18294092851E+02  0.48836135518E+02  0.53209002761E+02  0.00000000000E+00 0. -1.
          1    1    1    2  501    0 -0.21342956675E+02 -0.25728130605E+02 -0.18987546690E+02  0.38444576124E+02  0.00000000000E+00 0. -1.
<scales pt_clust_5="13000.00000" pt_clust_6="13000.00000" pt_clust_7="13000.00000" pt_clust_8="13000.00000" pt_clust_9="21.12415" pt_clust_10="31.13757"></scales>
<clustering>
<clus scale="   21.124">  1  9  2 -1</clus>
<clus scale="   31.138">  2 10  1 -1</clus>
<clus scale="   91.428">  5  6 -1 -1</clus>
<clus scale="   93.133">  7  8 -1 -1</clus>
<clus scale="  116.995">  2  5  1 -1</clus>
<clus scale="   31.138">  2  5  1 -1</clus>
</clustering>
</event>
<event>
10    2  0.3544405E-006  0.1197379E+03  0.7546771E-02  0.1251477E+00
         21   -1    0    0  501  502  0.00000000000E+00  0.00000000000E+00  0.50374971677E+02  0.50374971677E+02  0.00000000000E+00 0.  1.
          2   -1    0    0  503    0 -0.00000000000E+00 -0.00000000000E+00 -0.93030041813E+03  0.93030041813E+03  0.00000000000E+00 0. -1.
         23    2    1    2    0    0 -0.32656212890E+02  0.39736750186E+02 -0.58470785272E+03  0.59587799914E+03  0.10267365418E+03 0.  0.
         23    2    1    2    0    0  0.42380711013E+02 -0.64053168961E+02 -0.10479558096E+03  0.15332643194E+03  0.81412209284E+02 0.  0.
        -11    1    3    3    0    0  0.61711035832E+01  0.66984206577E+02 -0.35697054085E+03  0.36325326356E+03  0.00000000000E+00 0.  1.
         11    1    3    3    0    0 -0.38827316474E+02 -0.27247456391E+02 -0.22773731187E+03  0.23262473557E+03  0.00000000000E+00 0. -1.
        -11    1    4    4    0    0 -0.89405611334E+01 -0.20912557990E+02  0.62716452555E+01  0.23592419318E+02  0.00000000000E+00 0.  1.
         11    1    4    4    0    0  0.51321272147E+02 -0.43140610970E+02 -0.11106722622E+03  0.12973401262E+03  0.00000000000E+00 0. -1.
         21    1    1    2  503  502 -0.31049736867E+02 -0.23266911708E+02 -0.17176110619E+03  0.17608893474E+03  0.00000000000E+00 0.  1.
          2    1    1    2  501    0  0.21325238744E+02  0.47583330482E+02 -0.18660906580E+02  0.55382023993E+02  0.00000000000E+00 0. -1.
<scales pt_clust_5="13000.00000" pt_clust_6="13000.00000" pt_clust_7="13000.00000" pt_clust_8="13000.00000" pt_clust_9="38.79994" pt_clust_10="50.49109"></scales>
<clustering>
<clus scale="   38.800">  2  9  1 -1</clus>
<clus scale="   50.491">  1 10  2 -1</clus>
<clus scale="   81.412">  7  8 -1 -1</clus>
<clus scale="  102.094">  1  7  2 -1</clus>
<clus scale="  102.674">  5  6 -1 -1</clus>
<clus scale="   50.491">  1  5  2 -1</clus>
</clustering>
</event>
<event>
10    2  0.3544405E-006  0.2503696E+03  0.7546771E-02  0.1113316E+00
          1   -1    0    0  503    0 -0.00000000000E+00  0.00000000000E+00  0.10353679115E+04  0.10353679115E+04  0.00000000000E+00 0. -1.
         21   -1    0    0  501  502  0.00000000000E+00 -0.00000000000E+00 -0.16571795189E+03  0.16571795189E+03  0.00000000000E+00 0. -1.
         23    2    1    2    0    0 -0.16875497695E+03 -0.13505465595E+03  0.45248042104E+03  0.50973995171E+03  0.91532970064E+02 0.  0.
         23    2    1    2    0    0  0.18002383321E+03  0.13280456580E+03  0.13211981711E+03  0.27406037011E+03  0.87222744574E+02 0.  0.
        -11    1    4    4    0    0  0.74949221701E+01  0.32429259455E+02 -0.23822144396E+01  0.33369232427E+02  0.00000000000E+00 0.  1.
         11    1    4    4    0    0  0.17252891104E+03  0.10037530635E+03  0.13450203155E+03  0.24069113769E+03  0.00000000000E+00 0. -1.
        -11    1    3    3    0    0 -0.93013651837E+02 -0.91440363950E+02  0.35805866489E+03  0.38107595974E+03  0.00000000000E+00 0. -1.
         11    1    3    3    0    0 -0.75741325116E+02 -0.43614291996E+02  0.94421756151E+02  0.12866399198E+03  0.00000000000E+00 0.  1.
         21    1    1    2  503  502 -0.21564991326E+02 -0.40566338795E+02  0.34212529398E+03  0.34519616666E+03  0.00000000000E+00 0. -1.
          1    1    1    2  501    0  0.10296135071E+02  0.42816428936E+02 -0.57075572567E+02  0.72089374862E+02  0.00000000000E+00 0. -1.
<scales pt_clust_5="13000.00000" pt_clust_6="13000.00000" pt_clust_7="13000.00000" pt_clust_8="13000.00000" pt_clust_9="45.29506" pt_clust_10="44.03700"></scales>
<clustering>
<clus scale="   44.037">  2 10  1 -1</clus>
<clus scale="   45.295">  1  9  2 -1</clus>
<clus scale="   87.223">  5  6 -1 -1</clus>
<clus scale="   91.533">  7  8 -1 -1</clus>
<clus scale="  248.826">  2  5  1 -1</clus>
<clus scale="   44.037">  2  5  1 -1</clus>
</clustering>
</event>
<event>
10    2  0.3544405E-006  0.1342029E+03  0.7546771E-02  0.1234843E+00
          3   -1    0    0  503    0 -0.00000000000E+00  0.00000000000E+00  0.23661711961E+03  0.23661711961E+03  0.00000000000E+00 0. -1.
         21   -1    0    0  501  502  0.00000000000E+00 -0.00000000000E+00 -0.14749733350E+03  0.14749733350E+03  0.00000000000E+00 0.  1.
         23    2    1    2    0    0  0.16627664674E+02  0.20923474715E+02  0.99371019263E+02  0.13759073891E+03  0.91336416271E+02 0.  0.
         23    2    1    2    0    0 -0.19495611310E+02 -0.60901118780E+02 -0.62985070410E+01  0.14206965072E+03  0.12670867900E+03 0.  0.
        -11    1    3    3    0    0  0.10003969296E+02 -0.29766766083E+02  0.72393326278E+01  0.32226506196E+02  0.00000000000E+00 0.  1.
         11    1    3    3    0    0  0.66236953782E+01  0.50690240798E+02  0.92131686636E+02  0.10536423271E+03  0.00000000000E+00 0. -1.
        -11    1    4    4    0    0 -0.30168876742E+02 -0.39555714148E+02 -0.63162342217E+02  0.80400852731E+02  0.00000000000E+00 0.  1.
         11    1    4    4    0    0  0.10673265433E+02 -0.21345404632E+02  0.56863835176E+02  0.61668797984E+02  0.00000000000E+00 0. -1.
         21    1    1    2  503  502  0.15622827496E+02  0.17750710175E+02  0.44074667855E+02  0.50017364957E+02  0.00000000000E+00 0. -1.
          3    1    1    2  501    0 -0.12754880860E+02  0.22226933889E+02 -0.48027393971E+02  0.54436698536E+02  0.00000000000E+00 0. -1.
<scales pt_clust_5="13000.00000" pt_clust_6="13000.00000" pt_clust_7="13000.00000" pt_clust_8="13000.00000" pt_clust_9="23.64657" pt_clust_10="25.75821"></scales>
<clustering>
<clus scale="   23.647">  1  9  2 -1</clus>
<clus scale="   25.758">  2 10  1 -1</clus>
<clus scale="   91.336">  5  6 -1 -1</clus>
<clus scale="  101.477">  1  5  2 -1</clus>
<clus scale="  126.709">  7  8 -1 -1</clus>
<clus scale="   25.758">  2  5  1 -1</clus>
</clustering>
</event>
<event>
10    2  0.3544405E-006  0.1244450E+03  0.7546771E-02  0.1247380E+00
         -2   -1    0    0    0  501 -0.00000000000E+00  0.00000000000E+00  0.11148034875E+04  0.11148034875E+04  0.00000000000E+00 0.  1.
         21   -1    0    0  503  502  0.00000000000E+00 -0.00000000000E+00 -0.19834033087E+03  0.19834033087E+03  0.00000000000E+00 0.  1.
         23    2    1    2    0    0  0.18114545482E+02 -0.38827708642E+02  0.24715039321E+03  0.26613202923E+03  0.88922507830E+02 0.  0.
         23    2    1    2    0    0 -0.27541346708E+02 -0.21561749216E+02  0.52100832417E+02  0.12872581308E+03  0.11239396517E+03 0.  0.
        -13    1    3    3    0    0  0.34111068802E+02 -0.61673465415E+02  0.18664759813E+03  0.19951066949E+03  0.00000000000E+00 0.  1.
         13    1    3    3    0    0 -0.15996523320E+02  0.22845756773E+02  0.60502795079E+02  0.66621359737E+02  0.00000000000E+00 0. -1.
        -13    1    4    4    0    0  0.32248675963E+02 -0.43389168014E+02  0.23850911381E+02  0.59088602759E+02  0.00000000000E+00 0.  1.
         13    1    4    4    0    0 -0.59790022671E+02  0.21827418798E+02  0.28249921036E+02  0.69637210318E+02  0.00000000000E+00 0. -1.
         21    1    1    2  503  501  0.12416069003E+03  0.10874837382E+02  0.73563849272E+03  0.74612206173E+03  0.00000000000E+00 0.  1.
         -2    1    1    2    0  502 -0.11473388881E+03  0.49514620477E+02 -0.11842656171E+03  0.17216391434E+03  0.00000000000E+00 0.  1.
<scales pt_clust_5="13000.00000" pt_clust_6="13000.00000" pt_clust_7="13000.00000" pt_clust_8="13000.00000" pt_clust_9="124.44497" pt_clust_10="13000.00000"></scales>
<clustering>
<clus scale="   88.923">  5  6 -1 -1</clus>
<clus scale="   98.706">  1  5  2 -1</clus>
<clus scale="  112.394">  7  8 -1 -1</clus>
<clus scale="  118.100">  1  7  2 -1</clus>
<clus scale="  124.445">  1  9  2 -1</clus>
<clus scale="  124.445">  2  5  1 -1</clus>
</clustering>
</event>
<event>
10    2  0.3544405E-006  0.2577771E+03  0.7546771E-02  0.1108594E+00
         21   -1    0    0  501  502  0.00000000000E+00  0.00000000000E+00  0.66401964902E+02  0.66401964902E+02  0.00000000000E+00 0. -1.
          1   -1    0    0  503    0 -0.00000000000E+00 -0.00000000000E+00 -0.16928137024E+04  0.16928137024E+04  0.00000000000E+00 0. -1.
         23    2    1    2    0    0 -0.16921717392E+03 -0.13215705631E+03 -0.44420247976E+03  0.50168367670E+03  0.90943548238E+02 0.  0.
         23    2    1    2    0    0  0.26329314757E+03  0.77236805369E+02 -0.71041073070E+03  0.76720680926E+03  0.92919729960E+02 0.  0.
        -11    1    4    4    0    0  0.15849396652E+03  0.42663170570E+02 -0.29717899059E+03  0.33949349919E+03  0.00000000000E+00 0. -1.
         11    1    4    4    0    0  0.10479918105E+03  0.34573634800E+02 -0.41323174011E+03  0.42771331007E+03  0.00000000000E+00 0.  1.
        -13    1    3    3    0    0 -0.15954367961E+03 -0.99929636639E+02 -0.41992278629E+03  0.46019046538E+03  0.00000000000E+00 0. -1.
         13    1    3    3    0    0 -0.96734943122E+01 -0.32227419674E+02 -0.24279693466E+02  0.41493211322E+02  0.00000000000E+00 0.  1.
         21    1    1    2  503  502 -0.69994086463E+01  0.28901655294E+02 -0.23173338276E+03  0.23363359794E+03  0.00000000000E+00 0. -1.
          1    1    1    2  501    0 -0.87076565004E+02  0.26018595650E+02 -0.24006514431E+03  0.25669158343E+03  0.00000000000E+00 0. -1.
<scales pt_clust_5="13000.00000" pt_clust_6="13000.00000" pt_clust_7="13000.00000" pt_clust_8="13000.00000" pt_clust_9="29.73714" pt_clust_10="93.53118"></scales>
<clustering>
<clus scale="   29.737">  2  9  1 -1</clus>
<clus scale="   90.944">  7  8 -1 -1</clus>
<clus scale="   92.920">  5  6 -1 -1</clus>
<clus scale="   93.531">  1 10  2 -1</clus>
<clus scale="  257.071">  2  7  1 -1</clus>
<clus scale="   93.531">  1  5  2 -1</clus>
</clustering>
</event>
<event>
10    2  0.3544405E-006  0.1662298E+03  0.7546771E-02  0.1182102E+00
         21   -1    0    0  501  502  0.00000000000E+00  0.00000000000E+00  0.14683876945E+03  0.14683876945E+03  0.00000000000E+00 0. -1.
          1   -1    0    0  503    0 -0.00000000000E+00 -0.00000000000E+00 -0.70426422121E+03  0.70426422121E+03  0.00000000000E+00 0. -1.
         23    2    1    2    0    0  0.10407517677E+03 -0.76291871985E+02 -0.37769483909E+03  0.40963087575E+03  0.92151889515E+02 0.  0.
         23    2    1    2    0    0 -0.51591938092E+02  0.16794070498E+03 -0.14348849883E+03  0.24417444800E+03  0.90368154203E+02 0.  0.
        -11    1    4    4    0    0  0.20411705522E+02  0.24331998772E+02 -0.51576635562E+01  0.32175850881E+02  0.00000000000E+00 0.  1.
         11    1    4    4    0    0 -0.72003643614E+02  0.14360870621E+03 -0.13833083527E+03  0.21199859712E+03  0.00000000000E+00 0. -1.
        -13    1    3    3    0    0  0.12020176418E+03 -0.62169405816E+02 -0.34438422056E+03  0.37001890560E+03  0.00000000000E+00 0.  1.
         13    1    3    3    0    0 -0.16126587410E+02 -0.14122466169E+02 -0.33310618529E+02  0.39611970147E+02  0.00000000000E+00 0. -1.
         21    1    1    2  503  502 -0.19688724778E+02 -0.25778524920E+02 -0.96743040001E+02  0.10203623875E+03  0.00000000000E+00 0. -1.
          1    1    1    2  501    0 -0.32794513900E+02 -0.65870308074E+02  0.60500926167E+02  0.95261428158E+02  0.00000000000E+00 0. -1.
<scales pt_clust_5="13000.00000" pt_clust_6="13000.00000" pt_clust_7="13000.00000" pt_clust_8="13000.00000" pt_clust_9="32.43730" pt_clust_10="74.49788"></scales>
<clustering>
<clus scale="   32.437">  2  9  1 -1</clus>
<clus scale="   74.498">  1 10  2 -1</clus>
<clus scale="   90.368">  5  6 -1 -1</clus>
<clus scale="   92.152">  7  8 -1 -1</clus>
<clus scale="  165.248">  1  5  2 -1</clus>
<clus scale="   74.498">  1  5  2 -1</clus>
</clustering>
</event>
<event>
10    2  0.3544405E-006  0.1384321E+03  0.7546771E-02  0.1216205E+00
          1   -1    0    0  503    0 -0.00000000000E+00  0.00000000000E+00  0.10270672029E+03  0.10270672029E+03  0.00000000000E+00 0. -1.
         21   -1    0    0  501  502  0.00000000000E+00 -0.00000000000E+00 -0.49510550056E+03  0.49510550056E+03  0.00000000000E+00 0.  1.
         23    2    1    2    0    0  0.65683033928E+02 -0.41075867460E+02 -0.13652435740E+03  0.17967179004E+03  0.87416040506E+02 0.  0.
         23    2    1    2    0    0 -0.10506880091E+03  0.88306886253E+02 -0.21757177413E+03  0.27279228715E+03  0.90777728244E+02 0.  0.
        -11    1    4    4    0    0 -0.22372431451E+01  0.30383910140E+02 -0.10632356116E+03  0.11060238203E+03  0.00000000000E+00 0.  1.
         11    1    4    4    0    0 -0.10283155776E+03  0.57922976112E+02 -0.11124821297E+03  0.16218990512E+03  0.00000000000E+00 0. -1.
        -11    1    3    3    0    0  0.61932738225E+02 -0.64047415620E+02 -0.12552139113E+03  0.15392646018E+03  0.00000000000E+00 0.  1.
         11    1    3    3    0    0  0.37502957031E+01  0.22971548160E+02 -0.11002966267E+02  0.25745329856E+02  0.00000000000E+00 0. -1.
         21    1    1    2  503  502  0.17835527874E+02 -0.30706745164E+02  0.45234404743E+02  0.57507926633E+02  0.00000000000E+00 0. -1.
          1    1    1    2  501    0  0.21550239107E+02 -0.16524273629E+02 -0.83537053476E+02  0.87840217031E+02  0.00000000000E+00 0. -1.
<scales pt_clust_5="13000.00000" pt_clust_6="13000.00000" pt_clust_7="13000.00000" pt_clust_8="13000.00000" pt_clust_9="35.88745" pt_clust_10="27.15630"></scales>
<clustering>
<clus scale="   27.156">  2 10  1 -1</clus>
<clus scale="   35.887">  1  9  2 -1</clus>
<clus scale="   87.416">  7  8 -1 -1</clus>
<clus scale="   90.778">  5  6 -1 -1</clus>
<clus scale="  136.251">  1  7  2 -1</clus>
<clus scale="   27.156">  2  5  1 -1</clus>
</clustering>
</event>
<event>
10    2  0.3544405E-006  0.1146301E+03  0.7546771E-02  0.1256405E+00
         21   -1    0    0  501  502  0.00000000000E+00  0.00000000000E+00  0.20460732399E+03  0.20460732399E+03  0.00000000000E+00 0. -1.
          1   -1    0    0  503    0 -0.00000000000E+00 -0.00000000000E+00 -0.11086644643E+03  0.11086644643E+03  0.00000000000E+00 0. -1.
         23    2    1    2    0    0  0.24696460089E+02 -0.32635178319E+02  0.13028941058E+02  0.96436280456E+02  0.86343690437E+02 0.  0.
         23    2    1    2    0    0 -0.16447506664E+02  0.87803824721E+02  0.48639743243E+02  0.14074049518E+03  0.97272967721E+02 0.  0.
        -11    1    3    3    0    0  0.51610564609E+02 -0.37920033806E+02 -0.39719937912E+01  0.64166627446E+02  0.00000000000E+00 0. -1.
         11    1    3    3    0    0 -0.26914104520E+02  0.52848554869E+01  0.17000934849E+02  0.32269653010E+02  0.00000000000E+00 0.  1.
        -13    1    4    4    0    0  0.26857236018E+02  0.15102419354E+01 -0.89138291942E+01  0.28338106997E+02  0.00000000000E+00 0.  1.
         13    1    4    4    0    0 -0.43304742683E+02  0.86293582785E+02  0.57553572438E+02  0.11240238818E+03  0.00000000000E+00 0. -1.
         21    1    1    2  503  502 -0.72685013568E+01 -0.23744598794E+02 -0.91409200225E+01  0.26461169715E+02  0.00000000000E+00 0. -1.
          1    1    1    2  501    0 -0.98045206773E+00 -0.31424047608E+02  0.41213113281E+02  0.51835825069E+02  0.00000000000E+00 0. -1.
<scales pt_clust_5="13000.00000" pt_clust_6="13000.00000" pt_clust_7="13000.00000" pt_clust_8="13000.00000" pt_clust_9="24.83218" pt_clust_10="32.80886"></scales>
<clustering>
<clus scale="   24.832">  2  9  1 -1</clus>
<clus scale="   32.809">  1 10  2 -1</clus>
<clus scale="   86.344">  5  6 -1 -1</clus>
<clus scale="   97.273">  7  8 -1 -1</clus>
<clus scale="  105.514">  2  5  1 -1</clus>
<clus scale="   32.809">  1  5  2 -1</clus>
</clustering>
</event>
<event>
10    2  0.3544405E-006  0.1638415E+03  0.7546771E-02  0.1190527E+00
         21   -1    0    0  501  502  0.00000000000E+00  0.00000000000E+00  0.35390963915E+03  0.35390963915E+03  0.00000000000E+00 0. -1.
          1   -1    0    0  503    0 -0.00000000000E+00 -0.00000000000E+00 -0.49889934595E+03  0.49889934595E+03  0.00000000000E+00 0. -1.
         23    2    1    2    0    0 -0.99110143746E+02  0.64235431357E+02 -0.31429322144E+03  0.34807064357E+03  0.91781984265E+02 0.  0.
         23    2    1    2    0    0  0.95038229152E+02  0.72012410262E+02 -0.75551871180E+02  0.16784498690E+03  0.90806399314E+02 0.  0.
        -11    1    3    3    0    0 -0.58091189260E+02  0.26917504281E+02 -0.59808102378E+02  0.87613625746E+02  0.00000000000E+00 0.  1.
         11    1    3    3    0    0 -0.41018954486E+02  0.37317927077E+02 -0.25448511906E+03  0.26045701782E+03  0.00000000000E+00 0. -1.
        -13    1    4    4    0    0  0.54010582565E+02  0.68236973389E+02 -0.62866355318E+01  0.87252216893E+02  0.00000000000E+00 0. -1.
         13    1    4    4    0    0  0.41027646587E+02  0.37754368726E+01 -0.69265235648E+02  0.80592770007E+02  0.00000000000E+00 0.  1.
         21    1    1    2  503  502  0.19565591055E+02  0.68505023188E+01 -0.24134346743E+02  0.31815223213E+02  0.00000000000E+00 0. -1.
          1    1    1    2  501    0 -0.15493676461E+02 -0.14309834394E+03  0.26898973256E+03  0.30507813142E+03  0.00000000000E+00 0. -1.
<scales pt_clust_5="13000.00000" pt_clust_6="13000.00000" pt_clust_7="13000.00000" pt_clust_8="13000.00000" pt_clust_9="20.73021" pt_clust_10="136.37534"></scales>
<clustering>
<clus scale="   20.730">  2  9  1 -1</clus>
<clus scale="   90.806">  7  8 -1 -1</clus>
<clus scale="   91.782">  5  6 -1 -1</clus>
<clus scale="  143.098">  2  5  1 -1</clus>
<clus scale="  136.375">  1 10  2 -1</clus>
<clus scale="  136.375">  1  5  2 -1</clus>
</clustering>
</event>
<event>
10    2  0.3544405E-006  0.2094007E+03  0.7546771E-02  0.1142900E+00
         21   -1    0    0  501  502  0.00000000000E+00  0.00000000000E+00  0.82575607717E+02  0.82575607717E+02  0.00000000000E+00 0. -1.
          1   -1    0    0  503    0 -0.00000000000E+00 -0.00000000000E+00 -0.13911375146E+04  0.13911375146E+04  0.00000000000E+00 0. -1.
         23    2    1    2    0    0 -0.18203999361E+03 -0.97716997693E+02 -0.73003153816E+03  0.76421002021E+03  0.91562751048E+02 0.  0.
         23    2    1    2    0    0  0.17074076113E+03 -0.62426511978E+02 -0.28653790510E+03  0.35398990442E+03  0.10077402672E+03 0.  0.
        -13    1    3    3    0    0 -0.14594455139E+03 -0.11142670590E+03 -0.64856572801E+03  0.67405728720E+03  0.00000000000E+00 0. -1.
         13    1    3    3    0    0 -0.36095442221E+02  0.13709708207E+02 -0.81465810141E+02  0.90152733016E+02  0.00000000000E+00 0.  1.
        -13    1    4    4    0    0  0.94644168018E+02  0.14254470782E+02 -0.16993022610E+03  0.19503074173E+03  0.00000000000E+00 0. -1.
         13    1    4    4    0    0  0.76096593112E+02 -0.76680982760E+02 -0.11660767899E+03  0.15895916268E+03  0.00000000000E+00 0.  1.
         21    1    1    2  503  502  0.57221056541E+02  0.13034437777E+03 -0.24506503529E+03  0.28340920530E+03  0.00000000000E+00 0. -1.
          1    1    1    2  501    0 -0.45921824060E+02  0.29799131898E+02 -0.46927428326E+02  0.72103992374E+02  0.00000000000E+00 0. -1.
<scales pt_clust_5="13000.00000" pt_clust_6="13000.00000" pt_clust_7="13000.00000" pt_clust_8="13000.00000" pt_clust_9="145.52377" pt_clust_10="54.74306"></scales>
<clustering>
<clus scale="   54.743">  1 10  2 -1</clus>
<clus scale="   91.563">  5  6 -1 -1</clus>
<clus scale="  100.774">  7  8 -1 -1</clus>
<clus scale="  145.524">  1  9  2 -1</clus>
<clus scale="  205.127">  2  5  1 -1</clus>
<clus scale="   54.743">  1  5  2 -1</clus>
</clustering>
</event>
<event>
10    2  0.3544405E-006  0.1059251E+03  0.7546771E-02  0.1273396E+00
         21   -1    0    0  503  502  0.00000000000E+00  0.00000000000E+00  0.17784027025E+03  0.17784027025E+03  0.00000000000E+00 0.  1.
         -2   -1    0    0    0  501 -0.00000000000E+00 -0.00000000000E+00 -0.47425557135E+03  0.47425557135E+03  0.00000000000E+00 0.  1.
         23    2    1    2    0    0 -0.49837960627E+01 -0.54089864393E+01 -0.29060618748E+03  0.30472937714E+03  0.91399900072E+02 0.  0.
         23    2    1    2    0    0 -0.60918496147E+01  0.49496435458E+02 -0.12500219310E+02  0.94842247877E+02  0.79698110045E+02 0.  0.
        -11    1    3    3    0    0 -0.45377756570E+02 -0.36390801749E+01 -0.99889423410E+02  0.10977377011E+03  0.00000000000E+00 0.  1.
         11    1    3    3    0    0  0.40393960507E+02 -0.17699062644E+01 -0.19071676407E+03  0.19495560702E+03  0.00000000000E+00 0. -1.
        -13    1    4    4    0    0 -0.15563567439E+02  0.69511961154E+02 -0.47863118468E+01  0.71393600245E+02  0.00000000000E+00 0. -1.
         13    1    4    4    0    0  0.94717178243E+01 -0.20015525696E+02 -0.77139074632E+01  0.23448647632E+02  0.00000000000E+00 0.  1.
         21    1    1    2  503  501  0.58305230690E+01 -0.65294234207E+02 -0.11311771746E+03  0.13074000927E+03  0.00000000000E+00 0.  1.
         -2    1    1    2    0  502  0.52451226084E+01  0.21206785188E+02  0.11980882314E+03  0.12178420732E+03  0.00000000000E+00 0.  1.
<scales pt_clust_5="13000.00000" pt_clust_6="13000.00000" pt_clust_7="13000.00000" pt_clust_8="13000.00000" pt_clust_9="62.37309" pt_clust_10="21.84580"></scales>
<clustering>
<clus scale="   21.846">  1 10  2 -1</clus>
<clus scale="   62.373">  2  9  1 -1</clus>
<clus scale="   79.698">  7  8 -1 -1</clus>
<clus scale="   91.400">  5  6 -1 -1</clus>
<clus scale="   96.010">  1  7  2 -1</clus>
<clus scale="   21.846">  1  5  2 -1</clus>
</clustering>
</event>
<event>
10    2  0.3544405E-006  0.1588265E+03  0.7546771E-02  0.1190029E+00
         21   -1    0    0  501  502  0.00000000000E+00  0.00000000000E+00  0.16954067046E+03  0.16954067046E+03  0.00000000000E+00 0. -1.
          1   -1    0    0  503    0 -0.00000000000E+00 -0.00000000000E+00 -0.45591290764E+03  0.45591290764E+03  0.00000000000E+00 0. -1.
         23    2    1    2    0    0  0.99883278414E+02 -0.99146075924E+02 -0.16868855361E+03  0.23806142644E+03  0.91710419051E+02 0.  0.
         23    2    1    2    0    0 -0.22759778005E+02  0.12950067692E+03 -0.15988154253E+03  0.22640648077E+03  0.91702530366E+02 0.  0.
        -11    1    4    4    0    0 -0.38495437545E+02  0.25517061630E+02 -0.17484335739E+02  0.49383409585E+02  0.00000000000E+00 0.  1.
         11    1    4    4    0    0  0.15735659541E+02  0.10398361529E+03 -0.14239720679E+03  0.17702307119E+03  0.00000000000E+00 0. -1.
        -13    1    3    3    0    0  0.76727674922E+02 -0.12125775023E+02 -0.84644061326E+02  0.11488597667E+03  0.00000000000E+00 0.  1.
         13    1    3    3    0    0  0.23155603492E+02 -0.87020300901E+02 -0.84044492280E+02  0.12317544976E+03  0.00000000000E+00 0. -1.
         21    1    1    2  503  502 -0.34125991059E+02 -0.12691986916E+02 -0.47565111839E+02  0.59900831897E+02  0.00000000000E+00 0. -1.
          1    1    1    2  501    0 -0.42997509350E+02 -0.17662614084E+02  0.89762970802E+02  0.10108483899E+03  0.00000000000E+00 0. -1.
<scales pt_clust_5="13000.00000" pt_clust_6="13000.00000" pt_clust_7="13000.00000" pt_clust_8="13000.00000" pt_clust_9="36.40975" pt_clust_10="46.99611"></scales>
<clustering>
<clus scale="   36.410">  2  9  1 -1</clus>
<clus scale="   46.996">  1 10  2 -1</clus>
<clus scale="   91.703">  5  6 -1 -1</clus>
<clus scale="   91.710">  7  8 -1 -1</clus>
<clus scale="  158.822">  1  5  2 -1</clus>
<clus scale="   46.996">  1  5  2 -1</clus>
</clustering>
</event>
<event>
10    2  0.3544405E-006  0.1568119E+03  0.7546771E-02  0.1192829E+00
          1   -1    0    0  503    0 -0.00000000000E+00  0.00000000000E+00  0.24575746784E+03  0.24575746784E+03  0.00000000000E+00 0. -1.
         21   -1    0    0  501  502  0.00000000000E+00 -0.00000000000E+00 -0.20680777274E+03  0.20680777274E+03  0.00000000000E+00 0.  1.
         23    2    1    2    0    0  0.42178720972E+01  0.10517620877E+03  0.33203219158E+02  0.14313024831E+03  0.91126224997E+02 0.  0.
         23    2    1    2    0    0 -0.76166433383E+02 -0.13937400938E+03 -0.62412121674E+02  0.19211001543E+03  0.88230068742E+02 0.  0.
        -13    1    3    3    0    0 -0.17027646115E+02  0.49001930751E+02  0.58301053477E+02  0.78039366900E+02  0.00000000000E+00 0. -1.
         13    1    3    3    0    0  0.21245518213E+02  0.56174278018E+02 -0.25097834319E+02  0.65090881408E+02  0.00000000000E+00 0.  1.
        -13    1    4    4    0    0 -0.56256987883E+02 -0.14876069370E+03 -0.49389916597E+02  0.16653515106E+03  0.00000000000E+00 0.  1.
         13    1    4    4    0    0 -0.19909445499E+02  0.93866843177E+01 -0.13022205077E+02  0.25574864372E+02  0.00000000000E+00 0. -1.
         21    1    1    2  503  502  0.56269080975E+02  0.12996953786E+02  0.70170706137E+02  0.90879361140E+02  0.00000000000E+00 0. -1.
          1    1    1    2  501    0  0.15679480310E+02  0.21200846827E+02 -0.20121085213E+01  0.26445615699E+02  0.00000000000E+00 0. -1.
<scales pt_clust_5="13000.00000" pt_clust_6="13000.00000" pt_clust_7="13000.00000" pt_clust_8="13000.00000" pt_clust_9="58.83574" pt_clust_10="26.36896"></scales>
<clustering>
<clus scale="   26.369">  2 10  1 -1</clus>
<clus scale="   58.836">  1  9  2 -1</clus>
<clus scale="   88.230">  7  8 -1 -1</clus>
<clus scale="   91.126">  5  6 -1 -1</clus>
<clus scale="  155.147">  2  7  1 -1</clus>
<clus scale="   26.369">  2  5  1 -1</clus>
</clustering>
</event>
<event>
10    2  0.3544405E-006  0.9782503E+02  0.7546771E-02  0.1285163E+00
         21   -1    0    0  501  502  0.00000000000E+00  0.00000000000E+00  0.13490035451E+03  0.13490035451E+03  0.00000000000E+00 0. -1.
          3   -1    0    0  503    0 -0.00000000000E+00 -0.00000000000E+00 -0.37283184329E+03  0.37283184329E+03  0.00000000000E+00 0. -1.
         23    2    1    2    0    0 -0.31894079990E+02  0.53198616422E+02 -0.13880276409E+03  0.17744652273E+03  0.91508119761E+02 0.  0.
         23    2    1    2    0    0 -0.36606258477E+01 -0.13955113769E+02 -0.15226549280E+02  0.94313515703E+02  0.91951324402E+02 0.  0.
        -11    1    4    4    0    0 -0.27801140121E+02 -0.22783397600E+02  0.26947384129E+02  0.44923803374E+02  0.00000000000E+00 0.  1.
         11    1    4    4    0    0  0.24140514274E+02  0.88282838304E+01 -0.42173933408E+02  0.49389712328E+02  0.00000000000E+00 0. -1.
        -11    1    3    3    0    0 -0.55913714367E+02  0.10729585000E+02 -0.48437479355E+02  0.74750631133E+02  0.00000000000E+00 0.  1.
         11    1    3    3    0    0  0.24019634376E+02  0.42469031423E+02 -0.90365284738E+02  0.10269589160E+03  0.00000000000E+00 0. -1.
         21    1    1    2  503  502  0.21571251038E+02 -0.23136936341E+02 -0.15683036227E+03  0.15998874718E+03  0.00000000000E+00 0. -1.
          3    1    1    2  501    0  0.13983454800E+02 -0.16106566312E+02  0.72928186870E+02  0.75983412181E+02  0.00000000000E+00 0. -1.
<scales pt_clust_5="13000.00000" pt_clust_6="13000.00000" pt_clust_7="13000.00000" pt_clust_8="13000.00000" pt_clust_9="32.18977" pt_clust_10="21.32976"></scales>
<clustering>
<clus scale="   21.330">  1 10  2 -1</clus>
<clus scale="   32.190">  2  9  1 -1</clus>
<clus scale="   91.508">  7  8 -1 -1</clus>
<clus scale="   91.951">  5  6 -1 -1</clus>
<clus scale="   97.409">  2  7  1 -1</clus>
<clus scale="   21.330">  1  5  2 -1</clus>
</clustering>
</event>
<event>
10    2  0.3544405E-006  0.1060097E+03  0.7546771E-02  0.1268265E+00
         21   -1    0    0  503  502  0.00000000000E+00  0.00000000000E+00  0.10875241899E+03  0.10875241899E+03  0.00000000000E+00 0. -1.
         -1   -1    0    0    0  501 -0.00000000000E+00 -0.00000000000E+00 -0.99162825297E+03  0.99162825297E+03  0.00000000000E+00 0.  1.
         23    2    1    2    0    0  0.76126026187E+02  0.48655197109E+02 -0.39297849614E+03  0.41347747914E+03  0.91482387692E+02 0.  0.
         23    2    1    2    0    0  0.21282114713E+02 -0.65189360275E+02 -0.18255937646E+03  0.21528236617E+03  0.91192050910E+02 0.  0.
        -13    1    4    4    0    0 -0.25867825903E+02  0.83588133733E-01 -0.84654984061E+02  0.88519024679E+02  0.00000000000E+00 0.  1.
         13    1    4    4    0    0  0.47149940615E+02 -0.65272948409E+02 -0.97904392401E+02  0.12676334149E+03  0.00000000000E+00 0. -1.
        -13    1    3    3    0    0 -0.13673725250E+01  0.41498950515E+02 -0.71206376843E+02  0.82428033487E+02  0.00000000000E+00 0.  1.
         13    1    3    3    0    0  0.77493398712E+02  0.71562465936E+01 -0.32177211930E+03  0.33104944565E+03  0.00000000000E+00 0. -1.
         21    1    1    2  503  501 -0.72305470171E+02 -0.15061343177E+02 -0.38075085129E+03  0.38784808344E+03  0.00000000000E+00 0.  1.
         -1    1    1    2    0  502 -0.25102670729E+02  0.31595506344E+02  0.73412889915E+02  0.83772743207E+02  0.00000000000E+00 0.  1.
<scales pt_clust_5="13000.00000" pt_clust_6="13000.00000" pt_clust_7="13000.00000" pt_clust_8="13000.00000" pt_clust_9="76.10920" pt_clust_10="40.35369"></scales>
<clustering>
<clus scale="   40.354">  1 10  2 -1</clus>
<clus scale="   76.109">  2  9  1 -1</clus>
<clus scale="   91.192">  5  6 -1 -1</clus>
<clus scale="   91.482">  7  8 -1 -1</clus>
<clus scale="  105.759">  1  5  2 -1</clus>
<clus scale="   40.354">  1  5  2 -1</clus>
</clustering>
</event>
<event>
10    2  0.3544405E-006  0.9540857E+02  0.7546771E-02  0.1291048E+00
         21   -1    0    0  501  502  0.00000000000E+00  0.00000000000E+00  0.26946577591E+03  0.26946577591E+03  0.00000000000E+00 0.  1.
          2   -1    0    0  503    0 -0.00000000000E+00 -0.00000000000E+00 -0.10610658093E+03  0.10610658093E+03  0.00000000000E+00 0. -1.
         23    2    1    2    0    0  0.10213587084E+02 -0.39657294798E+01  0.34107235999E+00  0.91611681659E+02  0.90953501937E+02 0.  0.
         23    2    1    2    0    0 -0.93462772509E+01 -0.43409660692E+02  0.15535256961E+03  0.18612788406E+03  0.92398142830E+02 0.  0.
        -11    1    4    4    0    0 -0.28069928373E+02 -0.63558881041E+02  0.13526938664E+03  0.15207057309E+03  0.00000000000E+00 0.  1.
         11    1    4    4    0    0  0.18723651122E+02  0.20149220349E+02  0.20083182975E+02  0.34057310969E+02  0.00000000000E+00 0. -1.
        -11    1    3    3    0    0 -0.38134247947E+02 -0.20797500867E+01 -0.14731662996E+02  0.40933703980E+02  0.00000000000E+00 0.  1.
         11    1    3    3    0    0  0.48347835031E+02 -0.18859793931E+01  0.15072735356E+02  0.50677977678E+02  0.00000000000E+00 0. -1.
         21    1    1    2  503  502  0.41981394329E+01  0.26619656197E+02 -0.38481875645E+02  0.46979625626E+02  0.00000000000E+00 0.  1.
          2    1    1    2  501    0 -0.50654492657E+01  0.20755733974E+02  0.46147428664E+02  0.50853165500E+02  0.00000000000E+00 0. -1.
<scales pt_clust_5="13000.00000" pt_clust_6="13000.00000" pt_clust_7="13000.00000" pt_clust_8="13000.00000" pt_clust_9="27.32818" pt_clust_10="21.36491"></scales>
<clustering>
<clus scale="   21.365">  1 10  2 -1</clus>
<clus scale="   27.328">  2  9  1 -1</clus>
<clus scale="   90.954">  7  8 -1 -1</clus>
<clus scale="   92.398">  5  6 -1 -1</clus>
<clus scale="   94.010">  2  7  1 -1</clus>
<clus scale="   21.365">  1  5  2 -1</clus>
</clustering>
</event>
<event>
10    2  0.3544405E-006  0.1036728E+03  0.7546771E-02  0.1272974E+00
         -1   -1    0    0    0  501 -0.00000000000E+00  0.00000000000E+00  0.45743546733E+03  0.45743546733E+03  0.00000000000E+00 0.  1.
         21   -1    0    0  503  502  0.00000000000E+00 -0.00000000000E+00 -0.87279346403E+02  0.87279346403E+02  0.00000000000E+00 0. -1.
         23    2    1    2    0    0  0.21546858429E+02 -0.44412155121E+02  0.85382959592E+02  0.13574399313E+03  0.93270977542E+02 0.  0.
         23    2    1    2    0    0  0.44498319442E+02  0.44796421667E+02  0.12446081660E+02  0.11371344989E+03  0.93749794185E+02 0.  0.
        -11    1    4    4    0    0  0.32571036232E+02  0.17773990198E+02  0.52288542759E+02  0.64116135509E+02  0.00000000000E+00 0.  1.
         11    1    4    4    0    0  0.11927283210E+02  0.27022431469E+02 -0.39842461099E+02  0.49597314380E+02  0.00000000000E+00 0. -1.
        -11    1    3    3    0    0 -0.34261756145E+02 -0.16744353362E+02  0.13094537294E+02  0.40320072056E+02  0.00000000000E+00 0.  1.
         11    1    3    3    0    0  0.55808614574E+02 -0.27667801760E+02  0.72288422298E+02  0.95423921074E+02  0.00000000000E+00 0. -1.
         21    1    1    2  503  501 -0.47842926539E+02  0.10124033920E+02  0.26967485620E+03  0.27407292780E+03  0.00000000000E+00 0.  1.
         -1    1    1    2    0  502 -0.18202251331E+02 -0.10508300466E+02  0.26522234676E+01  0.21184442913E+02  0.00000000000E+00 0.  1.
<scales pt_clust_5="13000.00000" pt_clust_6="13000.00000" pt_clust_7="13000.00000" pt_clust_8="13000.00000" pt_clust_9="49.34460" pt_clust_10="21.01776"></scales>
<clustering>
<clus scale="   21.018">  2 10  1 -1</clus>
<clus scale="   49.345">  1  9  2 -1</clus>
<clus scale="   93.271">  7  8 -1 -1</clus>
<clus scale="   93.750">  5  6 -1 -1</clus>
<clus scale="  103.240">  1  7  2 -1</clus>
<clus scale="   21.018">  2  5  1 -1</clus>
</clustering>
</event>
<event>
10    2  0.3544405E-006  0.1485390E+03  0.7546771E-02  0.1216470E+00
          1   -1    0    0  503    0 -0.00000000000E+00  0.00000000000E+00  0.49366445533E+03  0.49366445533E+03  0.00000000000E+00 0. -1.
         21   -1    0    0  501  502  0.00000000000E+00 -0.00000000000E+00 -0.14062148760E+03  0.14062148760E+03  0.00000000000E+00 0.  1.
         23    2    1    2    0    0 -0.47631528526E+02  0.30871605913E+02  0.16250462209E+02  0.10754632705E+03  0.89890580036E+02 0.  0.
         23    2    1    2    0    0 -0.28222380972E+02  0.56004843339E+02  0.13486485155E+03  0.17563041344E+03  0.93404864302E+02 0.  0.
        -11    1    3    3    0    0 -0.30156528287E+02  0.45917793696E+00 -0.34518994144E+02  0.45838717253E+02  0.00000000000E+00 0.  1.
         11    1    3    3    0    0 -0.17475000240E+02  0.30412427976E+02  0.50769456354E+02  0.61707609800E+02  0.00000000000E+00 0. -1.
        -13    1    4    4    0    0 -0.29403953050E+02  0.90660820333E+01  0.12356187995E+03  0.12733548004E+03  0.00000000000E+00 0.  1.
         13    1    4    4    0    0  0.11815720783E+01  0.46938761305E+02  0.11302971600E+02  0.48294933403E+02  0.00000000000E+00 0. -1.
         21    1    1    2  503  502 -0.29839676910E+02  0.46261409907E+01  0.20896248780E+03  0.21113296475E+03  0.00000000000E+00 0.  1.
          1    1    1    2  501    0  0.10569358641E+03 -0.91502590242E+02 -0.70348338354E+01  0.13997623768E+03  0.00000000000E+00 0. -1.
<scales pt_clust_5="13000.00000" pt_clust_6="13000.00000" pt_clust_7="13000.00000" pt_clust_8="13000.00000" pt_clust_9="30.19615" pt_clust_10="115.49615"></scales>
<clustering>
<clus scale="   30.196">  1  9  2 -1</clus>
<clus scale="   89.891">  5  6 -1 -1</clus>
<clus scale="   93.405">  7  8 -1 -1</clus>
<clus scale="  109.674">  1  5  2 -1</clus>
<clus scale="  115.496">  2 10  1 -1</clus>
<clus scale="  115.496">  2  5  1 -1</clus>
</clustering>
</event>
<event>
10    2  0.3544405E-006  0.1203363E+03  0.7546771E-02  0.1243282E+00
         21   -1    0    0  503  502  0.00000000000E+00  0.00000000000E+00  0.10150469091E+03  0.10150469091E+03  0.00000000000E+00 0.  1.
         -2   -1    0    0    0  501 -0.00000000000E+00 -0.00000000000E+00 -0.58703206339E+03  0.58703206339E+03  0.00000000000E+00 0.  1.
         23    2    1    2    0    0 -0.50825483021E+02 -0.98561340434E+02 -0.35284712297E+03  0.38059674495E+03  0.89750891498E+02 0.  0.
         23    2    1    2    0    0  0.34250907280E+01  0.46892174808E+02 -0.13128330800E+03  0.16711447919E+03  0.92094163183E+02 0.  0.
        -11    1    4    4    0    0 -0.18788339400E+02 -0.13991309524E+02 -0.83148412116E+02  0.86385281600E+02  0.00000000000E+00 0. -1.
         11    1    4    4    0    0  0.22213430128E+02  0.60883484332E+02 -0.48134895880E+02  0.80729197592E+02  0.00000000000E+00 0.  1.
        -13    1    3    3    0    0 -0.36688816575E+02 -0.80177936175E+02 -0.34503912108E+03  0.35612717642E+03  0.00000000000E+00 0.  1.
         13    1    3    3    0    0 -0.14136666446E+02 -0.18383404258E+02 -0.78080018901E+01  0.24469568526E+02  0.00000000000E+00 0. -1.
         21    1    1    2  503  501  0.44040455778E+02  0.19027468260E+00 -0.52285234320E+02  0.68361858353E+02  0.00000000000E+00 0.  1.
         -2    1    1    2    0  502  0.33599365144E+01  0.51478890943E+02  0.50888292810E+02  0.72463671804E+02  0.00000000000E+00 0.  1.
<scales pt_clust_5="13000.00000" pt_clust_6="13000.00000" pt_clust_7="13000.00000" pt_clust_8="13000.00000" pt_clust_9="44.04087" pt_clust_10="51.65890"></scales>
<clustering>
<clus scale="   44.041">  2  9  1 -1</clus>
<clus scale="   51.659">  1 10  2 -1</clus>
<clus scale="   89.751">  7  8 -1 -1</clus>
<clus scale="   92.094">  5  6 -1 -1</clus>
<clus scale="  118.553">  2  7  1 -1</clus>
<clus scale="   51.659">  1  5  2 -1</clus>
</clustering>
</event>
<event>
10    2  0.3544405E-006  0.1334830E+03  0.7546771E-02  0.1222453E+00
         21   -1    0    0  501  502  0.00000000000E+00  0.00000000000E+00  0.68098539260E+03  0.68098539260E+03  0.00000000000E+00 0. -1.
          1   -1    0    0  503    0 -0.00000000000E+00 -0.00000000000E+00 -0.37459693709E+03  0.37459693709E+03  0.00000000000E+00 0. -1.
         23    2    1    2    0    0 -0.35147800569E+01  0.13463610003E+03 -0.29631822190E+03  0.33817499994E+03  0.91752977307E+02 0.  0.
         23    2    1    2    0    0  0.17793111589E+02 -0.26947386748E+02  0.42972738055E+03  0.44053470162E+03  0.91446406506E+02 0.  0.
        -13    1    3    3    0    0 -0.18845613699E+02 -0.71826789336E+01 -0.32085952046E+02  0.37897972915E+02  0.00000000000E+00 0.  1.
         13    1    3    3    0    0  0.15330833643E+02  0.14181877897E+03 -0.26423226985E+03  0.30027702703E+03  0.00000000000E+00 0. -1.
        -13    1    4    4    0    0 -0.23791467877E+02 -0.44317734302E+02  0.26622168131E+03  0.27093187172E+03  0.00000000000E+00 0.  1.
         13    1    4    4    0    0  0.41584579466E+02  0.17370347554E+02  0.16350569924E+03  0.16960282990E+03  0.00000000000E+00 0. -1.
         21    1    1    2  503  502  0.16026896780E+02 -0.35848058104E+02 -0.36340089163E+02  0.53502773485E+02  0.00000000000E+00 0. -1.
          1    1    1    2  501    0 -0.30305228312E+02 -0.71840655181E+02  0.20931938602E+03  0.22336985465E+03  0.00000000000E+00 0. -1.
<scales pt_clust_5="13000.00000" pt_clust_6="13000.00000" pt_clust_7="13000.00000" pt_clust_8="13000.00000" pt_clust_9="39.26760" pt_clust_10="78.54455"></scales>
<clustering>
<clus scale="   39.268">  2  9  1 -1</clus>
<clus scale="   78.545">  1 10  2 -1</clus>
<clus scale="   91.446">  7  8 -1 -1</clus>
<clus scale="   91.753">  5  6 -1 -1</clus>
<clus scale="  133.272">  1  7  2 -1</clus>
<clus scale="   78.545">  1  5  2 -1</clus>
</clustering>
</event>
<event>
10    2  0.3544405E-006  0.1656247E+03  0.7546771E-02  0.1183046E+00
         -1   -1    0    0    0  501 -0.00000000000E+00  0.00000000000E+00  0.25241622052E+03  0.25241622052E+03  0.00000000000E+00 0.  1.
         21   -1    0    0  503  502  0.00000000000E+00 -0.00000000000E+00 -0.47725778249E+03  0.47725778249E+03  0.00000000000E+00 0. -1.
         23    2    1    2    0    0  0.14588875238E+03 -0.38112616155E+02 -0.15590108372E+01  0.17634867098E+03  0.91434805519E+02 0.  0.
         23    2    1    2    0    0 -0.13049068087E+03 -0.41034990096E+02 -0.10318211423E+02  0.16279651371E+03  0.87661571874E+02 0.  0.
        -11    1    3    3    0    0  0.10898785558E+03  0.13047004738E+02  0.15866581757E+02  0.11090683213E+03  0.00000000000E+00 0.  1.
         11    1    3    3    0    0  0.36900896796E+02 -0.51159620893E+02 -0.17425592595E+02  0.65441838846E+02  0.00000000000E+00 0. -1.
        -11    1    4    4    0    0 -0.81531268109E+02 -0.55201736146E+02 -0.37102247984E+02  0.10521956167E+03  0.00000000000E+00 0. -1.
         11    1    4    4    0    0 -0.48959412764E+02  0.14166746050E+02  0.26784036561E+02  0.57576952041E+02  0.00000000000E+00 0.  1.
         21    1    1    2  503  501 -0.22648614759E+01  0.11533779144E+03  0.49300623785E+02  0.12545312765E+03  0.00000000000E+00 0.  1.
         -1    1    1    2    0  502 -0.13133210028E+02 -0.36190185187E+02 -0.26226496350E+03  0.26507569067E+03  0.00000000000E+00 0.  1.
<scales pt_clust_5="13000.00000" pt_clust_6="13000.00000" pt_clust_7="13000.00000" pt_clust_8="13000.00000" pt_clust_9="108.98355" pt_clust_10="38.49949"></scales>
<clustering>
<clus scale="   38.499">  2 10  1 -1</clus>
<clus scale="   87.662">  7  8 -1 -1</clus>
<clus scale="   91.435">  5  6 -1 -1</clus>
<clus scale="  108.984">  1  9  2 -1</clus>
<clus scale="  163.572">  2  7  1 -1</clus>
<clus scale="   38.499">  2  5  1 -1</clus>
</clustering>
</event>
<event>
10    2  0.3544405E-006  0.1001904E+03  0.7546771E-02  0.1283289E+00
         21   -1    0    0  501  502  0.00000000000E+00  0.00000000000E+00  0.27848243127E+03  0.27848243127E+03  0.00000000000E+00 0. -1.
          1   -1    0    0  503    0 -0.00000000000E+00 -0.00000000000E+00 -0.15839001226E+03  0.15839001226E+03  0.00000000000E+00 0. -1.
         23    2    1    2    0    0 -0.22461963154E+02  0.18641292676E+02 -0.88310636084E+02  0.12933600686E+03  0.89872112715E+02 0.  0.
         23    2    1    2    0    0  0.36765124105E+02 -0.21338352139E+02  0.15811507697E+03  0.18349664212E+03  0.82847090953E+02 0.  0.
        -11    1    3    3    0    0 -0.53709443695E+02  0.29545022333E+02 -0.60144452199E+02  0.85877632810E+02  0.00000000000E+00 0.  1.
         11    1    3    3    0    0  0.31247480541E+02 -0.10903729657E+02 -0.28166183885E+02  0.43458374052E+02  0.00000000000E+00 0. -1.
        -11    1    4    4    0    0  0.17498800445E+02 -0.50116448713E+02  0.63633343712E+02  0.82867779508E+02  0.00000000000E+00 0.  1.
         11    1    4    4    0    0  0.19266323660E+02  0.28778096574E+02  0.94481733261E+02  0.10062886261E+03  0.00000000000E+00 0. -1.
         21    1    1    2  503  502 -0.35840299303E+01  0.21353185920E+02 -0.32193987233E+02  0.38797636957E+02  0.00000000000E+00 0.  1.
          1    1    1    2  501    0 -0.10719131020E+02 -0.18656126457E+02  0.82481965351E+02  0.85242157600E+02  0.00000000000E+00 0. -1.
<scales pt_clust_5="13000.00000" pt_clust_6="13000.00000" pt_clust_7="13000.00000" pt_clust_8="13000.00000" pt_clust_9="21.37109" pt_clust_10="21.51629"></scales>
<clustering>
<clus scale="   21.516">  1 10  2 -1</clus>
<clus scale="   21.371">  2  9  1 -1</clus>
<clus scale="   82.847">  7  8 -1 -1</clus>
<clus scale="   89.872">  5  6 -1 -1</clus>
<clus scale="   93.940">  1  7  2 -1</clus>
<clus scale="   21.516">  1  5  2 -1</clus>
</clustering>
</event>
<event>
10    2  0.3544405E-006  0.1668810E+03  0.7546771E-02  0.1181360E+00
         21   -1    0    0  503  502  0.00000000000E+00  0.00000000000E+00  0.42045212314E+03  0.42045212314E+03  0.00000000000E+00 0.  1.
         -1   -1    0    0    0  501 -0.00000000000E+00 -0.00000000000E+00 -0.28793470547E+03  0.28793470547E+03  0.00000000000E+00 0.  1.
         23    2    1    2    0    0 -0.50202556018E+02 -0.10747510993E+03 -0.10439858841E+03  0.18356609055E+03  0.93414391032E+02 0.  0.
         23    2    1    2    0    0  0.93928570537E+02  0.17905644274E+03  0.22142678851E+02  0.22321969088E+03  0.91939904937E+02 0.  0.
        -11    1    4    4    0    0 -0.12489566592E+02  0.20285309668E+02  0.21489252990E+02  0.32082254535E+02  0.00000000000E+00 0.  1.
         11    1    4    4    0    0  0.10641813713E+03  0.15877113307E+03  0.65342586098E+00  0.19113743634E+03  0.00000000000E+00 0. -1.
        -13    1    3    3    0    0 -0.31708830640E+02 -0.12286126418E+03 -0.86119393604E+02  0.15335217680E+03  0.00000000000E+00 0.  1.
         13    1    3    3    0    0 -0.18493725379E+02  0.15386154248E+02 -0.18279194810E+02  0.30213913745E+02  0.00000000000E+00 0. -1.
         21    1    1    2  503  501  0.23440086865E+02 -0.62954843079E+01 -0.30542241688E+02  0.39011528069E+02  0.00000000000E+00 0. -1.
         -1    1    1    2    0  502 -0.67166101384E+02 -0.65285848500E+02  0.24531556892E+03  0.26258951911E+03  0.00000000000E+00 0.  1.
<scales pt_clust_5="13000.00000" pt_clust_6="13000.00000" pt_clust_7="13000.00000" pt_clust_8="13000.00000" pt_clust_9="24.27078" pt_clust_10="93.24608"></scales>
<clustering>
<clus scale="   24.271">  2  9  1 -1</clus>
<clus scale="   91.940">  5  6 -1 -1</clus>
<clus scale="   93.246">  1 10  2 -1</clus>
<clus scale="   93.414">  7  8 -1 -1</clus>
<clus scale="  166.060">  1  5  2 -1</clus>
<clus scale="   93.246">  1  5  2 -1</clus>
</clustering>
</event>
<event>
10    2  0.3544405E-006  0.1147214E+03  0.7546771E-02  0.1252576E+00
          3   -1    0    0  503    0 -0.00000000000E+00  0.00000000000E+00  0.50273084490E+03  0.50273084490E+03  0.00000000000E+00 0. -1.
         21   -1    0    0  501  502  0.00000000000E+00 -0.00000000000E+00 -0.65008669459E+02  0.65008669459E+02  0.00000000000E+00 0. -1.
         23    2    1    2    0    0  0.46646033578E+02  0.40725836031E+02  0.17486414906E+03  0.20672585963E+03  0.91234117780E+02 0.  0.
         23    2    1    2    0    0 -0.27703864620E+02 -0.52884323958E+02  0.70405350619E+02  0.13079851165E+03  0.92666506452E+02 0.  0.
        -11    1    3    3    0    0  0.74346691618E+02  0.28751696598E+02  0.11898389390E+03  0.14321751855E+03  0.00000000000E+00 0. -1.
         11    1    3    3    0    0 -0.27700658040E+02  0.11974139434E+02  0.55880255152E+02  0.63508341081E+02  0.00000000000E+00 0.  1.
        -11    1    4    4    0    0 -0.50053689427E+02 -0.79422129735E+01  0.61717846450E+02  0.79859521303E+02  0.00000000000E+00 0.  1.
         11    1    4    4    0    0  0.22349824807E+02 -0.44942110985E+02  0.86875041691E+01  0.50938990345E+02  0.00000000000E+00 0. -1.
         21    1    1    2  503  502  0.30226697276E+02  0.27755793371E+02  0.16834813303E+03  0.17327761306E+03  0.00000000000E+00 0. -1.
          3    1    1    2  501    0 -0.49168866234E+02 -0.15597305444E+02  0.24104542739E+02  0.56937530018E+02  0.00000000000E+00 0. -1.
<scales pt_clust_5="13000.00000" pt_clust_6="13000.00000" pt_clust_7="13000.00000" pt_clust_8="13000.00000" pt_clust_9="41.03702" pt_clust_10="47.08898"></scales>
<clustering>
<clus scale="   41.037">  1  9  2 -1</clus>
<clus scale="   47.089">  2 10  1 -1</clus>
<clus scale="   91.234">  5  6 -1 -1</clus>
<clus scale="   92.667">  7  8 -1 -1</clus>
<clus scale="  113.568">  1  5  2 -1</clus>
<clus scale="   47.089">  2  5  1 -1</clus>
</clustering>
</event>
<event>
10    2  0.3544405E-006  0.9635239E+02  0.7546771E-02  0.1289639E+00
          2   -1    0    0  503    0 -0.00000000000E+00  0.00000000000E+00  0.22564147816E+03  0.22564147816E+03  0.00000000000E+00 0. -1.
         21   -1    0    0  501  502  0.00000000000E+00 -0.00000000000E+00 -0.14211032036E+03  0.14211032036E+03  0.00000000000E+00 0. -1.
         23    2    1    2    0    0  0.97659561648E+01 -0.22506873475E+02  0.57786343583E+02  0.11327551417E+03  0.94287577929E+02 0.  0.
         23    2    1    2    0    0  0.51957545116E+02 -0.54121208084E+02  0.43846625720E+02  0.12625271022E+03  0.91588910854E+02 0.  0.
        -11    1    4    4    0    0 -0.26034201930E+02 -0.12886931906E+02  0.35540287736E+01  0.29265744559E+02  0.00000000000E+00 0.  1.
         11    1    4    4    0    0  0.77991747045E+02 -0.41234276178E+02  0.40292596947E+02  0.96986965659E+02  0.00000000000E+00 0. -1.
        -11    1    3    3    0    0  0.28963122745E+02  0.29073123368E+02  0.15491333355E+02  0.43864454751E+02  0.00000000000E+00 0. -1.
         11    1    3    3    0    0 -0.19197166580E+02 -0.51579996844E+02  0.42295010228E+02  0.69411059416E+02  0.00000000000E+00 0.  1.
         21    1    1    2  503  502 -0.27534501067E+01  0.21077002846E+02  0.27888195785E+02  0.35065267725E+02  0.00000000000E+00 0.  1.
          2    1    1    2  501    0 -0.58970051174E+02  0.55551078713E+02 -0.45990007288E+02  0.93158306403E+02  0.00000000000E+00 0. -1.
<scales pt_clust_5="13000.00000" pt_clust_6="13000.00000" pt_clust_7="13000.00000" pt_clust_8="13000.00000" pt_clust_9="21.25609" pt_clust_10="83.02972"></scales>
<clustering>
<clus scale="   21.256">  1  9  2 -1</clus>
<clus scale="   83.030">  2 10  1 -1</clus>
<clus scale="   91.589">  5  6 -1 -1</clus>
<clus scale="   93.713">  2  5  1 -1</clus>
<clus scale="   94.288">  7  8 -1 -1</clus>
<clus scale="   83.030">  2  5  1 -1</clus>
</clustering>
</event>
<event>
10    2  0.3544405E-006  0.1161201E+03  0.7546771E-02  0.1250616E+00
         -2   -1    0    0    0  501 -0.00000000000E+00  0.00000000000E+00  0.11163154358E+03  0.11163154358E+03  0.00000000000E+00 0.  1.
         21   -1    0    0  503  502  0.00000000000E+00 -0.00000000000E+00 -0.11068287119E+04  0.11068287119E+04  0.00000000000E+00 0.  1.
         23    2    1    2    0    0  0.36856338245E+02  0.77410642826E+02 -0.11364095722E+02  0.12361887845E+03  0.88327159731E+02 0.  0.
         23    2    1    2    0    0  0.54806705011E+02 -0.76128929973E+02 -0.21382866919E+03  0.25067961758E+03  0.91204067929E+02 0.  0.
        -11    1    4    4    0    0  0.46161025269E+02 -0.94794762939E+02 -0.14803436987E+03  0.18174449647E+03  0.00000000000E+00 0.  1.
         11    1    4    4    0    0  0.86456797417E+01  0.18665832966E+02 -0.65794299328E+02  0.68935121111E+02  0.00000000000E+00 0. -1.
        -13    1    3    3    0    0 -0.99664127518E+01  0.34555190390E+02 -0.40167784147E+02  0.53915131914E+02  0.00000000000E+00 0. -1.
         13    1    3    3    0    0  0.46822750996E+02  0.42855452436E+02  0.28803688425E+02  0.69703746536E+02  0.00000000000E+00 0.  1.
         21    1    1    2  503  501  0.23923364630E+02 -0.22293052972E+02  0.24599630626E+02  0.40920036815E+02  0.00000000000E+00 0.  1.
         -2    1    1    2    0  502 -0.11558640789E+03  0.21011340119E+02 -0.79460403408E+03  0.80324172269E+03  0.00000000000E+00 0.  1.
<scales pt_clust_5="13000.00000" pt_clust_6="13000.00000" pt_clust_7="13000.00000" pt_clust_8="13000.00000" pt_clust_9="32.70027" pt_clust_10="115.97745"></scales>
<clustering>
<clus scale="   32.700">  1  9  2 -1</clus>
<clus scale="   88.327">  7  8 -1 -1</clus>
<clus scale="   91.204">  5  6 -1 -1</clus>
<clus scale="  115.977">  2 10  1 -1</clus>
<clus scale="  113.874">  1  7  2 -1</clus>
<clus scale="  115.977">  2  5  1 -1</clus>
</clustering>
</event>
<event>
10    2  0.3544405E-006  0.1278305E+03  0.7546771E-02  0.1232558E+00
         21   -1    0    0  501  502  0.00000000000E+00  0.00000000000E+00  0.72965088887E+02  0.72965088887E+02  0.00000000000E+00 0.  1.
          1   -1    0    0  503    0 -0.00000000000E+00 -0.00000000000E+00 -0.42559574104E+03  0.42559574104E+03  0.00000000000E+00 0. -1.
         23    2    1    2    0    0  0.64715372356E+02 -0.62445555440E+02 -0.20791991088E+03  0.24600676169E+03  0.95922419919E+02 0.  0.
         23    2    1    2    0    0 -0.21557094265E+02  0.80047499877E+02 -0.79446434818E+02  0.14556077825E+03  0.89464482393E+02 0.  0.
        -13    1    4    4    0    0 -0.43782218126E+02  0.86612270802E+02 -0.73198299935E+02  0.12155887130E+03  0.00000000000E+00 0. -1.
         13    1    4    4    0    0  0.22225123861E+02 -0.65647709246E+01 -0.62481348833E+01  0.24001906954E+02  0.00000000000E+00 0.  1.
        -13    1    3    3    0    0  0.70391992467E+02 -0.26357472771E+02 -0.67875773075E+02  0.10127620424E+03  0.00000000000E+00 0.  1.
         13    1    3    3    0    0 -0.56766201109E+01 -0.36088082670E+02 -0.14004413780E+03  0.14473055745E+03  0.00000000000E+00 0. -1.
         21    1    1    2  503  502  0.12452740912E+02 -0.25719685423E+02 -0.22638317305E+02  0.36456362749E+02  0.00000000000E+00 0.  1.
          1    1    1    2  501    0 -0.55611019003E+02  0.81177409864E+01 -0.42625989151E+02  0.70536927240E+02  0.00000000000E+00 0. -1.
<scales pt_clust_5="13000.00000" pt_clust_6="13000.00000" pt_clust_7="13000.00000" pt_clust_8="13000.00000" pt_clust_9="28.57574" pt_clust_10="53.04811"></scales>
<clustering>
<clus scale="   28.576">  1  9  2 -1</clus>
<clus scale="   53.048">  1 10  2 -1</clus>
<clus scale="   89.464">  5  6 -1 -1</clus>
<clus scale="   95.922">  7  8 -1 -1</clus>
<clus scale="  123.059">  1  5  2 -1</clus>
<clus scale="   28.576">  1  5  2 -1</clus>
</clustering>
</event>
<event>
10    2  0.3544405E-006  0.2346023E+03  0.7546771E-02  0.1123536E+00
         21   -1    0    0  501  502  0.00000000000E+00  0.00000000000E+00  0.14960605197E+04  0.14960605197E+04  0.00000000000E+00 0.  1.
          1   -1    0    0  503    0 -0.00000000000E+00 -0.00000000000E+00 -0.12669511256E+03  0.12669511256E+03  0.00000000000E+00 0. -1.
         23    2    1    2    0    0  0.17750172783E+03  0.35727142868E+02  0.16332877615E+03  0.26055992646E+03  0.91825345287E+02 0.  0.
         23    2    1    2    0    0 -0.22489785096E+03 -0.32251419053E+02  0.89526201786E+03  0.92805608660E+03  0.90414721467E+02 0.  0.
        -13    1    4    4    0    0 -0.15912023505E+03  0.16211197263E+01  0.46487487528E+03  0.49135580479E+03  0.00000000000E+00 0. -1.
         13    1    4    4    0    0 -0.65777615906E+02 -0.33872538779E+02  0.43038714257E+03  0.43670028180E+03  0.00000000000E+00 0.  1.
        -13    1    3    3    0    0  0.13283090847E+03 -0.81663266997E+01  0.76500639207E+02  0.15350272615E+03  0.00000000000E+00 0.  1.
         13    1    3    3    0    0  0.44670819366E+02  0.43893469568E+02  0.86828136946E+02  0.10705720031E+03  0.00000000000E+00 0. -1.
         21    1    1    2  503  502  0.35457494101E+02  0.62239059271E+02 -0.36574197353E+02  0.80427646359E+02  0.00000000000E+00 0. -1.
          1    1    1    2  501    0  0.11938629024E+02 -0.65714783086E+02  0.34734881046E+03  0.35371197280E+03  0.00000000000E+00 0. -1.
<scales pt_clust_5="13000.00000" pt_clust_6="13000.00000" pt_clust_7="13000.00000" pt_clust_8="13000.00000" pt_clust_9="70.65549" pt_clust_10="66.79045"></scales>
<clustering>
<clus scale="   66.790">  1 10  2 -1</clus>
<clus scale="   70.655">  2  9  1 -1</clus>
<clus scale="   90.415">  5  6 -1 -1</clus>
<clus scale="   91.825">  7  8 -1 -1</clus>
<clus scale="  234.054">  1  5  2 -1</clus>
<clus scale="   66.790">  1  5  2 -1</clus>
</clustering>
</event>
<event>
10    2  0.3544405E-006  0.1256629E+03  0.7546771E-02  0.1236436E+00
          1   -1    0    0  503    0 -0.00000000000E+00  0.00000000000E+00  0.50136619605E+03  0.50136619605E+03  0.00000000000E+00 0. -1.
         21   -1    0    0  501  502  0.00000000000E+00 -0.00000000000E+00 -0.89490047453E+02  0.89490047453E+02  0.00000000000E+00 0.  1.
         23    2    1    2    0    0  0.40645850918E+02  0.63072861286E+02  0.26986892905E+03  0.29205792125E+03  0.82694132020E+02 0.  0.
         23    2    1    2    0    0 -0.53189234789E+02 -0.47686010353E+02  0.60749960219E+02  0.13080328181E+03  0.91191505006E+02 0.  0.
        -11    1    4    4    0    0 -0.18315268902E+02 -0.39406084325E+02 -0.15831681085E+02  0.46248574927E+02  0.00000000000E+00 0.  1.
         11    1    4    4    0    0 -0.34873965887E+02 -0.82799260279E+01  0.76581641303E+02  0.84554706885E+02  0.00000000000E+00 0. -1.
        -13    1    3    3    0    0 -0.21000921459E+02  0.22481801073E+02  0.13346035467E+03  0.13696034590E+03  0.00000000000E+00 0. -1.
         13    1    3    3    0    0  0.61646772377E+02  0.40591060212E+02  0.13640857438E+03  0.15509757535E+03  0.00000000000E+00 0.  1.
         21    1    1    2  503  502  0.22674638141E+02  0.24328134985E+02  0.11195296798E+03  0.11678811758E+03  0.00000000000E+00 0.  1.
          1    1    1    2  501    0 -0.10131254270E+02 -0.39714985918E+02 -0.30695708655E+02  0.51206922865E+02  0.00000000000E+00 0. -1.
<scales pt_clust_5="13000.00000" pt_clust_6="13000.00000" pt_clust_7="13000.00000" pt_clust_8="13000.00000" pt_clust_9="33.25654" pt_clust_10="40.21585"></scales>
<clustering>
<clus scale="   33.257">  1  9  2 -1</clus>
<clus scale="   40.216">  2 10  1 -1</clus>
<clus scale="   82.694">  7  8 -1 -1</clus>
<clus scale="   91.192">  5  6 -1 -1</clus>
<clus scale="  119.639">  1  7  2 -1</clus>
<clus scale="   40.216">  2  5  1 -1</clus>
</clustering>
</event>
<event>
10    2  0.3544405E-006  0.9986207E+02  0.7546771E-02  0.1282021E+00
          1   -1    0    0  503    0 -0.00000000000E+00  0.00000000000E+00  0.51018061292E+03  0.51018061292E+03  0.00000000000E+00 0. -1.
         21   -1    0    0  501  502  0.00000000000E+00 -0.00000000000E+00 -0.11252863316E+03  0.11252863316E+03  0.00000000000E+00 0.  1.
         23    2    1    2    0    0 -0.94514742225E+01  0.10181450849E+02  0.22817269132E+03  0.24528020942E+03  0.88919130468E+02 0.  0.
         23    2    1    2    0    0 -0.82562296709E+02  0.54817910469E+02  0.38997929775E+02  0.14063346577E+03  0.91844417483E+02 0.  0.
        -11    1    3    3    0    0 -0.25761522702E+02 -0.21904825469E+02  0.34564906663E+02  0.48355043206E+02  0.00000000000E+00 0.  1.
         11    1    3    3    0    0  0.16310048479E+02  0.32086276318E+02  0.19360778466E+03  0.19692516622E+03  0.00000000000E+00 0. -1.
        -13    1    4    4    0    0 -0.57067680204E+02 -0.16011979967E+02  0.10801634887E+02  0.60247646780E+02  0.00000000000E+00 0.  1.
         13    1    4    4    0    0 -0.25494616505E+02  0.70829890436E+02  0.28196294888E+02  0.80385818994E+02  0.00000000000E+00 0. -1.
         21    1    1    2  503  502  0.17547089717E+02 -0.61182003832E+02  0.14720740157E+03  0.16037816880E+03  0.00000000000E+00 0. -1.
          1    1    1    2  501    0  0.74466681214E+02 -0.38173574853E+01 -0.16726042908E+02  0.76417402080E+02  0.00000000000E+00 0. -1.
<scales pt_clust_5="13000.00000" pt_clust_6="13000.00000" pt_clust_7="13000.00000" pt_clust_8="13000.00000" pt_clust_9="63.64855" pt_clust_10="76.46073"></scales>
<clustering>
<clus scale="   63.649">  1  9  2 -1</clus>
<clus scale="   76.461">  2 10  1 -1</clus>
<clus scale="   88.919">  5  6 -1 -1</clus>
<clus scale="   91.844">  7  8 -1 -1</clus>
<clus scale="   97.178">  1  5  2 -1</clus>
<clus scale="   76.461">  2  5  1 -1</clus>
</clustering>
</event>
<event>
10    2  0.3544405E-006  0.2165859E+03  0.7546771E-02  0.1136558E+00
         21   -1    0    0  501  502  0.00000000000E+00  0.00000000000E+00  0.29765889111E+03  0.29765889111E+03  0.00000000000E+00 0. -1.
          2   -1    0    0  503    0 -0.00000000000E+00 -0.00000000000E+00 -0.10315239586E+04  0.10315239586E+04  0.00000000000E+00 0. -1.
         23    2    1    2    0    0 -0.19488133622E+03 -0.70952147162E+01 -0.62043557940E+03  0.65638555721E+03  0.88727753552E+02 0.  0.
         23    2    1    2    0    0  0.21168127524E+03 -0.18538319415E+03  0.10804648738E+03  0.31457587130E+03  0.90044680070E+02 0.  0.
        -13    1    4    4    0    0  0.45635460123E+02 -0.27003072379E+01  0.16213354722E+01  0.45744022653E+02  0.00000000000E+00 0.  1.
         13    1    4    4    0    0  0.16604581511E+03 -0.18268288691E+03  0.10642515190E+03  0.26883184865E+03  0.00000000000E+00 0. -1.
        -13    1    3    3    0    0 -0.22479193280E+02  0.30398769317E+02 -0.11156483372E+03  0.11779690756E+03  0.00000000000E+00 0. -1.
         13    1    3    3    0    0 -0.17240214294E+03 -0.37493984033E+02 -0.50887074568E+03  0.53858864965E+03  0.00000000000E+00 0.  1.
         21    1    1    2  503  502 -0.10176921369E+01 -0.22480028308E+02 -0.11618000456E+03  0.11833926158E+03  0.00000000000E+00 0.  1.
          2    1    1    2  501    0 -0.15782246874E+02  0.21495843718E+03 -0.10529597094E+03  0.23988215966E+03  0.00000000000E+00 0. -1.
<scales pt_clust_5="13000.00000" pt_clust_6="13000.00000" pt_clust_7="13000.00000" pt_clust_8="13000.00000" pt_clust_9="22.50305" pt_clust_10="211.31944"></scales>
<clustering>
<clus scale="   22.503">  2  9  1 -1</clus>
<clus scale="   88.728">  7  8 -1 -1</clus>
<clus scale="   90.045">  5  6 -1 -1</clus>
<clus scale="  211.319">  1 10  2 -1</clus>
<clus scale="  216.042">  2  7  1 -1</clus>
<clus scale="  211.319">  1  5  2 -1</clus>
</clustering>
</event>
<event>
10    2  0.3544405E-006  0.2064746E+03  0.7546771E-02  0.1144690E+00
         21   -1    0    0  501  502  0.00000000000E+00  0.00000000000E+00  0.27035593838E+03  0.27035593838E+03  0.00000000000E+00 0. -1.
          3   -1    0    0  503    0 -0.00000000000E+00 -0.00000000000E+00 -0.44067646442E+03  0.44067646442E+03  0.00000000000E+00 0. -1.
         23    2    1    2    0    0  0.23520112954E+03  0.21885208100E+02 -0.65076159658E+02  0.25978023725E+03  0.86326887095E+02 0.  0.
         23    2    1    2    0    0 -0.15533324190E+03  0.27511026109E+02 -0.73756943972E+01  0.18166563253E+03  0.89792697810E+02 0.  0.
        -11    1    3    3    0    0  0.10856987413E+03 -0.11269360820E+02 -0.68444436801E+02  0.12883732763E+03  0.00000000000E+00 0.  1.
         11    1    3    3    0    0  0.12663125541E+03  0.33154568920E+02  0.33682771426E+01  0.13094290961E+03  0.00000000000E+00 0. -1.
        -13    1    4    4    0    0 -0.68878798419E+02  0.29772403874E+02 -0.44841166747E+02  0.87415188264E+02  0.00000000000E+00 0. -1.
         13    1    4    4    0    0 -0.86454443477E+02 -0.22613777649E+01  0.37465472349E+02  0.94250444268E+02  0.00000000000E+00 0.  1.
         21    1    1    2  503  502 -0.75488041500E+02 -0.26181224067E+02 -0.17314447442E+03  0.19069061310E+03  0.00000000000E+00 0.  1.
          3    1    1    2  501    0 -0.43798461475E+01 -0.23215010142E+02  0.75275802432E+02  0.78895919920E+02  0.00000000000E+00 0. -1.
<scales pt_clust_5="13000.00000" pt_clust_6="13000.00000" pt_clust_7="13000.00000" pt_clust_8="13000.00000" pt_clust_9="80.43784" pt_clust_10="23.62456"></scales>
<clustering>
<clus scale="   23.625">  1 10  2 -1</clus>
<clus scale="   80.438">  2  9  1 -1</clus>
<clus scale="   86.327">  5  6 -1 -1</clus>
<clus scale="   89.793">  7  8 -1 -1</clus>
<clus scale="  204.991">  2  5  1 -1</clus>
<clus scale="   23.625">  1  5  2 -1</clus>
</clustering>
</event>
<event>
10    2  0.3544405E-006  0.1130532E+03  0.7546771E-02  0.1258662E+00
         21   -1    0    0  503  502  0.00000000000E+00  0.00000000000E+00  0.86066497459E+02  0.86066497459E+02  0.00000000000E+00 0.  1.
         -3   -1    0    0    0  501 -0.00000000000E+00 -0.00000000000E+00 -0.91118545456E+03  0.91118545456E+03  0.00000000000E+00 0.  1.
         23    2    1    2    0    0  0.11840790307E+02  0.71187370462E+01 -0.42942788779E+03  0.44150324785E+03  0.10161656518E+03 0.  0.
         23    2    1    2    0    0 -0.32950860439E+02 -0.98782401276E+02 -0.29312112753E+00  0.13948442463E+03  0.92801383545E+02 0.  0.
        -11    1    4    4    0    0  0.29998016037E+02 -0.13774073927E+02 -0.60110598852E+01  0.33552033018E+02  0.00000000000E+00 0. -1.
         11    1    4    4    0    0 -0.62948876476E+02 -0.85008327349E+02  0.57179387577E+01  0.10593239161E+03  0.00000000000E+00 0.  1.
        -11    1    3    3    0    0 -0.20588228190E+02  0.46888647552E+02 -0.20948833152E+03  0.21565662859E+03  0.00000000000E+00 0.  1.
         11    1    3    3    0    0  0.32429018497E+02 -0.39769910506E+02 -0.21993955627E+03  0.22584661926E+03  0.00000000000E+00 0. -1.
         21    1    1    2  503  501  0.31245730847E+00  0.45222756771E+02 -0.33154754406E+03  0.33461764647E+03  0.00000000000E+00 0.  1.
         -3    1    1    2    0  502  0.20797612823E+02  0.46440907459E+02 -0.63850404132E+02  0.81646633076E+02  0.00000000000E+00 0.  1.
<scales pt_clust_5="13000.00000" pt_clust_6="13000.00000" pt_clust_7="13000.00000" pt_clust_8="13000.00000" pt_clust_9="45.22384" pt_clust_10="56.14175"></scales>
<clustering>
<clus scale="   45.224">  2  9  1 -1</clus>
<clus scale="   56.142">  1 10  2 -1</clus>
<clus scale="   92.801">  5  6 -1 -1</clus>
<clus scale="  101.617">  7  8 -1 -1</clus>
<clus scale="  105.201">  1  5  2 -1</clus>
<clus scale="   56.142">  1  5  2 -1</clus>
</clustering>
</event>
<event>
10    2  0.3544405E-006  0.2353467E+03  0.7546771E-02  0.1147905E+00
         21   -1    0    0  501  502  0.00000000000E+00  0.00000000000E+00  0.26826639049E+03  0.26826639049E+03  0.00000000000E+00 0. -1.
          1   -1    0    0  503    0 -0.00000000000E+00 -0.00000000000E+00 -0.10802499223E+04  0.10802499223E+04  0.00000000000E+00 0. -1.
         23    2    1    2    0    0  0.20495810104E+03 -0.17251826885E+03 -0.64653884678E+03  0.70505247157E+03  0.85534384983E+02 0.  0.
         23    2    1    2    0    0 -0.50979553081E+02  0.78764322623E+02  0.71724073832E+02  0.15065279425E+03  0.93537095838E+02 0.  0.
        -11    1    4    4    0    0  0.11854591278E+02  0.27796829532E+02  0.62245570184E+02  0.69193251650E+02  0.00000000000E+00 0. -1.
         11    1    4    4    0    0 -0.62834144358E+02  0.50967493091E+02  0.94785036484E+01  0.81459542600E+02  0.00000000000E+00 0.  1.
        -13    1    3    3    0    0  0.42892967657E+02 -0.87524721163E+02 -0.24977871334E+03  0.26812271282E+03  0.00000000000E+00 0.  1.
         13    1    3    3    0    0  0.16206513338E+03 -0.84993547688E+02 -0.39676013344E+03  0.43692975876E+03  0.00000000000E+00 0. -1.
         21    1    1    2  503  502 -0.13597696099E+03  0.12023097139E+03 -0.33983400988E+03  0.38526922362E+03  0.00000000000E+00 0. -1.
          1    1    1    2  501    0 -0.18001586967E+02 -0.26477025166E+02  0.10266525103E+03  0.10754182333E+03  0.00000000000E+00 0. -1.
<scales pt_clust_5="13000.00000" pt_clust_6="13000.00000" pt_clust_7="13000.00000" pt_clust_8="13000.00000" pt_clust_9="219.25316" pt_clust_10="32.01703"></scales>
<clustering>
<clus scale="   32.017">  1 10  2 -1</clus>
<clus scale="   85.534">  7  8 -1 -1</clus>
<clus scale="   93.537">  5  6 -1 -1</clus>
<clus scale="  128.205">  1  5  2 -1</clus>
<clus scale="  219.253">  2  9  1 -1</clus>
<clus scale="   32.017">  1  5  2 -1</clus>
</clustering>
</event>
<event>
10    2  0.3544405E-006  0.9664106E+02  0.7546771E-02  0.1287634E+00
          2   -1    0    0  503    0 -0.00000000000E+00  0.00000000000E+00  0.65999148760E+03  0.65999148760E+03  0.00000000000E+00 0. -1.
         21   -1    0    0  501  502  0.00000000000E+00 -0.00000000000E+00 -0.19086767490E+03  0.19086767490E+03  0.00000000000E+00 0.  1.
         23    2    1    2    0    0  0.57054393205E+01  0.82255415994E+01  0.32399927682E+03  0.33681746901E+03  0.91489149494E+02 0.  0.
         23    2    1    2    0    0 -0.27769458777E+01 -0.23919395293E+02 -0.13015841361E+03  0.16102980208E+03  0.91703520229E+02 0.  0.
        -11    1    3    3    0    0  0.14103856005E+01  0.49650408824E+02  0.15509994940E+03  0.16285928463E+03  0.00000000000E+00 0.  1.
         11    1    3    3    0    0  0.42950537200E+01 -0.41424867224E+02  0.16889932742E+03  0.17395818438E+03  0.00000000000E+00 0. -1.
        -13    1    4    4    0    0  0.19467652091E+02  0.30386558419E+02 -0.47324437656E+02  0.59514156383E+02  0.00000000000E+00 0. -1.
         13    1    4    4    0    0 -0.22244597969E+02 -0.54305953713E+02 -0.82833975959E+02  0.10151564569E+03  0.00000000000E+00 0.  1.
         21    1    1    2  503  502 -0.41916907500E+02 -0.86945345300E+01  0.29845943191E+03  0.30151393759E+03  0.00000000000E+00 0. -1.
          2    1    1    2  501    0  0.38988414057E+02  0.24388388224E+02 -0.23176482422E+02  0.51497953826E+02  0.00000000000E+00 0. -1.
<scales pt_clust_5="13000.00000" pt_clust_6="13000.00000" pt_clust_7="13000.00000" pt_clust_8="13000.00000" pt_clust_9="42.80914" pt_clust_10="44.41257"></scales>
<clustering>
<clus scale="   42.809">  1  9  2 -1</clus>
<clus scale="   44.413">  2 10  1 -1</clus>
<clus scale="   91.489">  5  6 -1 -1</clus>
<clus scale="   91.704">  7  8 -1 -1</clus>
<clus scale="   96.438">  1  5  2 -1</clus>
<clus scale="   44.413">  2  5  1 -1</clus>
</clustering>
</event>
<event>
10    2  0.3544405E-006  0.3564938E+03  0.7546771E-02  0.1059989E+00
          2   -1    0    0  503    0 -0.00000000000E+00  0.00000000000E+00  0.12288956694E+04  0.12288956694E+04  0.00000000000E+00 0. -1.
         21   -1    0    0  501  502  0.00000000000E+00 -0.00000000000E+00 -0.26608480971E+03  0.26608480971E+03  0.00000000000E+00 0.  1.
         23    2    1    2    0    0 -0.31073955030E+03 -0.33409553835E+02  0.60738314104E+03  0.68900637373E+03  0.90223259809E+02 0.  0.
         23    2    1    2    0    0  0.32173532989E+03  0.20733961665E+03  0.20252137248E+03  0.44239761205E+03  0.90539503540E+02 0.  0.
        -13    1    3    3    0    0 -0.22555309224E+03 -0.53853839993E+02  0.49401582009E+03  0.54573442625E+03  0.00000000000E+00 0. -1.
         13    1    3    3    0    0 -0.85186458062E+02  0.20444286158E+02  0.11336732095E+03  0.14327194748E+03  0.00000000000E+00 0.  1.
        -13    1    4    4    0    0  0.26525950848E+03  0.12484480141E+03  0.14522543510E+03  0.32716854720E+03  0.00000000000E+00 0.  1.
         13    1    4    4    0    0  0.56475821417E+02  0.82494815238E+02  0.57295937373E+02  0.11522906485E+03  0.00000000000E+00 0. -1.
         21    1    1    2  503  502 -0.41435347067E+02 -0.50512010965E+02  0.21312779852E+03  0.22291659817E+03  0.00000000000E+00 0. -1.
          2    1    1    2  501    0  0.30439567477E+02 -0.12341805185E+03 -0.60221452337E+02  0.14065989518E+03  0.00000000000E+00 0. -1.
<scales pt_clust_5="13000.00000" pt_clust_6="13000.00000" pt_clust_7="13000.00000" pt_clust_8="13000.00000" pt_clust_9="65.33262" pt_clust_10="128.68971"></scales>
<clustering>
<clus scale="   65.333">  1  9  2 -1</clus>
<clus scale="   90.223">  5  6 -1 -1</clus>
<clus scale="   90.540">  7  8 -1 -1</clus>
<clus scale="  128.690">  2 10  1 -1</clus>
<clus scale="  356.414">  1  5  2 -1</clus>
<clus scale="  128.690">  2  5  1 -1</clus>
</clustering>
</event>
<event>
10    2  0.3544405E-006  0.2727722E+03  0.7546771E-02  0.1100075E+00
         -3   -1    0    0    0  501 -0.00000000000E+00  0.00000000000E+00  0.11793773428E+04  0.11793773428E+04  0.00000000000E+00 0.  1.
         21   -1    0    0  503  502  0.00000000000E+00 -0.00000000000E+00 -0.57872999200E+03  0.57872999200E+03  0.00000000000E+00 0.  1.
         23    2    1    2    0    0 -0.15215592848E+03  0.23613099957E+03  0.70912174333E+03  0.76811602897E+03  0.90770653632E+02 0.  0.
         23    2    1    2    0    0 -0.16457289869E+01 -0.36111867245E+03  0.11678376720E+03  0.38841539014E+03  0.82575196021E+02 0.  0.
        -11    1    3    3    0    0 -0.13779270955E+03  0.22101929089E+03  0.69682872361E+03  0.74391305124E+03  0.00000000000E+00 0.  1.
         11    1    3    3    0    0 -0.14363218926E+02  0.15111708676E+02  0.12293019719E+02  0.24202977727E+02  0.00000000000E+00 0. -1.
        -11    1    4    4    0    0  0.24432124961E+02 -0.25176088302E+03  0.50594863671E+02  0.25795408735E+03  0.00000000000E+00 0. -1.
         11    1    4    4    0    0 -0.26077853948E+02 -0.10935778943E+03  0.66188903524E+02  0.13046130279E+03  0.00000000000E+00 0.  1.
         21    1    1    2  503  501  0.10168863058E+03 -0.24139512404E+02  0.15663353778E+03  0.18830124483E+03  0.00000000000E+00 0.  1.
         -3    1    1    2    0  502  0.52113026881E+02  0.14912718529E+03 -0.38189169750E+03  0.41327467087E+03  0.00000000000E+00 0.  1.
<scales pt_clust_5="13000.00000" pt_clust_6="13000.00000" pt_clust_7="13000.00000" pt_clust_8="13000.00000" pt_clust_9="104.51456" pt_clust_10="158.14647"></scales>
<clustering>
<clus scale="   82.575">  7  8 -1 -1</clus>
<clus scale="   90.771">  5  6 -1 -1</clus>
<clus scale="  104.515">  1  9  2 -1</clus>
<clus scale="  158.146">  2 10  1 -1</clus>
<clus scale="  270.156">  2  7  1 -1</clus>
<clus scale="  158.146">  2  5  1 -1</clus>
</clustering>
</event>
<event>
10    2  0.3544405E-006  0.4038322E+03  0.7546771E-02  0.1043311E+00
         21   -1    0    0  501  502  0.00000000000E+00  0.00000000000E+00  0.12861372698E+04  0.12861372698E+04  0.00000000000E+00 0. -1.
          2   -1    0    0  503    0 -0.00000000000E+00 -0.00000000000E+00 -0.32391512744E+03  0.32391512744E+03  0.00000000000E+00 0. -1.
         23    2    1    2    0    0  0.38028582531E+03 -0.15826653967E+03  0.88147122474E+02  0.42984414692E+03  0.85618157705E+02 0.  0.
         23    2    1    2    0    0 -0.35506783754E+03  0.60158081117E+02  0.31175823361E+03  0.49198024332E+03  0.12312270144E+03 0.  0.
        -13    1    4    4    0    0 -0.27224105267E+03  0.16287500948E+02  0.16785007144E+03  0.32024072185E+03  0.00000000000E+00 0. -1.
         13    1    4    4    0    0 -0.82826784872E+02  0.43870580169E+02  0.14390816216E+03  0.17173952147E+03  0.00000000000E+00 0.  1.
        -13    1    3    3    0    0  0.31934411006E+03 -0.99789860231E+02  0.54755516335E+02  0.33902336704E+03  0.00000000000E+00 0. -1.
         13    1    3    3    0    0  0.60941715253E+02 -0.58476679442E+02  0.33391606139E+02  0.90820779875E+02  0.00000000000E+00 0.  1.
         21    1    1    2  503  502 -0.23815010579E+02 -0.48959546359E+01 -0.56177795547E+02  0.61213314018E+02  0.00000000000E+00 0.  1.
          2    1    1    2  501    0 -0.14029771882E+01  0.10300441319E+03  0.61849458187E+03  0.62701469304E+03  0.00000000000E+00 0. -1.
<scales pt_clust_5="13000.00000" pt_clust_6="13000.00000" pt_clust_7="13000.00000" pt_clust_8="13000.00000" pt_clust_9="24.31306" pt_clust_10="102.94126"></scales>
<clustering>
<clus scale="   24.313">  2  9  1 -1</clus>
<clus scale="   85.618">  7  8 -1 -1</clus>
<clus scale="  102.941">  1 10  2 -1</clus>
<clus scale="  123.123">  5  6 -1 -1</clus>
<clus scale="  394.020">  2  7  1 -1</clus>
<clus scale="  102.941">  1  5  2 -1</clus>
</clustering>
</event>
<event>
10    2  0.3544405E-006  0.1589067E+03  0.7546771E-02  0.1207583E+00
         -1   -1    0    0    0  501 -0.00000000000E+00  0.00000000000E+00  0.29360229318E+03  0.29360229318E+03  0.00000000000E+00 0.  1.
         21   -1    0    0  503  502  0.00000000000E+00 -0.00000000000E+00 -0.36929309774E+03  0.36929309774E+03  0.00000000000E+00 0.  1.
         23    2    1    2    0    0  0.18987609947E+02  0.55066378465E+02 -0.70706663716E+02  0.12935190679E+03  0.91321673914E+02 0.  0.
         23    2    1    2    0    0 -0.38785785590E+02  0.56853483111E+02  0.14680116053E+03  0.18704480678E+03  0.93265874284E+02 0.  0.
        -11    1    3    3    0    0  0.36164561155E+02  0.10547342647E+02 -0.72388948073E+02  0.81604422206E+02  0.00000000000E+00 0. -1.
         11    1    3    3    0    0 -0.17176951208E+02  0.44519035818E+02  0.16822843573E+01  0.47747484579E+02  0.00000000000E+00 0.  1.
        -13    1    4    4    0    0 -0.22751782666E+02 -0.26515192705E+01 -0.47937838475E+01  0.23402019838E+02  0.00000000000E+00 0. -1.
         13    1    4    4    0    0 -0.16034002924E+02  0.59505002381E+02  0.15159494438E+03  0.16364278695E+03  0.00000000000E+00 0.  1.
         21    1    1    2  503  501 -0.39007511760E+02  0.10134389816E+02  0.73378084088E+02  0.83717591073E+02  0.00000000000E+00 0. -1.
         -1    1    1    2    0  502  0.58805687404E+02 -0.12205425139E+03 -0.22516338547E+03  0.26278108628E+03  0.00000000000E+00 0.  1.
<scales pt_clust_5="13000.00000" pt_clust_6="13000.00000" pt_clust_7="13000.00000" pt_clust_8="13000.00000" pt_clust_9="40.30250" pt_clust_10="128.65773"></scales>
<clustering>
<clus scale="   40.303">  1  9  2 -1</clus>
<clus scale="   91.322">  5  6 -1 -1</clus>
<clus scale="   93.266">  7  8 -1 -1</clus>
<clus scale="  108.226">  1  5  2 -1</clus>
<clus scale="  128.658">  2 10  1 -1</clus>
<clus scale="  128.658">  2  5  1 -1</clus>
</clustering>
</event>
<event>
10    2  0.3544405E-006  0.1033170E+03  0.7546771E-02  0.1273750E+00
         21   -1    0    0  501  502  0.00000000000E+00  0.00000000000E+00  0.15457198522E+03  0.15457198522E+03  0.00000000000E+00 0. -1.
          1   -1    0    0  503    0 -0.00000000000E+00 -0.00000000000E+00 -0.16259992150E+03  0.16259992150E+03  0.00000000000E+00 0. -1.
         23    2    1    2    0    0  0.40213783148E+02  0.24415440956E+02 -0.52799680812E+02  0.11463790428E+03  0.90226274957E+02 0.  0.
         23    2    1    2    0    0 -0.21143465174E+02 -0.26016571787E+02  0.41415292426E+02  0.10532560513E+03  0.90853445297E+02 0.  0.
        -11    1    4    4    0    0 -0.24634599105E+02 -0.58860025466E+02  0.27828671729E+02  0.69611788090E+02  0.00000000000E+00 0. -1.
         11    1    4    4    0    0  0.34911339303E+01  0.32843453679E+02  0.13586620698E+02  0.35713817041E+02  0.00000000000E+00 0.  1.
        -13    1    3    3    0    0  0.24379569259E+02 -0.28412880416E+02  0.11931972960E+01  0.37457694678E+02  0.00000000000E+00 0.  1.
         13    1    3    3    0    0  0.15834213889E+02  0.52828321372E+02 -0.53992878108E+02  0.77180209606E+02  0.00000000000E+00 0. -1.
         21    1    1    2  503  502  0.82946668886E+01  0.22093547536E+02 -0.37268853694E+02  0.44112286239E+02  0.00000000000E+00 0. -1.
          1    1    1    2  501    0 -0.27364984862E+02 -0.20492416705E+02  0.40625305805E+02  0.53096111069E+02  0.00000000000E+00 0. -1.
<scales pt_clust_5="13000.00000" pt_clust_6="13000.00000" pt_clust_7="13000.00000" pt_clust_8="13000.00000" pt_clust_9="23.59929" pt_clust_10="33.17687"></scales>
<clustering>
<clus scale="   23.599">  2  9  1 -1</clus>
<clus scale="   33.177">  1 10  2 -1</clus>
<clus scale="   90.226">  7  8 -1 -1</clus>
<clus scale="   90.853">  5  6 -1 -1</clus>
<clus scale="  102.766">  2  7  1 -1</clus>
<clus scale="   33.177">  1  5  2 -1</clus>
</clustering>
</event>
<event>
10    2  0.3544405E-006  0.1583218E+03  0.7546771E-02  0.1190693E+00
          2   -1    0    0  503    0 -0.00000000000E+00  0.00000000000E+00  0.30071975952E+03  0.30071975952E+03  0.00000000000E+00 0. -1.
         21   -1    0    0  501  502  0.00000000000E+00 -0.00000000000E+00 -0.48566842563E+03  0.48566842563E+03  0.00000000000E+00 0. -1.
         23    2    1    2    0    0  0.13897560931E+03 -0.85343046045E+02  0.19671942010E+03  0.27143297237E+03  0.91540552501E+02 0.  0.
         23    2    1    2    0    0 -0.16799205194E+02  0.83991313147E+02 -0.33113401866E+03  0.35420866806E+03  0.92072190350E+02 0.  0.
        -13    1    4    4    0    0 -0.28682085000E+02 -0.65301645863E+01 -0.44148651524E+02  0.53050998868E+02  0.00000000000E+00 0.  1.
         13    1    4    4    0    0  0.11882879806E+02  0.90521477733E+02 -0.28698536713E+03  0.30115766919E+03  0.00000000000E+00 0. -1.
        -13    1    3    3    0    0  0.67561443901E+02  0.85768861785E+01  0.59216597718E+02  0.90248086538E+02  0.00000000000E+00 0.  1.
         13    1    3    3    0    0  0.71414165411E+02 -0.93919932223E+02  0.13750282238E+03  0.18118488583E+03  0.00000000000E+00 0. -1.
         21    1    1    2  503  502 -0.54401697113E+02 -0.18986694461E+02  0.19848773556E+02  0.60942702820E+02  0.00000000000E+00 0.  1.
          2    1    1    2  501    0 -0.67774707005E+02  0.20338427359E+02 -0.70382841111E+02  0.99803841909E+02  0.00000000000E+00 0. -1.
<scales pt_clust_5="13000.00000" pt_clust_6="13000.00000" pt_clust_7="13000.00000" pt_clust_8="13000.00000" pt_clust_9="57.61978" pt_clust_10="73.42153"></scales>
<clustering>
<clus scale="   57.620">  1  9  2 -1</clus>
<clus scale="   73.422">  2 10  1 -1</clus>
<clus scale="   91.541">  7  8 -1 -1</clus>
<clus scale="   92.072">  5  6 -1 -1</clus>
<clus scale="  158.013">  1  7  2 -1</clus>
<clus scale="   73.422">  2  5  1 -1</clus>
</clustering>
</event>
<event>
10    2  0.3544405E-006  0.1953684E+03  0.7546771E-02  0.1177650E+00
         -2   -1    0    0    0  501 -0.00000000000E+00  0.00000000000E+00  0.19975723047E+03  0.19975723047E+03  0.00000000000E+00 0.  1.
         21   -1    0    0  503  502  0.00000000000E+00 -0.00000000000E+00 -0.90900202266E+03  0.90900202266E+03  0.00000000000E+00 0.  1.
         23    2    1    2    0    0  0.49116277845E+02 -0.43591639270E+02 -0.90820973092E+02  0.14543912964E+03  0.92690083145E+02 0.  0.
         23    2    1    2    0    0 -0.17917066526E+03  0.97407087590E+02 -0.17054534576E+02  0.22449431114E+03  0.92285267428E+02 0.  0.
        -11    1    3    3    0    0  0.37787118362E+02 -0.72561562760E+02 -0.58455684772E+02  0.10054906159E+03  0.00000000000E+00 0. -1.
         11    1    3    3    0    0  0.11329159482E+02  0.28969923490E+02 -0.32365288321E+02  0.44890068051E+02  0.00000000000E+00 0.  1.
        -13    1    4    4    0    0 -0.11473484010E+03  0.29866878082E+02  0.26503557803E+02  0.12148478306E+03  0.00000000000E+00 0.  1.
         13    1    4    4    0    0 -0.64435825161E+02  0.67540209508E+02 -0.43558092379E+02  0.10300952808E+03  0.00000000000E+00 0. -1.
         21    1    1    2  503  501 -0.36864166970E+02 -0.22688731118E+02  0.49741770035E+02  0.65939282771E+02  0.00000000000E+00 0.  1.
         -2    1    1    2    0  502  0.16691855438E+03 -0.31126717202E+02 -0.65111105456E+03  0.67288652958E+03  0.00000000000E+00 0.  1.
<scales pt_clust_5="13000.00000" pt_clust_6="13000.00000" pt_clust_7="13000.00000" pt_clust_8="13000.00000" pt_clust_9="43.28678" pt_clust_10="172.19825"></scales>
<clustering>
<clus scale="   43.287">  1  9  2 -1</clus>
<clus scale="   92.285">  7  8 -1 -1</clus>
<clus scale="   92.690">  5  6 -1 -1</clus>
<clus scale="  112.505">  1  5  2 -1</clus>
<clus scale="  172.198">  2 10  1 -1</clus>
<clus scale="  172.198">  2  5  1 -1</clus>
</clustering>
</event>
<event>
10    2  0.3544405E-006  0.1063719E+03  0.7546771E-02  0.1270360E+00
          2   -1    0    0  503    0 -0.00000000000E+00  0.00000000000E+00  0.78235909970E+02  0.78235909970E+02  0.00000000000E+00 0. -1.
         21   -1    0    0  501  502  0.00000000000E+00 -0.00000000000E+00 -0.21821959267E+03  0.21821959267E+03  0.00000000000E+00 0.  1.
         23    2    1    2    0    0 -0.42436471316E+01 -0.58321588250E+02 -0.32698512609E+02  0.11697281216E+03  0.95885503912E+02 0.  0.
         23    2    1    2    0    0  0.99604156401E+01  0.28851854718E+02 -0.75249388546E+02  0.12073775608E+03  0.89350410553E+02 0.  0.
        -13    1    3    3    0    0 -0.30793708007E+02 -0.37287482169E+02  0.21609203739E+02  0.52967598261E+02  0.00000000000E+00 0. -1.
         13    1    3    3    0    0  0.26550060875E+02 -0.21034106081E+02 -0.54307716348E+02  0.64005213898E+02  0.00000000000E+00 0.  1.
        -13    1    4    4    0    0  0.38462435772E+02  0.46206622977E+02 -0.56285272289E+02  0.82355587844E+02  0.00000000000E+00 0.  1.
         13    1    4    4    0    0 -0.28502020132E+02 -0.17354768259E+02 -0.18964116257E+02  0.38382168234E+02  0.00000000000E+00 0. -1.
         21    1    1    2  503  502  0.16551043317E+02  0.16660037997E+02 -0.13763043525E+02  0.27219758780E+02  0.00000000000E+00 0.  1.
          2    1    1    2  501    0 -0.22267811826E+02  0.12809695536E+02 -0.18272738017E+02  0.31525175620E+02  0.00000000000E+00 0. -1.
<scales pt_clust_5="13000.00000" pt_clust_6="13000.00000" pt_clust_7="13000.00000" pt_clust_8="13000.00000" pt_clust_9="23.48391" pt_clust_10="25.09214"></scales>
<clustering>
<clus scale="   23.484">  2  9  1 -1</clus>
<clus scale="   25.092">  2 10  1 -1</clus>
<clus scale="   89.350">  7  8 -1 -1</clus>
<clus scale="   95.886">  5  6 -1 -1</clus>
<clus scale="  100.521">  2  7  1 -1</clus>
<clus scale="   23.484">  2  5  1 -1</clus>
</clustering>
</event>
<event>
10    2  0.3544405E-006  0.1241953E+03  0.7546771E-02  0.1237058E+00
          2   -1    0    0  503    0 -0.00000000000E+00  0.00000000000E+00  0.46984853192E+03  0.46984853192E+03  0.00000000000E+00 0. -1.
         21   -1    0    0  501  502  0.00000000000E+00 -0.00000000000E+00 -0.90688346423E+02  0.90688346423E+02  0.00000000000E+00 0.  1.
         23    2    1    2    0    0  0.39928025724E+02 -0.59217338662E+02  0.15727514977E+03  0.19672220283E+03  0.94144632966E+02 0.  0.
         23    2    1    2    0    0 -0.97501381490E+01  0.99106924686E+02  0.88834135172E+02  0.16193058787E+03  0.91721120801E+02 0.  0.
        -13    1    4    4    0    0  0.38166267085E+02  0.27815415753E+02  0.17812672106E+02  0.50474276461E+02  0.00000000000E+00 0.  1.
         13    1    4    4    0    0 -0.47916405234E+02  0.71291508934E+02  0.71021463066E+02  0.11145631141E+03  0.00000000000E+00 0. -1.
        -13    1    3    3    0    0  0.37844185826E+02 -0.84185368785E+02  0.13256011658E+03  0.16152876903E+03  0.00000000000E+00 0. -1.
         13    1    3    3    0    0  0.20838398977E+01  0.24968030123E+02  0.24715033190E+02  0.35193433799E+02  0.00000000000E+00 0.  1.
         21    1    1    2  503  502 -0.27677533386E+02 -0.16709191209E+02  0.16172650974E+03  0.16492636805E+03  0.00000000000E+00 0.  1.
          2    1    1    2  501    0 -0.25003541891E+01 -0.23180394816E+02 -0.28675609187E+02  0.36957719588E+02  0.00000000000E+00 0. -1.
<scales pt_clust_5="13000.00000" pt_clust_6="13000.00000" pt_clust_7="13000.00000" pt_clust_8="13000.00000" pt_clust_9="32.72462" pt_clust_10="23.31486"></scales>
<clustering>
<clus scale="   23.315">  2 10  1 -1</clus>
<clus scale="   32.725">  1  9  2 -1</clus>
<clus scale="   91.721">  5  6 -1 -1</clus>
<clus scale="   94.145">  7  8 -1 -1</clus>
<clus scale="  122.368">  2  5  1 -1</clus>
<clus scale="   23.315">  2  5  1 -1</clus>
</clustering>
</event>
<event>
10    2  0.3544405E-006  0.9953133E+02  0.7546771E-02  0.1282335E+00
         21   -1    0    0  501  502  0.00000000000E+00  0.00000000000E+00  0.44612777372E+03  0.44612777372E+03  0.00000000000E+00 0. -1.
          1   -1    0    0  503    0 -0.00000000000E+00 -0.00000000000E+00 -0.93468178999E+02  0.93468178999E+02  0.00000000000E+00 0.  1.
         23    2    1    2    0    0 -0.15143748921E+02 -0.62282395015E+01  0.32336429361E+02  0.99214668819E+02  0.92356817542E+02 0.  0.
         23    2    1    2    0    0  0.37999858817E+02  0.35143107159E+02  0.31374925628E+03  0.33054534541E+03  0.90236369091E+02 0.  0.
        -11    1    3    3    0    0  0.32557783777E+02 -0.10624301664E+02 -0.95791834304E+01  0.35561859141E+02  0.00000000000E+00 0.  1.
         11    1    3    3    0    0 -0.47701532698E+02  0.43960621628E+01  0.41915612791E+02  0.63652809678E+02  0.00000000000E+00 0. -1.
        -13    1    4    4    0    0  0.52207239955E+01  0.58508449702E+02  0.13343290751E+03  0.14579038189E+03  0.00000000000E+00 0. -1.
         13    1    4    4    0    0  0.32779134822E+02 -0.23365342543E+02  0.18031634877E+03  0.18475496352E+03  0.00000000000E+00 0.  1.
         21    1    1    2  503  502 -0.15996301688E+01 -0.32914462941E+02 -0.43917936318E+02  0.54906336773E+02  0.00000000000E+00 0.  1.
          1    1    1    2  501    0 -0.21256479727E+02  0.39995952832E+01  0.50491845396E+02  0.54929601713E+02  0.00000000000E+00 0.  1.
<scales pt_clust_5="13000.00000" pt_clust_6="13000.00000" pt_clust_7="13000.00000" pt_clust_8="13000.00000" pt_clust_9="32.91329" pt_clust_10="21.62949"></scales>
<clustering>
<clus scale="   21.629">  1 10  2 -1</clus>
<clus scale="   32.913">  2  9  1 -1</clus>
<clus scale="   90.236">  7  8 -1 -1</clus>
<clus scale="   92.357">  5  6 -1 -1</clus>
<clus scale="   97.567">  1  7  2 -1</clus>
<clus scale="   21.629">  1  5  2 -1</clus>
</clustering>
</event>
<event>
10    2  0.3544405E-006  0.9513192E+02  0.7546771E-02  0.1291881E+00
          2   -1    0    0  503    0 -0.00000000000E+00  0.00000000000E+00  0.33260115131E+03  0.33260115131E+03  0.00000000000E+00 0. -1.
         21   -1    0    0  501  502  0.00000000000E+00 -0.00000000000E+00 -0.37978458204E+03  0.37978458204E+03  0.00000000000E+00 0. -1.
         23    2    1    2    0    0  0.18029566148E+02  0.14447226547E+02  0.19363653109E+03  0.21544052068E+03  0.91573599720E+02 0.  0.
         23    2    1    2    0    0  0.25641869148E+02  0.58562019341E+02  0.24067221392E+00  0.11316155578E+03  0.93372716687E+02 0.  0.
        -11    1    3    3    0    0  0.23510621174E+02 -0.35891800455E+02  0.74182621863E+02  0.85697328047E+02  0.00000000000E+00 0. -1.
         11    1    3    3    0    0 -0.54810550256E+01  0.50339027002E+02  0.11945390923E+03  0.12974319263E+03  0.00000000000E+00 0.  1.
        -13    1    4    4    0    0 -0.10705049199E+02  0.24127006835E+02 -0.40683412876E+02  0.48495882509E+02  0.00000000000E+00 0.  1.
         13    1    4    4    0    0  0.36346918346E+02  0.34435012506E+02  0.40924085090E+02  0.64665673274E+02  0.00000000000E+00 0. -1.
         21    1    1    2  503  502 -0.25735594807E+02 -0.27528206383E+02  0.64302565603E+02  0.74531489519E+02  0.00000000000E+00 0.  1.
          2    1    1    2  501    0 -0.17935840489E+02 -0.45481039505E+02 -0.30536319964E+03  0.30925216737E+03  0.00000000000E+00 0. -1.
<scales pt_clust_5="13000.00000" pt_clust_6="13000.00000" pt_clust_7="13000.00000" pt_clust_8="13000.00000" pt_clust_9="37.68452" pt_clust_10="49.14894"></scales>
<clustering>
<clus scale="   37.685">  1  9  2 -1</clus>
<clus scale="   49.149">  2 10  1 -1</clus>
<clus scale="   91.574">  5  6 -1 -1</clus>
<clus scale="   93.367">  1  5  2 -1</clus>
<clus scale="   93.373">  7  8 -1 -1</clus>
<clus scale="   49.149">  2  5  1 -1</clus>
</clustering>
</event>
<event>
10    2  0.3544405E-006  0.1070775E+03  0.7546771E-02  0.1268171E+00
          2   -1    0    0  503    0 -0.00000000000E+00  0.00000000000E+00  0.42136947737E+03  0.42136947737E+03  0.00000000000E+00 0. -1.
         21   -1    0    0  501  502  0.00000000000E+00 -0.00000000000E+00 -0.84334911574E+02  0.84334911574E+02  0.00000000000E+00 0.  1.
         23    2    1    2    0    0  0.43557132109E+02  0.62740644604E+02  0.84716868046E+02  0.14821766221E+03  0.94646264673E+02 0.  0.
         23    2    1    2    0    0 -0.42379839754E+02  0.98474127268E+01  0.89773964489E+02  0.13422175086E+03  0.89794717819E+02 0.  0.
        -13    1    3    3    0    0 -0.17070932535E+02  0.37734709365E+02  0.69481444973E+02  0.80888789236E+02  0.00000000000E+00 0. -1.
         13    1    3    3    0    0  0.60628064644E+02  0.25005935239E+02  0.15235423072E+02  0.67328872974E+02  0.00000000000E+00 0.  1.
        -13    1    4    4    0    0 -0.61217711655E+02 -0.19237675250E+02  0.49173874649E+02  0.80844086471E+02  0.00000000000E+00 0.  1.
         13    1    4    4    0    0  0.18837871902E+02  0.29085087976E+02  0.40600089840E+02  0.53377664387E+02  0.00000000000E+00 0. -1.
         21    1    1    2  503  502  0.12062248943E+02 -0.10083754423E+03  0.16301721330E+03  0.19206332292E+03  0.00000000000E+00 0.  1.
          2    1    1    2  501    0 -0.13239541299E+02  0.28249486903E+02 -0.47348004163E+00  0.31201652960E+02  0.00000000000E+00 0. -1.
<scales pt_clust_5="13000.00000" pt_clust_6="13000.00000" pt_clust_7="13000.00000" pt_clust_8="13000.00000" pt_clust_9="95.29847" pt_clust_10="31.19806"></scales>
<clustering>
<clus scale="   31.198">  2 10  1 -1</clus>
<clus scale="   89.795">  7  8 -1 -1</clus>
<clus scale="   94.646">  5  6 -1 -1</clus>
<clus scale="   95.298">  1  9  2 -1</clus>
<clus scale="  102.814">  2  7  1 -1</clus>
<clus scale="   31.198">  2  5  1 -1</clus>
</clustering>
</event>
<event>
10    2  0.3544405E-006  0.1017408E+03  0.7546771E-02  0.1280076E+00
         21   -1    0    0  501  502  0.00000000000E+00  0.00000000000E+00  0.40067701557E+02  0.40067701557E+02  0.00000000000E+00 0.  1.
          3   -1    0    0  503    0 -0.00000000000E+00 -0.00000000000E+00 -0.52817965916E+03  0.52817965916E+03  0.00000000000E+00 0. -1.
         23    2    1    2    0    0 -0.28451867152E+02 -0.19744072191E+02 -0.27281508118E+03  0.28811291568E+03  0.85916509079E+02 0.  0.
         23    2    1    2    0    0  0.41113940529E+02 -0.15625365300E+02 -0.10508662489E+03  0.14703209350E+03  0.92955525078E+02 0.  0.
        -13    1    3    3    0    0 -0.42219982171E+02  0.22173569314E+02 -0.12245421619E+03  0.13141243904E+03  0.00000000000E+00 0.  1.
         13    1    3    3    0    0  0.13768115019E+02 -0.41917641505E+02 -0.15036086499E+03  0.15670047664E+03  0.00000000000E+00 0. -1.
        -13    1    4    4    0    0 -0.19232398091E+02  0.23809085940E+02 -0.34898171962E+02  0.46418101167E+02  0.00000000000E+00 0.  1.
         13    1    4    4    0    0  0.60346338620E+02 -0.39434451240E+02 -0.70188452927E+02  0.10061399234E+03  0.00000000000E+00 0. -1.
         21    1    1    2  503  502 -0.25027303875E+02  0.19356348172E+02 -0.10824655754E+03  0.11277566836E+03  0.00000000000E+00 0.  1.
          3    1    1    2  501    0  0.12365230497E+02  0.16013089319E+02 -0.19636939925E+01  0.20326683175E+02  0.00000000000E+00 0. -1.
<scales pt_clust_5="13000.00000" pt_clust_6="13000.00000" pt_clust_7="13000.00000" pt_clust_8="13000.00000" pt_clust_9="31.67500" pt_clust_10="20.23161"></scales>
<clustering>
<clus scale="   20.232">  1 10  2 -1</clus>
<clus scale="   31.675">  2  9  1 -1</clus>
<clus scale="   85.917">  5  6 -1 -1</clus>
<clus scale="   92.956">  7  8 -1 -1</clus>
<clus scale="   95.353">  2  5  1 -1</clus>
<clus scale="   20.232">  1  5  2 -1</clus>
</clustering>
</event>
<event>
10    2  0.3544405E-006  0.1207093E+03  0.7546771E-02  0.1244329E+00
         21   -1    0    0  501  502  0.00000000000E+00  0.00000000000E+00  0.86023727387E+02  0.86023727387E+02  0.00000000000E+00 0. -1.
          1   -1    0    0  503    0 -0.00000000000E+00 -0.00000000000E+00 -0.45028096188E+03  0.45028096188E+03  0.00000000000E+00 0. -1.
         23    2    1    2    0    0  0.93822515201E+02  0.38472455280E+01 -0.20258806914E+03  0.24413187855E+03  0.98696416914E+02 0.  0.
         23    2    1    2    0    0 -0.42920739523E+02 -0.37750047182E+02  0.77274517803E+00  0.10799844690E+03  0.91628660664E+02 0.  0.
        -11    1    4    4    0    0 -0.51097427247E+02  0.16064426080E+02  0.52925665550E+00  0.53565781700E+02  0.00000000000E+00 0.  1.
         11    1    4    4    0    0  0.81766877240E+01 -0.53814473261E+02  0.24348852254E+00  0.54432665204E+02  0.00000000000E+00 0. -1.
        -13    1    3    3    0    0  0.55047005080E+02 -0.43099734852E+02 -0.73699872286E+02  0.10158460064E+03  0.00000000000E+00 0.  1.
         13    1    3    3    0    0  0.38775510121E+02  0.46946980380E+02 -0.12888819685E+03  0.14254727791E+03  0.00000000000E+00 0. -1.
         21    1    1    2  503  502 -0.29639876678E+02  0.21039559997E+02 -0.15353071077E+03  0.15777472714E+03  0.00000000000E+00 0. -1.
          1    1    1    2  501    0 -0.21261899000E+02  0.12863241656E+02 -0.89111997593E+01  0.26399636667E+02  0.00000000000E+00 0. -1.
<scales pt_clust_5="13000.00000" pt_clust_6="13000.00000" pt_clust_7="13000.00000" pt_clust_8="13000.00000" pt_clust_9="37.02868" pt_clust_10="24.85018"></scales>
<clustering>
<clus scale="   24.850">  1 10  2 -1</clus>
<clus scale="   37.029">  2  9  1 -1</clus>
<clus scale="   91.629">  5  6 -1 -1</clus>
<clus scale="   98.696">  7  8 -1 -1</clus>
<clus scale="  115.002">  1  5  2 -1</clus>
<clus scale="   24.850">  1  5  2 -1</clus>
</clustering>
</event>
<event>
10    2  0.3544405E-006  0.1952239E+03  0.7546771E-02  0.1182049E+00
         21   -1    0    0  501  502  0.00000000000E+00  0.00000000000E+00  0.16173233828E+03  0.16173233828E+03  0.00000000000E+00 0. -1.
          1   -1    0    0  503    0 -0.00000000000E+00 -0.00000000000E+00 -0.55355721180E+03  0.55355721180E+03  0.00000000000E+00 0. -1.
         23    2    1    2    0    0  0.32825819273E+02  0.32827882249E+02 -0.25680773131E+03  0.27697412449E+03  0.92786046984E+02 0.  0.
         23    2    1    2    0    0  0.14573298013E+03  0.15557054836E+01 -0.12046952807E+03  0.21012948841E+03  0.91656821835E+02 0.  0.
        -11    1    4    4    0    0  0.13783982931E+03 -0.18958852935E+02 -0.71457614012E+02  0.15641434477E+03  0.00000000000E+00 0. -1.
         11    1    4    4    0    0  0.78931508211E+01  0.20514558419E+02 -0.49011914057E+02  0.53715143642E+02  0.00000000000E+00 0.  1.
        -13    1    3    3    0    0  0.18625194183E+02  0.52160199864E+02 -0.24313501474E+03  0.24936362946E+03  0.00000000000E+00 0. -1.
         13    1    3    3    0    0  0.14200625090E+02 -0.19332317615E+02 -0.13672716571E+02  0.27610495029E+02  0.00000000000E+00 0.  1.
         21    1    1    2  503  502  0.67735487317E+01 -0.20106376241E+02 -0.35263041147E+02  0.41153728858E+02  0.00000000000E+00 0. -1.
          1    1    1    2  501    0 -0.18533234814E+03 -0.14277211492E+02  0.20715427009E+02  0.18703220832E+03  0.00000000000E+00 0. -1.
<scales pt_clust_5="13000.00000" pt_clust_6="13000.00000" pt_clust_7="13000.00000" pt_clust_8="13000.00000" pt_clust_9="21.21668" pt_clust_10="172.36996"></scales>
<clustering>
<clus scale="   21.217">  2  9  1 -1</clus>
<clus scale="   91.657">  5  6 -1 -1</clus>
<clus scale="   92.786">  7  8 -1 -1</clus>
<clus scale="  102.136">  2  7  1 -1</clus>
<clus scale="  172.370">  1 10  2 -1</clus>
<clus scale="  172.370">  1  5  2 -1</clus>
</clustering>
</event>
<event>
10    2  0.3544405E-006  0.1229187E+03  0.7546771E-02  0.1241671E+00
         21   -1    0    0  503  502  0.00000000000E+00  0.00000000000E+00  0.65134460644E+02  0.65134460644E+02  0.00000000000E+00 0. -1.
         -2   -1    0    0    0  501 -0.00000000000E+00 -0.00000000000E+00 -0.37349911837E+03  0.37349911837E+03  0.00000000000E+00 0.  1.
         23    2    1    2    0    0 -0.74798002497E+02  0.12975409190E+02 -0.14589944031E+03  0.18872102489E+03  0.92552018521E+02 0.  0.
         23    2    1    2    0    0  0.86394306043E+02 -0.18352326050E+02 -0.11448107155E+03  0.16604357128E+03  0.81631904514E+02 0.  0.
        -13    1    4    4    0    0  0.55309209705E+02  0.29142068151E+02 -0.70569912917E+02  0.94278743221E+02  0.00000000000E+00 0. -1.
         13    1    4    4    0    0  0.31085096337E+02 -0.47494394201E+02 -0.43911158629E+02  0.71764828063E+02  0.00000000000E+00 0.  1.
        -13    1    3    3    0    0 -0.10978152141E+02  0.17882593068E+02 -0.11633971545E+03  0.11821690383E+03  0.00000000000E+00 0. -1.
         13    1    3    3    0    0 -0.63819850356E+02 -0.49071838780E+01 -0.29559724855E+02  0.70504121061E+02  0.00000000000E+00 0.  1.
         21    1    1    2  503  501  0.10025647694E+02  0.20124995796E+02 -0.52680712716E+02  0.57278150806E+02  0.00000000000E+00 0. -1.
         -2    1    1    2    0  502 -0.21621951239E+02 -0.14748078937E+02  0.46965668499E+01  0.26590832027E+02  0.00000000000E+00 0.  1.
<scales pt_clust_5="13000.00000" pt_clust_6="13000.00000" pt_clust_7="13000.00000" pt_clust_8="13000.00000" pt_clust_9="22.48397" pt_clust_10="25.50117"></scales>
<clustering>
<clus scale="   22.484">  2  9  1 -1</clus>
<clus scale="   25.501">  1 10  2 -1</clus>
<clus scale="   81.632">  5  6 -1 -1</clus>
<clus scale="   92.552">  7  8 -1 -1</clus>
<clus scale="  114.921">  1  5  2 -1</clus>
<clus scale="   25.501">  1  5  2 -1</clus>
</clustering>
</event>
<event>
10    2  0.3544405E-006  0.1495348E+03  0.7546771E-02  0.1201681E+00
         21   -1    0    0  503  502  0.00000000000E+00  0.00000000000E+00  0.43539582668E+03  0.43539582668E+03  0.00000000000E+00 0.  1.
         -1   -1    0    0    0  501 -0.00000000000E+00 -0.00000000000E+00 -0.25828476688E+03  0.25828476688E+03  0.00000000000E+00 0.  1.
         23    2    1    2    0    0  0.14951380332E+02 -0.10813362199E+03 -0.84382206976E+02  0.16559606510E+03  0.91571152367E+02 0.  0.
         23    2    1    2    0    0  0.28091552121E+02  0.12552830647E+03 -0.45982654079E+02  0.16260131897E+03  0.88194633782E+02 0.  0.
        -13    1    3    3    0    0  0.34555438955E+02 -0.10254501389E+02 -0.18828869328E+01  0.36094021988E+02  0.00000000000E+00 0.  1.
         13    1    3    3    0    0 -0.19604058623E+02 -0.97879120596E+02 -0.82499320043E+02  0.12950204311E+03  0.00000000000E+00 0. -1.
        -13    1    4    4    0    0 -0.22600040931E+02  0.13476775364E+02  0.91035464843E+01  0.27843489057E+02  0.00000000000E+00 0. -1.
         13    1    4    4    0    0  0.50691593052E+02  0.11205153111E+03 -0.55086200563E+02  0.13475782991E+03  0.00000000000E+00 0.  1.
         21    1    1    2  503  501  0.47543366366E+01 -0.24689946844E+02 -0.21433296669E+02  0.33039119209E+02  0.00000000000E+00 0.  1.
         -1    1    1    2    0  502 -0.47797269089E+02  0.72952623547E+01  0.32890921753E+03  0.33244409028E+03  0.00000000000E+00 0.  1.
<scales pt_clust_5="13000.00000" pt_clust_6="13000.00000" pt_clust_7="13000.00000" pt_clust_8="13000.00000" pt_clust_9="25.14353" pt_clust_10="48.28669"></scales>
<clustering>
<clus scale="   25.144">  2  9  1 -1</clus>
<clus scale="   48.287">  1 10  2 -1</clus>
<clus scale="   88.195">  7  8 -1 -1</clus>
<clus scale="   91.571">  5  6 -1 -1</clus>
<clus scale="  147.491">  1  7  2 -1</clus>
<clus scale="   48.287">  1  5  2 -1</clus>
</clustering>
</event>
<event>
10    2  0.3544405E-006  0.1825909E+03  0.7546771E-02  0.1167891E+00
         21   -1    0    0  501  502  0.00000000000E+00  0.00000000000E+00  0.80575482785E+03  0.80575482785E+03  0.00000000000E+00 0. -1.
          1   -1    0    0  503    0 -0.00000000000E+00 -0.00000000000E+00 -0.45322953026E+03  0.45322953026E+03  0.00000000000E+00 0. -1.
         23    2    1    2    0    0  0.50230177168E+02  0.21899097404E+03 -0.32889923902E+03  0.40438232580E+03  0.69787094663E+02 0.  0.
         23    2    1    2    0    0  0.57789766628E+02 -0.12698851173E+03  0.12013677158E+03  0.20613388766E+03  0.92696259446E+02 0.  0.
        -11    1    4    4    0    0  0.69959312463E+02 -0.43973709647E+02  0.48525754949E+02  0.95826621738E+02  0.00000000000E+00 0.  1.
         11    1    4    4    0    0 -0.12169545835E+02 -0.83014802086E+02  0.71611016629E+02  0.11030726592E+03  0.00000000000E+00 0. -1.
        -13    1    3    3    0    0  0.33253358538E+02  0.13424356200E+03 -0.14072885877E+03  0.19731125533E+03  0.00000000000E+00 0.  1.
         13    1    3    3    0    0  0.16976818630E+02  0.84747412044E+02 -0.18817038026E+03  0.20707107047E+03  0.00000000000E+00 0. -1.
         21    1    1    2  503  502  0.12481489485E+02 -0.67750181793E+02 -0.49258481496E+01  0.69066190663E+02  0.00000000000E+00 0.  1.
          1    1    1    2  501    0 -0.12050143328E+03 -0.24252280516E+02  0.56621361318E+03  0.57940195399E+03  0.00000000000E+00 0. -1.
<scales pt_clust_5="13000.00000" pt_clust_6="13000.00000" pt_clust_7="13000.00000" pt_clust_8="13000.00000" pt_clust_9="68.89031" pt_clust_10="122.94050"></scales>
<clustering>
<clus scale="   68.890">  2  9  1 -1</clus>
<clus scale="   69.787">  7  8 -1 -1</clus>
<clus scale="   92.696">  5  6 -1 -1</clus>
<clus scale="  122.940">  1 10  2 -1</clus>
<clus scale="  172.096">  2  7  1 -1</clus>
<clus scale="  122.940">  1  5  2 -1</clus>
</clustering>
</event>
<event>
10    2  0.5078717E-006  0.3261325E+03  0.7546771E-02  0.1072999E+00
          2   -1    0    0  503    0 -0.00000000000E+00  0.00000000000E+00  0.11262528640E+04  0.11262528640E+04  0.00000000000E+00 0. -1.
         21   -1    0    0  501  502  0.00000000000E+00 -0.00000000000E+00 -0.31754264927E+03  0.31754264927E+03  0.00000000000E+00 0.  1.
         23    2    1    2    0    0  0.28228012111E+03  0.13162010536E+03  0.83851927270E+03  0.89891945334E+03  0.89082512281E+02 0.  0.
         23    2    1    2    0    0 -0.28563734397E+03 -0.19326933418E+03 -0.12181923117E+03  0.37751399084E+03  0.93462079947E+02 0.  0.
        -11    1    4    4    0    0 -0.18205897012E+03 -0.69887768155E+02 -0.51207321607E+02  0.20162330849E+03  0.00000000000E+00 0. -1.
         11    1    4    4    0    0 -0.10357837385E+03 -0.12338156603E+03 -0.70611909563E+02  0.17589068235E+03  0.00000000000E+00 0.  1.
        -13    1    3    3    0    0  0.15879273068E+03  0.32766638412E+02  0.49139786179E+03  0.51745593289E+03  0.00000000000E+00 0.  1.
         13    1    3    3    0    0  0.12348739044E+03  0.98853466947E+02  0.34712141090E+03  0.38146352045E+03  0.00000000000E+00 0. -1.
         21    1    1    2  503  502 -0.15417151895E+02  0.22526458639E+02  0.11504073444E+03  0.11823493769E+03  0.00000000000E+00 0. -1.
          2    1    1    2  501    0  0.18774374755E+02  0.39122770187E+02 -0.23030561199E+02  0.49127131442E+02  0.00000000000E+00 0. -1.
<scales pt_clust_5="13000.00000" pt_clust_6="13000.00000" pt_clust_7="13000.00000" pt_clust_8="13000.00000" pt_clust_9="27.29707" pt_clust_10="43.57168"></scales>
<clustering>
<clus scale="   27.297">  1  9  2 -1</clus>
<clus scale="   43.572">  2 10  1 -1</clus>
<clus scale="   89.083">  7  8 -1 -1</clus>
<clus scale="   93.462">  5  6 -1 -1</clus>
<clus scale="  324.905">  1  7  2 -1</clus>
<clus scale="   43.572">  2  5  1 -1</clus>
</clustering>
</event>
<event>
10    2  0.3544405E-006  0.1219555E+03  0.7546771E-02  0.1239997E+00
         -1   -1    0    0    0  501 -0.00000000000E+00  0.00000000000E+00  0.26810338625E+03  0.26810338625E+03  0.00000000000E+00 0.  1.
         21   -1    0    0  503  502  0.00000000000E+00 -0.00000000000E+00 -0.43479559999E+03  0.43479559999E+03  0.00000000000E+00 0.  1.
         23    2    1    2    0    0  0.17469263041E+02  0.76985503242E+02  0.21655283981E+03  0.24726652865E+03  0.89519053284E+02 0.  0.
         23    2    1    2    0    0 -0.33837638531E+02 -0.73049093315E+01 -0.10198005100E+03  0.14023966883E+03  0.89826980530E+02 0.  0.
        -13    1    4    4    0    0 -0.58125708292E+02 -0.81504857552E+01 -0.33514697066E+02  0.67588928842E+02  0.00000000000E+00 0. -1.
         13    1    4    4    0    0  0.24288069761E+02  0.84557642366E+00 -0.68465353934E+02  0.72650739993E+02  0.00000000000E+00 0.  1.
        -13    1    3    3    0    0  0.35750915592E+02  0.85291289442E+02  0.20290680362E+03  0.22298857140E+03  0.00000000000E+00 0.  1.
         13    1    3    3    0    0 -0.18281652551E+02 -0.83057862000E+01  0.13646036183E+02  0.24277957244E+02  0.00000000000E+00 0. -1.
         21    1    1    2  503  501  0.12731903413E+02  0.20584240924E+02 -0.49759127688E+01  0.24709756106E+02  0.00000000000E+00 0. -1.
         -1    1    1    2    0  502  0.36364720771E+01 -0.90264834835E+02 -0.27628908978E+03  0.29068303265E+03  0.00000000000E+00 0.  1.
<scales pt_clust_5="13000.00000" pt_clust_6="13000.00000" pt_clust_7="13000.00000" pt_clust_8="13000.00000" pt_clust_9="24.20356" pt_clust_10="89.77992"></scales>
<clustering>
<clus scale="   24.204">  1  9  2 -1</clus>
<clus scale="   89.519">  7  8 -1 -1</clus>
<clus scale="   89.780">  2 10  1 -1</clus>
<clus scale="   89.827">  5  6 -1 -1</clus>
<clus scale="  121.729">  1  7  2 -1</clus>
<clus scale="   89.780">  2  5  1 -1</clus>
</clustering>
</event>
<event>
10    2  0.3544405E-006  0.9844550E+02  0.7546771E-02  0.1284085E+00
         -1   -1    0    0    0  501 -0.00000000000E+00  0.00000000000E+00  0.26744181169E+03  0.26744181169E+03  0.00000000000E+00 0.  1.
         21   -1    0    0  503  502  0.00000000000E+00 -0.00000000000E+00 -0.12039929783E+03  0.12039929783E+03  0.00000000000E+00 0. -1.
         23    2    1    2    0    0 -0.39212915232E+02  0.28375977434E+02  0.17283924513E+03  0.20145216938E+03  0.91469793232E+02 0.  0.
         23    2    1    2    0    0  0.87635957466E+01  0.22067572290E+02 -0.30673215483E+01  0.93612578151E+02  0.90499325795E+02 0.  0.
        -13    1    3    3    0    0 -0.27307559007E+01  0.56950030807E+02  0.90277854242E+02  0.10677478168E+03  0.00000000000E+00 0.  1.
         13    1    3    3    0    0 -0.36482159331E+02 -0.28574053373E+02  0.82561390886E+02  0.94677387694E+02  0.00000000000E+00 0. -1.
        -13    1    4    4    0    0 -0.40684060408E+02  0.42769359744E+01 -0.35253248164E+01  0.41059869309E+02  0.00000000000E+00 0.  1.
         13    1    4    4    0    0  0.49447656154E+02  0.17790636315E+02  0.45800326811E+00  0.52552708842E+02  0.00000000000E+00 0. -1.
         21    1    1    2  503  501 -0.14689282006E+02 -0.26681441271E+02  0.10129745207E+02  0.32098069290E+02  0.00000000000E+00 0. -1.
         -1    1    1    2    0  502  0.45138601492E+02 -0.23762108452E+02 -0.32859154922E+02  0.60678292699E+02  0.00000000000E+00 0.  1.
<scales pt_clust_5="13000.00000" pt_clust_6="13000.00000" pt_clust_7="13000.00000" pt_clust_8="13000.00000" pt_clust_9="30.45775" pt_clust_10="52.40985"></scales>
<clustering>
<clus scale="   30.458">  2  9  1 -1</clus>
<clus scale="   52.410">  2 10  1 -1</clus>
<clus scale="   90.499">  7  8 -1 -1</clus>
<clus scale="   91.470">  5  6 -1 -1</clus>
<clus scale="   97.544">  2  7  1 -1</clus>
<clus scale="   30.458">  2  5  1 -1</clus>
</clustering>
</event>
<event>
10    2  0.3544405E-006  0.9268976E+02  0.7546771E-02  0.1298278E+00
          3   -1    0    0  503    0 -0.00000000000E+00  0.00000000000E+00  0.83463491846E+02  0.83463491846E+02  0.00000000000E+00 0. -1.
         21   -1    0    0  501  502  0.00000000000E+00 -0.00000000000E+00 -0.82908294979E+03  0.82908294979E+03  0.00000000000E+00 0. -1.
         23    2    1    2    0    0 -0.17347787258E+02  0.10654316043E+02 -0.34799033114E+02  0.96740994618E+02  0.87939679104E+02 0.  0.
         23    2    1    2    0    0 -0.32035255149E+02  0.52721242094E+02 -0.27437260946E+03  0.29557003462E+03  0.90969937905E+02 0.  0.
        -11    1    4    4    0    0 -0.12786734208E+02  0.77491333436E+02 -0.19745694137E+03  0.21250329650E+03  0.00000000000E+00 0.  1.
         11    1    4    4    0    0 -0.19248520941E+02 -0.24770091342E+02 -0.76915668097E+02  0.83066738123E+02  0.00000000000E+00 0. -1.
        -11    1    3    3    0    0  0.22186417543E+02 -0.17790217532E+02 -0.38537205248E+02  0.47894103515E+02  0.00000000000E+00 0.  1.
         11    1    3    3    0    0 -0.39534204800E+02  0.28444533575E+02  0.37381721338E+01  0.48846891103E+02  0.00000000000E+00 0. -1.
         21    1    1    2  503  502 -0.20102767967E+02  0.21310533171E+00  0.34516652242E+02  0.39944536245E+02  0.00000000000E+00 0. -1.
          3    1    1    2  501    0  0.69485810373E+02 -0.63588663469E+02 -0.47096446761E+03  0.48029087615E+03  0.00000000000E+00 0. -1.
<scales pt_clust_5="13000.00000" pt_clust_6="13000.00000" pt_clust_7="13000.00000" pt_clust_8="13000.00000" pt_clust_9="20.10390" pt_clust_10="92.68976"></scales>
<clustering>
<clus scale="   20.104">  1  9  2 -1</clus>
<clus scale="   87.940">  7  8 -1 -1</clus>
<clus scale="   90.970">  5  6 -1 -1</clus>
<clus scale="   92.690">  2 10  1 -1</clus>
<clus scale="   89.632">  1  7  2 -1</clus>
<clus scale="   92.690">  2  5  1 -1</clus>
</clustering>
</event>
<event>
10    2  0.3544405E-006  0.1823126E+03  0.7546771E-02  0.1188066E+00
          1   -1    0    0  503    0 -0.00000000000E+00  0.00000000000E+00  0.66026958105E+03  0.66026958105E+03  0.00000000000E+00 0. -1.
         21   -1    0    0  501  502  0.00000000000E+00 -0.00000000000E+00 -0.32971390871E+03  0.32971390871E+03  0.00000000000E+00 0.  1.
         23    2    1    2    0    0  0.71956513689E+02 -0.13034533386E+03  0.74863520077E+01  0.17744801606E+03  0.96250231245E+02 0.  0.
         23    2    1    2    0    0 -0.58958348162E+02  0.46576737417E+01 -0.50371135659E+02  0.13335802821E+03  0.10839433397E+03 0.  0.
        -11    1    3    3    0    0  0.57467112474E+02 -0.22595840936E+02 -0.20712798936E+02  0.65131106880E+02  0.00000000000E+00 0.  1.
         11    1    3    3    0    0  0.14489401215E+02 -0.10774949292E+03  0.28199150944E+02  0.11231690918E+03  0.00000000000E+00 0. -1.
        -11    1    4    4    0    0  0.28076485072E+02  0.85371396491E+01 -0.33646611171E+02  0.44646010020E+02  0.00000000000E+00 0. -1.
         11    1    4    4    0    0 -0.87034833235E+02 -0.38794659074E+01 -0.16724524488E+02  0.88712018189E+02  0.00000000000E+00 0.  1.
         21    1    1    2  503  502 -0.11321987244E+03  0.10809496923E+03  0.49586550788E+03  0.51998640731E+03  0.00000000000E+00 0.  1.
          1    1    1    2  501    0  0.10022170691E+03  0.17592690886E+02 -0.12242505188E+03  0.15919103818E+03  0.00000000000E+00 0. -1.
<scales pt_clust_5="13000.00000" pt_clust_6="13000.00000" pt_clust_7="13000.00000" pt_clust_8="13000.00000" pt_clust_9="154.83473" pt_clust_10="101.75408"></scales>
<clustering>
<clus scale="   96.250">  5  6 -1 -1</clus>
<clus scale="  101.754">  2 10  1 -1</clus>
<clus scale="  108.394">  7  8 -1 -1</clus>
<clus scale="  109.674">  2  7  1 -1</clus>
<clus scale="  154.835">  1  9  2 -1</clus>
<clus scale="  101.754">  2  5  1 -1</clus>
</clustering>
</event>
<event>
10    2  0.3544405E-006  0.9508533E+02  0.7546771E-02  0.1291966E+00
          2   -1    0    0  503    0 -0.00000000000E+00  0.00000000000E+00  0.23348342311E+03  0.23348342311E+03  0.00000000000E+00 0. -1.
         21   -1    0    0  501  502  0.00000000000E+00 -0.00000000000E+00 -0.16241859276E+03  0.16241859276E+03  0.00000000000E+00 0. -1.
         23    2    1    2    0    0  0.24250718355E+02 -0.41098300425E+02  0.15380739990E+03  0.18519397038E+03  0.91449017279E+02 0.  0.
         23    2    1    2    0    0 -0.14517968535E+02 -0.17942111750E+02 -0.10188136200E+03  0.13765778606E+03  0.89650227869E+02 0.  0.
        -11    1    4    4    0    0  0.21435413985E+02 -0.12779265007E+02 -0.98001437061E+02  0.10112896842E+03  0.00000000000E+00 0. -1.
         11    1    4    4    0    0 -0.35953382520E+02 -0.51628467434E+01 -0.38799249352E+01  0.36528817647E+02  0.00000000000E+00 0.  1.
        -13    1    3    3    0    0  0.50170996105E+02 -0.53142278957E+01  0.44421071901E+02  0.67220543713E+02  0.00000000000E+00 0.  1.
         13    1    3    3    0    0 -0.25920277750E+02 -0.35784072529E+02  0.10938632800E+03  0.11797342666E+03  0.00000000000E+00 0. -1.
         21    1    1    2  503  502  0.21586657640E+01  0.32222971424E+02  0.27639371455E+02  0.42507817865E+02  0.00000000000E+00 0.  1.
          2    1    1    2  501    0 -0.11891415584E+02  0.26817440751E+02 -0.85005790108E+01  0.30542441562E+02  0.00000000000E+00 0. -1.
<scales pt_clust_5="13000.00000" pt_clust_6="13000.00000" pt_clust_7="13000.00000" pt_clust_8="13000.00000" pt_clust_9="33.65340" pt_clust_10="29.33566"></scales>
<clustering>
<clus scale="   29.336">  2 10  1 -1</clus>
<clus scale="   33.653">  1  9  2 -1</clus>
<clus scale="   89.650">  5  6 -1 -1</clus>
<clus scale="   91.449">  7  8 -1 -1</clus>
<clus scale="   93.357">  2  5  1 -1</clus>
<clus scale="   29.336">  2  5  1 -1</clus>
</clustering>
</event>
<event>
10    2  0.3544405E-006  0.1218588E+03  0.7546771E-02  0.1240441E+00
         -3   -1    0    0    0  501 -0.00000000000E+00  0.00000000000E+00  0.24067954208E+03  0.24067954208E+03  0.00000000000E+00 0.  1.
         21   -1    0    0  503  502  0.00000000000E+00 -0.00000000000E+00 -0.12187474158E+03  0.12187474158E+03  0.00000000000E+00 0. -1.
         23    2    1    2    0    0 -0.53735671616E+02  0.33921738420E+02  0.86859526582E+02  0.14112345411E+03  0.91285514742E+02 0.  0.
         23    2    1    2    0    0  0.93753514260E+02  0.15680428493E+02 -0.55330892095E-01  0.13092546180E+03  0.90032639706E+02 0.  0.
        -11    1    3    3    0    0  0.52385196916E+01 -0.20839264591E+02  0.46210723653E+02  0.50962221476E+02  0.00000000000E+00 0.  1.
         11    1    3    3    0    0 -0.58974191308E+02  0.54761003011E+02  0.40648802928E+02  0.90161232638E+02  0.00000000000E+00 0. -1.
        -13    1    4    4    0    0  0.20416055285E+02  0.46951725878E+02  0.19481300681E+00  0.51198806904E+02  0.00000000000E+00 0.  1.
         13    1    4    4    0    0  0.73337458975E+02 -0.31271297385E+02 -0.25014389890E+00  0.79726654897E+02  0.00000000000E+00 0. -1.
         21    1    1    2  503  501 -0.49532838973E+02 -0.22262979780E+02  0.28548109738E+02  0.61352562905E+02  0.00000000000E+00 0.  1.
         -3    1    1    2    0  502  0.95149963291E+01 -0.27339187132E+02  0.34524950689E+01  0.29152804846E+02  0.00000000000E+00 0.  1.
<scales pt_clust_5="13000.00000" pt_clust_6="13000.00000" pt_clust_7="13000.00000" pt_clust_8="13000.00000" pt_clust_9="54.85832" pt_clust_10="28.94765"></scales>
<clustering>
<clus scale="   28.948">  2 10  1 -1</clus>
<clus scale="   54.858">  1  9  2 -1</clus>
<clus scale="   90.033">  7  8 -1 -1</clus>
<clus scale="   91.286">  5  6 -1 -1</clus>
<clus scale="  120.923">  2  7  1 -1</clus>
<clus scale="   28.948">  2  5  1 -1</clus>
</clustering>
</event>
<event>
10    2  0.3544405E-006  0.1453672E+03  0.7546771E-02  0.1206566E+00
          1   -1    0    0  503    0 -0.00000000000E+00  0.00000000000E+00  0.22177344421E+03  0.22177344421E+03  0.00000000000E+00 0. -1.
         21   -1    0    0  501  502  0.00000000000E+00 -0.00000000000E+00 -0.40167747842E+03  0.40167747842E+03  0.00000000000E+00 0.  1.
         23    2    1    2    0    0 -0.13367565460E+03 -0.33661778419E+02 -0.20499071478E+02  0.16581149675E+03  0.89838435903E+02 0.  0.
         23    2    1    2    0    0  0.95221217228E+01  0.12841979085E+03 -0.10697305262E+03  0.19065841942E+03  0.91241906074E+02 0.  0.
        -13    1    3    3    0    0 -0.11569429710E+03 -0.57490914765E+02  0.70810558930E+00  0.12919317735E+03  0.00000000000E+00 0.  1.
         13    1    3    3    0    0 -0.17981357504E+02  0.23829136346E+02 -0.21207177067E+02  0.36618319402E+02  0.00000000000E+00 0. -1.
        -13    1    4    4    0    0 -0.31897913498E+02  0.70449659441E+02 -0.23314445597E+02  0.80772487732E+02  0.00000000000E+00 0.  1.
         13    1    4    4    0    0  0.41420035221E+02  0.57970131405E+02 -0.83658607025E+02  0.10988593168E+03  0.00000000000E+00 0. -1.
         21    1    1    2  503  502  0.42411926500E+01 -0.33447448396E+02  0.74587948153E+02  0.81854025734E+02  0.00000000000E+00 0. -1.
          1    1    1    2  501    0  0.11991234023E+03 -0.61310564031E+02 -0.12701985826E+03  0.18512698073E+03  0.00000000000E+00 0. -1.
<scales pt_clust_5="13000.00000" pt_clust_6="13000.00000" pt_clust_7="13000.00000" pt_clust_8="13000.00000" pt_clust_9="33.71527" pt_clust_10="138.63784"></scales>
<clustering>
<clus scale="   33.715">  1  9  2 -1</clus>
<clus scale="   89.838">  5  6 -1 -1</clus>
<clus scale="   91.242">  7  8 -1 -1</clus>
<clus scale="  138.638">  2 10  1 -1</clus>
<clus scale="  144.490">  1  5  2 -1</clus>
<clus scale="  138.638">  2  5  1 -1</clus>
</clustering>
</event>
<event>
10    2  0.3544405E-006  0.1284560E+03  0.7546771E-02  0.1234029E+00
         -2   -1    0    0    0  501 -0.00000000000E+00  0.00000000000E+00  0.69303819917E+03  0.69303819917E+03  0.00000000000E+00 0.  1.
         21   -1    0    0  503  502  0.00000000000E+00 -0.00000000000E+00 -0.37671316333E+02  0.37671316333E+02  0.00000000000E+00 0. -1.
         23    2    1    2    0    0  0.18035808502E+02  0.78487772468E+02  0.27619258493E+03  0.30541540595E+03  0.10252124367E+03 0.  0.
         23    2    1    2    0    0  0.21649885905E+02 -0.76754023072E+02  0.26487513245E+03  0.29047015856E+03  0.88623809500E+02 0.  0.
        -11    1    4    4    0    0  0.19525393022E+02 -0.34692090206E+02  0.23617190924E+03  0.23950355490E+03  0.00000000000E+00 0.  1.
         11    1    4    4    0    0  0.21244928837E+01 -0.42061932866E+02  0.28703223202E+02  0.50966603660E+02  0.00000000000E+00 0. -1.
        -13    1    3    3    0    0 -0.29474669046E+02  0.75783132745E+02  0.15133713061E+03  0.17179862172E+03  0.00000000000E+00 0.  1.
         13    1    3    3    0    0  0.47510477548E+02  0.27046397228E+01  0.12485545433E+03  0.13361678423E+03  0.00000000000E+00 0. -1.
         21    1    1    2  503  501 -0.25819859125E+02 -0.17618545605E+02  0.10856143104E+03  0.11297195486E+03  0.00000000000E+00 0. -1.
         -2    1    1    2    0  502 -0.13865835282E+02  0.15884796210E+02  0.57377344125E+01  0.21851996130E+02  0.00000000000E+00 0.  1.
<scales pt_clust_5="13000.00000" pt_clust_6="13000.00000" pt_clust_7="13000.00000" pt_clust_8="13000.00000" pt_clust_9="31.48305" pt_clust_10="21.08526"></scales>
<clustering>
<clus scale="   21.085">  2 10  1 -1</clus>
<clus scale="   31.483">  1  9  2 -1</clus>
<clus scale="   88.624">  5  6 -1 -1</clus>
<clus scale="  102.521">  7  8 -1 -1</clus>
<clus scale="  117.663">  2  5  1 -1</clus>
<clus scale="   21.085">  2  5  1 -1</clus>
</clustering>
</event>
<event>
10    2  0.3544405E-006  0.9647973E+02  0.7546771E-02  0.1288919E+00
          2   -1    0    0  503    0 -0.00000000000E+00  0.00000000000E+00  0.59131079122E+03  0.59131079122E+03  0.00000000000E+00 0. -1.
         21   -1    0    0  501  502  0.00000000000E+00 -0.00000000000E+00 -0.35463218968E+02  0.35463218968E+02  0.00000000000E+00 0.  1.
         23    2    1    2    0    0 -0.18656003830E+02 -0.28598715642E+02  0.31353403664E+03  0.32819002350E+03  0.90769853884E+02 0.  0.
         23    2    1    2    0    0  0.18921931868E+02  0.46656133362E+02  0.98276164664E+02  0.14168674643E+03  0.88781165158E+02 0.  0.
        -11    1    3    3    0    0  0.29397589920E+02  0.11347575306E+02  0.14647859282E+03  0.14982978313E+03  0.00000000000E+00 0.  1.
         11    1    3    3    0    0 -0.48053593750E+02 -0.39946290948E+02  0.16705544383E+03  0.17836024037E+03  0.00000000000E+00 0. -1.
        -13    1    4    4    0    0 -0.16399856504E+02 -0.18677928628E+02  0.11269987632E+02  0.27291627515E+02  0.00000000000E+00 0. -1.
         13    1    4    4    0    0  0.35321788373E+02  0.65334061989E+02  0.87006177032E+02  0.11439511891E+03  0.00000000000E+00 0.  1.
         21    1    1    2  503  502  0.26171803810E+02  0.53727603938E+01  0.67743849478E+02  0.72822105236E+02  0.00000000000E+00 0. -1.
          2    1    1    2  501    0 -0.26437731848E+02 -0.23430178113E+02  0.76293521467E+02  0.84075135025E+02  0.00000000000E+00 0. -1.
<scales pt_clust_5="13000.00000" pt_clust_6="13000.00000" pt_clust_7="13000.00000" pt_clust_8="13000.00000" pt_clust_9="26.71759" pt_clust_10="31.82953"></scales>
<clustering>
<clus scale="   26.718">  1  9  2 -1</clus>
<clus scale="   31.830">  2 10  1 -1</clus>
<clus scale="   88.781">  7  8 -1 -1</clus>
<clus scale="   90.770">  5  6 -1 -1</clus>
<clus scale="   94.611">  2  7  1 -1</clus>
<clus scale="   31.830">  2  5  1 -1</clus>
</clustering>
</event>
<event>
10    2  0.3544405E-006  0.9565390E+02  0.7546771E-02  0.1291766E+00
         21   -1    0    0  501  502  0.00000000000E+00  0.00000000000E+00  0.41294374477E+03  0.41294374477E+03  0.00000000000E+00 0. -1.
          1   -1    0    0  503    0 -0.00000000000E+00 -0.00000000000E+00 -0.19774968278E+03  0.19774968278E+03  0.00000000000E+00 0. -1.
         23    2    1    2    0    0 -0.55802432852E+01 -0.23589754663E+02 -0.29177001108E+02  0.98411027346E+02  0.90806482530E+02 0.  0.
         23    2    1    2    0    0  0.34131382886E+01  0.21125051773E+02  0.99394981766E+02  0.13878234026E+03  0.94462999335E+02 0.  0.
        -11    1    4    4    0    0  0.96107154142E+01 -0.37078915263E+02  0.37966438551E+02  0.53932015205E+02  0.00000000000E+00 0.  1.
         11    1    4    4    0    0 -0.61975771256E+01  0.58203967036E+02  0.61428543215E+02  0.84850325058E+02  0.00000000000E+00 0. -1.
        -13    1    3    3    0    0 -0.22390205571E+02 -0.54357867757E+02 -0.15695783127E+02  0.60847815906E+02  0.00000000000E+00 0.  1.
         13    1    3    3    0    0  0.16809962286E+02  0.30768113094E+02 -0.13481217980E+02  0.37563211440E+02  0.00000000000E+00 0. -1.
         21    1    1    2  503  502 -0.15258497640E+02  0.29694534608E+02 -0.11078388151E+03  0.11570503679E+03  0.00000000000E+00 0. -1.
          1    1    1    2  501    0  0.17425602636E+02 -0.27229831718E+02  0.25575996284E+03  0.25779502314E+03  0.00000000000E+00 0. -1.
<scales pt_clust_5="13000.00000" pt_clust_6="13000.00000" pt_clust_7="13000.00000" pt_clust_8="13000.00000" pt_clust_9="32.87838" pt_clust_10="32.32824"></scales>
<clustering>
<clus scale="   32.328">  1 10  2 -1</clus>
<clus scale="   32.878">  2  9  1 -1</clus>
<clus scale="   90.806">  7  8 -1 -1</clus>
<clus scale="   92.045">  2  7  1 -1</clus>
<clus scale="   94.463">  5  6 -1 -1</clus>
<clus scale="   32.328">  1  5  2 -1</clus>
</clustering>
</event>
<event>
10    2  0.3544405E-006  0.2044342E+03  0.7546771E-02  0.1166906E+00
          2   -1    0    0  502    0 -0.00000000000E+00  0.00000000000E+00  0.86389843904E+03  0.86389843904E+03  0.00000000000E+00 0. -1.
         21   -1    0    0  503  502  0.00000000000E+00 -0.00000000000E+00 -0.10410233748E+03  0.10410233748E+03  0.00000000000E+00 0. -1.
         23    2    1    2    0    0  0.70283231808E+02 -0.51620385422E+02  0.38817166128E+03  0.40793158856E+03  0.90147354150E+02 0.  0.
         23    2    1    2    0    0  0.34225844146E+02  0.19317601016E+03  0.14959562402E+03  0.26341226330E+03  0.92297293686E+02 0.  0.
        -11    1    3    3    0    0  0.34928106064E+02  0.23605825427E+02  0.14006731544E+03  0.14627392263E+03  0.00000000000E+00 0.  1.
         11    1    3    3    0    0  0.35355125744E+02 -0.75226210849E+02  0.24810434584E+03  0.26165766593E+03  0.00000000000E+00 0. -1.
        -13    1    4    4    0    0  0.31802860477E+02  0.21573699485E+02  0.56034504605E+02  0.67946391738E+02  0.00000000000E+00 0.  1.
         13    1    4    4    0    0  0.24229836690E+01  0.17160231068E+03  0.93561119419E+02  0.19546587156E+03  0.00000000000E+00 0. -1.
         21    1    1    2  503  501 -0.80401870141E+02 -0.74995481414E+02  0.18873898251E+03  0.21842890485E+03  0.00000000000E+00 0. -1.
          2    1    1    2  501    0 -0.24107205812E+02 -0.66560143326E+02  0.33289833745E+02  0.78228019804E+02  0.00000000000E+00 0. -1.
<scales pt_clust_5="13000.00000" pt_clust_6="13000.00000" pt_clust_7="13000.00000" pt_clust_8="13000.00000" pt_clust_9="70.63179" pt_clust_10="202.54136"></scales>
<clustering>
<clus scale="   70.632">  9 10 -1 -1</clus>
<clus scale="   90.147">  5  6 -1 -1</clus>
<clus scale="   92.297">  7  8 -1 -1</clus>
<clus scale="  125.423">  1  5  2 -1</clus>
<clus scale="  202.541">  2  9  1 -1</clus>
<clus scale="  202.541">  2  5  1 -1</clus>
</clustering>
</event>
<event>
10    2  0.3544405E-006  0.1781629E+03  0.7546771E-02  0.1187531E+00
         21   -1    0    0  501  502  0.00000000000E+00  0.00000000000E+00  0.63104199034E+03  0.63104199034E+03  0.00000000000E+00 0. -1.
          3   -1    0    0  503    0 -0.00000000000E+00 -0.00000000000E+00 -0.31209408221E+03  0.31209408221E+03  0.00000000000E+00 0. -1.
         23    2    1    2    0    0  0.55364324871E+02  0.88760968589E+02 -0.87332907839E+02  0.16136091074E+03  0.86409424897E+02 0.  0.
         23    2    1    2    0    0 -0.14539071365E+03 -0.14078617005E+03 -0.76349878471E+02  0.23423735606E+03  0.89881197934E+02 0.  0.
        -11    1    3    3    0    0  0.48373774619E+02  0.17733209684E+01 -0.32110110170E+02  0.58088087533E+02  0.00000000000E+00 0.  1.
         11    1    3    3    0    0  0.69905502522E+01  0.86987647621E+02 -0.55222797669E+02  0.10327282321E+03  0.00000000000E+00 0. -1.
        -13    1    4    4    0    0 -0.29342883193E+02 -0.23430042387E+01 -0.40498895532E+02  0.50066505793E+02  0.00000000000E+00 0.  1.
         13    1    4    4    0    0 -0.11604783045E+03 -0.13844316581E+03 -0.35850982939E+02  0.18417085027E+03  0.00000000000E+00 0. -1.
         21    1    1    2  503  502 -0.16987891914E+02 -0.53279982535E+02  0.17226138053E+02  0.58515680316E+02  0.00000000000E+00 0.  1.
          3    1    1    2  501    0  0.10701428069E+03  0.10530518399E+03  0.46540455639E+03  0.48902212543E+03  0.00000000000E+00 0. -1.
<scales pt_clust_5="13000.00000" pt_clust_6="13000.00000" pt_clust_7="13000.00000" pt_clust_8="13000.00000" pt_clust_9="55.92267" pt_clust_10="153.82912"></scales>
<clustering>
<clus scale="   55.923">  2  9  1 -1</clus>
<clus scale="   86.409">  5  6 -1 -1</clus>
<clus scale="   89.881">  7  8 -1 -1</clus>
<clus scale="  118.919">  2  5  1 -1</clus>
<clus scale="  153.829">  1 10  2 -1</clus>
<clus scale="  153.829">  1  5  2 -1</clus>
</clustering>
</event>
<event>
10    2  0.3544405E-006  0.1158135E+03  0.7546771E-02  0.1252744E+00
          1   -1    0    0  503    0 -0.00000000000E+00  0.00000000000E+00  0.16671983190E+03  0.16671983190E+03  0.00000000000E+00 0. -1.
         21   -1    0    0  501  502  0.00000000000E+00 -0.00000000000E+00 -0.20710792033E+03  0.20710792033E+03  0.00000000000E+00 0.  1.
         23    2    1    2    0    0  0.28178014259E+02  0.72931982845E+02  0.34854853565E+02  0.11798324915E+03  0.81191820117E+02 0.  0.
         23    2    1    2    0    0 -0.89938198456E+02 -0.24269366009E+02 -0.16246125711E+02  0.12978101940E+03  0.88889227285E+02 0.  0.
        -13    1    4    4    0    0 -0.43007135951E+01 -0.38014268606E+02 -0.19594614890E+02  0.42982899946E+02  0.00000000000E+00 0. -1.
         13    1    4    4    0    0 -0.85637484861E+02  0.13744902597E+02  0.33484891786E+01  0.86798119452E+02  0.00000000000E+00 0.  1.
        -13    1    3    3    0    0 -0.10892395369E+02  0.49523714935E+02 -0.12556753022E+02  0.52239014771E+02  0.00000000000E+00 0.  1.
         13    1    3    3    0    0  0.39070409628E+02  0.23408267910E+02  0.47411606587E+02  0.65744234380E+02  0.00000000000E+00 0. -1.
         21    1    1    2  503  502  0.16061519305E+02 -0.21394771131E+02  0.18160458676E+02  0.32334360879E+02  0.00000000000E+00 0. -1.
          1    1    1    2  501    0  0.45698664891E+02 -0.27267845705E+02 -0.77157274962E+02  0.93729122805E+02  0.00000000000E+00 0. -1.
<scales pt_clust_5="13000.00000" pt_clust_6="13000.00000" pt_clust_7="13000.00000" pt_clust_8="13000.00000" pt_clust_9="26.75273" pt_clust_10="54.66877"></scales>
<clustering>
<clus scale="   26.753">  1  9  2 -1</clus>
<clus scale="   54.669">  2 10  1 -1</clus>
<clus scale="   81.192">  7  8 -1 -1</clus>
<clus scale="   88.889">  5  6 -1 -1</clus>
<clus scale="  110.016">  1  7  2 -1</clus>
<clus scale="   54.669">  2  5  1 -1</clus>
</clustering>
</event>
<event>
10    2  0.3544405E-006  0.1004473E+03  0.7546771E-02  0.1281795E+00
         -1   -1    0    0    0  501 -0.00000000000E+00  0.00000000000E+00  0.45561365829E+02  0.45561365829E+02  0.00000000000E+00 0.  1.
         21   -1    0    0  503  502  0.00000000000E+00 -0.00000000000E+00 -0.71351483285E+03  0.71351483285E+03  0.00000000000E+00 0.  1.
         23    2    1    2    0    0  0.15675126731E+02  0.18660619593E+02 -0.37189303688E+02  0.10179091207E+03  0.91566463017E+02 0.  0.
         23    2    1    2    0    0 -0.11995725464E+02  0.25312131274E+02 -0.34748862887E+03  0.36167722843E+03  0.96319618745E+02 0.  0.
        -11    1    4    4    0    0  0.17545278446E+02  0.51665676538E+02 -0.25978099861E+03  0.26544932881E+03  0.00000000000E+00 0.  1.
         11    1    4    4    0    0 -0.29541003910E+02 -0.26353545264E+02 -0.87707630262E+02  0.96227899624E+02  0.00000000000E+00 0. -1.
        -11    1    3    3    0    0 -0.20998855325E+02  0.51062706383E+01  0.22009744794E+02  0.30845660808E+02  0.00000000000E+00 0.  1.
         11    1    3    3    0    0  0.36673982056E+02  0.13554348955E+02 -0.59199048482E+02  0.70945251262E+02  0.00000000000E+00 0. -1.
         21    1    1    2  503  501  0.24576666014E+02 -0.12207204234E+02 -0.39157520140E+02  0.47815684990E+02  0.00000000000E+00 0.  1.
         -1    1    1    2    0  502 -0.28256067281E+02 -0.31765546633E+02 -0.24411801432E+03  0.24779237318E+03  0.00000000000E+00 0.  1.
<scales pt_clust_5="13000.00000" pt_clust_6="13000.00000" pt_clust_7="13000.00000" pt_clust_8="13000.00000" pt_clust_9="27.44136" pt_clust_10="42.20926"></scales>
<clustering>
<clus scale="   27.441">  1  9  2 -1</clus>
<clus scale="   42.209">  2 10  1 -1</clus>
<clus scale="   91.566">  7  8 -1 -1</clus>
<clus scale="   95.899">  1  7  2 -1</clus>
<clus scale="   96.320">  5  6 -1 -1</clus>
<clus scale="   42.209">  2  5  1 -1</clus>
</clustering>
</event>
<event>
10    2  0.3544405E-006  0.1643070E+03  0.7546771E-02  0.1186492E+00
         21   -1    0    0  501  502  0.00000000000E+00  0.00000000000E+00  0.54330027165E+02  0.54330027165E+02  0.00000000000E+00 0.  1.
          2   -1    0    0  503    0 -0.00000000000E+00 -0.00000000000E+00 -0.94525718836E+03  0.94525718836E+03  0.00000000000E+00 0. -1.
         23    2    1    2    0    0 -0.25208432567E+02  0.13864975809E+03 -0.61227299458E+03  0.63492335518E+03  0.91598179957E+02 0.  0.
         23    2    1    2    0    0  0.92476958951E+01 -0.99013564301E+02 -0.11320893506E+03  0.18444562783E+03  0.10637067665E+03 0.  0.
        -11    1    4    4    0    0  0.19752822178E+02 -0.11880896262E+03 -0.10721521942E+03  0.16124778094E+03  0.00000000000E+00 0. -1.
         11    1    4    4    0    0 -0.10505126283E+02  0.19795398321E+02 -0.59937156437E+01  0.23197846886E+02  0.00000000000E+00 0.  1.
        -11    1    3    3    0    0  0.24887490674E+02  0.10245444431E+03 -0.41578734708E+03  0.42894687124E+03  0.00000000000E+00 0. -1.
         11    1    3    3    0    0 -0.50095923241E+02  0.36195313777E+02 -0.19648564750E+03  0.20597648394E+03  0.00000000000E+00 0.  1.
         21    1    1    2  503  502  0.31001066745E+02 -0.69990088596E+01 -0.10689447329E+03  0.11151897006E+03  0.00000000000E+00 0.  1.
          2    1    1    2  501    0 -0.15040330074E+02 -0.32637184926E+02 -0.58550758267E+02  0.68699262458E+02  0.00000000000E+00 0. -1.
<scales pt_clust_5="13000.00000" pt_clust_6="13000.00000" pt_clust_7="13000.00000" pt_clust_8="13000.00000" pt_clust_9="31.78132" pt_clust_10="35.51123"></scales>
<clustering>
<clus scale="   31.781">  2  9  1 -1</clus>
<clus scale="   35.511">  1 10  2 -1</clus>
<clus scale="   91.598">  7  8 -1 -1</clus>
<clus scale="  106.371">  5  6 -1 -1</clus>
<clus scale="  155.152">  2  7  1 -1</clus>
<clus scale="   35.511">  1  5  2 -1</clus>
</clustering>
</event>
<event>
10    2  0.3544405E-006  0.1415656E+03  0.7546771E-02  0.1213166E+00
          3   -1    0    0  503    0 -0.00000000000E+00  0.00000000000E+00  0.45140415550E+03  0.45140415550E+03  0.00000000000E+00 0. -1.
         21   -1    0    0  501  502  0.00000000000E+00 -0.00000000000E+00 -0.89334069062E+02  0.89334069062E+02  0.00000000000E+00 0.  1.
         23    2    1    2    0    0 -0.56166589230E+02 -0.10257071717E+03  0.28348225568E+03  0.31725122412E+03  0.81306286067E+02 0.  0.
         23    2    1    2    0    0  0.82556687571E+02  0.51909299493E+02  0.58446836477E+02  0.14531104045E+03  0.90493556378E+02 0.  0.
        -13    1    3    3    0    0  0.15950939358E+02 -0.20664310582E+02  0.10373257143E+03  0.10696678257E+03  0.00000000000E+00 0.  1.
         13    1    3    3    0    0 -0.72117528588E+02 -0.81906406587E+02  0.17974968425E+03  0.21028444155E+03  0.00000000000E+00 0. -1.
        -13    1    4    4    0    0  0.88848045528E+02  0.87628697794E+01  0.35933294657E+02  0.96239101959E+02  0.00000000000E+00 0.  1.
         13    1    4    4    0    0 -0.62913579573E+01  0.43146429714E+02  0.22513541820E+02  0.49071938491E+02  0.00000000000E+00 0. -1.
         21    1    1    2  503  502 -0.83000623509E+01  0.35351808430E+02  0.34811421822E+02  0.50303841638E+02  0.00000000000E+00 0.  1.
          3    1    1    2  501    0 -0.18090035990E+02  0.15309609246E+02 -0.14670427539E+02  0.27872118355E+02  0.00000000000E+00 0. -1.
<scales pt_clust_5="13000.00000" pt_clust_6="13000.00000" pt_clust_7="13000.00000" pt_clust_8="13000.00000" pt_clust_9="38.51345" pt_clust_10="23.69881"></scales>
<clustering>
<clus scale="   23.699">  2 10  1 -1</clus>
<clus scale="   38.513">  2  9  1 -1</clus>
<clus scale="   81.306">  5  6 -1 -1</clus>
<clus scale="   90.494">  7  8 -1 -1</clus>
<clus scale="  135.877">  1  5  2 -1</clus>
<clus scale="   23.699">  2  5  1 -1</clus>
</clustering>
</event>
<event>
10    2  0.3544405E-006  0.2552545E+03  0.7546771E-02  0.1110084E+00
          2   -1    0    0  503    0 -0.00000000000E+00  0.00000000000E+00  0.45012184902E+03  0.45012184902E+03  0.00000000000E+00 0. -1.
         21   -1    0    0  501  502  0.00000000000E+00 -0.00000000000E+00 -0.26494531962E+03  0.26494531962E+03  0.00000000000E+00 0.  1.
         23    2    1    2    0    0 -0.17567146669E+03 -0.18410848193E+03  0.11692009207E+03  0.29464066440E+03  0.91577376348E+02 0.  0.
         23    2    1    2    0    0  0.12722747414E+03  0.17793596186E+03 -0.52969581639E+02  0.24336352744E+03  0.92585059315E+02 0.  0.
        -13    1    4    4    0    0  0.52917665605E+02  0.10820413580E+03  0.14242548654E+02  0.12129000177E+03  0.00000000000E+00 0. -1.
         13    1    4    4    0    0  0.74309808532E+02  0.69731826063E+02 -0.67212130293E+02  0.12207352567E+03  0.00000000000E+00 0.  1.
        -13    1    3    3    0    0 -0.12650830007E+01 -0.48536763182E+02  0.31072180295E+02  0.57644585205E+02  0.00000000000E+00 0. -1.
         13    1    3    3    0    0 -0.17440638369E+03 -0.13557171874E+03  0.85847911779E+02  0.23699607919E+03  0.00000000000E+00 0.  1.
         21    1    1    2  503  502  0.31695561645E+02 -0.13428248983E+02  0.14063857088E+03  0.14478996553E+03  0.00000000000E+00 0. -1.
          2    1    1    2  501    0  0.16748430909E+02  0.19600769044E+02 -0.19412551917E+02  0.32273011278E+02  0.00000000000E+00 0. -1.
<scales pt_clust_5="13000.00000" pt_clust_6="13000.00000" pt_clust_7="13000.00000" pt_clust_8="13000.00000" pt_clust_9="34.49092" pt_clust_10="25.78178"></scales>
<clustering>
<clus scale="   25.782">  2 10  1 -1</clus>
<clus scale="   34.491">  1  9  2 -1</clus>
<clus scale="   91.577">  7  8 -1 -1</clus>
<clus scale="   92.585">  5  6 -1 -1</clus>
<clus scale="  254.891">  1  7  2 -1</clus>
<clus scale="   25.782">  2  5  1 -1</clus>
</clustering>
</event>
<event>
10    2  0.3544405E-006  0.9586864E+02  0.7546771E-02  0.1290093E+00
          2   -1    0    0  503    0 -0.00000000000E+00  0.00000000000E+00  0.75040626052E+03  0.75040626052E+03  0.00000000000E+00 0. -1.
         21   -1    0    0  501  502  0.00000000000E+00 -0.00000000000E+00 -0.10784164684E+03  0.10784164684E+03  0.00000000000E+00 0. -1.
         23    2    1    2    0    0 -0.39128418293E+02 -0.41932843265E+02  0.15660835377E+03  0.18959755778E+03  0.90175722802E+02 0.  0.
         23    2    1    2    0    0  0.13209579153E+02 -0.37241328898E+02  0.94265870104E+02  0.13737253377E+03  0.91780985007E+02 0.  0.
        -13    1    3    3    0    0  0.28554837934E+02 -0.33502687127E+01  0.47641123143E+02  0.55644224177E+02  0.00000000000E+00 0.  1.
         13    1    3    3    0    0 -0.67683256227E+02 -0.38582574552E+02  0.10896723063E+03  0.13395333360E+03  0.00000000000E+00 0. -1.
        -13    1    4    4    0    0  0.30156495421E+02 -0.61974666691E+02  0.56291706735E+02  0.88988930630E+02  0.00000000000E+00 0.  1.
         13    1    4    4    0    0 -0.16946916269E+02  0.24733337793E+02  0.37974163368E+02  0.48383603141E+02  0.00000000000E+00 0. -1.
         21    1    1    2  503  502  0.30882337017E+00  0.57793294851E+02  0.45556455075E+03  0.45921587538E+03  0.00000000000E+00 0. -1.
          2    1    1    2  501    0  0.25610015770E+02  0.21380877312E+02 -0.63874160944E+02  0.72061940431E+02  0.00000000000E+00 0. -1.
<scales pt_clust_5="13000.00000" pt_clust_6="13000.00000" pt_clust_7="13000.00000" pt_clust_8="13000.00000" pt_clust_9="58.79091" pt_clust_10="33.36188"></scales>
<clustering>
<clus scale="   33.362">  2 10  1 -1</clus>
<clus scale="   58.791">  1  9  2 -1</clus>
<clus scale="   90.176">  5  6 -1 -1</clus>
<clus scale="   91.781">  7  8 -1 -1</clus>
<clus scale="   94.333">  1  5  2 -1</clus>
<clus scale="   33.362">  2  5  1 -1</clus>
</clustering>
</event>
<event>
10    2  0.3544405E-006  0.1512041E+03  0.7546771E-02  0.1218167E+00
         21   -1    0    0  501  502  0.00000000000E+00  0.00000000000E+00  0.31095012817E+03  0.31095012817E+03  0.00000000000E+00 0.  1.
          1   -1    0    0  503    0 -0.00000000000E+00 -0.00000000000E+00 -0.31310918770E+03  0.31310918770E+03  0.00000000000E+00 0. -1.
         23    2    1    2    0    0 -0.40283357050E+02 -0.21420955801E+02 -0.10369816140E+03  0.14551225338E+03  0.91317583202E+02 0.  0.
         23    2    1    2    0    0 -0.91094329337E+02 -0.17886130844E+02 -0.13046953132E+03  0.18410385330E+03  0.90850644927E+02 0.  0.
        -11    1    4    4    0    0 -0.11056225695E+02  0.31166568881E+02 -0.18156695625E+02  0.37726128061E+02  0.00000000000E+00 0.  1.
         11    1    4    4    0    0 -0.80038103641E+02 -0.49052699724E+02 -0.11231283570E+03  0.14637772524E+03  0.00000000000E+00 0. -1.
        -11    1    3    3    0    0  0.13392998677E+02 -0.37988176644E+02 -0.67750226848E+02  0.78819840245E+02  0.00000000000E+00 0.  1.
         11    1    3    3    0    0 -0.53676355726E+02  0.16567220844E+02 -0.35947934554E+02  0.66692413131E+02  0.00000000000E+00 0. -1.
         21    1    1    2  503  502  0.11370619848E+03  0.37790892686E+01  0.84570385047E+02  0.14175870737E+03  0.00000000000E+00 0.  1.
          1    1    1    2  501    0  0.17671487911E+02  0.35527997376E+02  0.14743824815E+03  0.15268450183E+03  0.00000000000E+00 0. -1.
<scales pt_clust_5="13000.00000" pt_clust_6="13000.00000" pt_clust_7="13000.00000" pt_clust_8="13000.00000" pt_clust_9="120.86702" pt_clust_10="39.68022"></scales>
<clustering>
<clus scale="   39.680">  1 10  2 -1</clus>
<clus scale="   90.851">  5  6 -1 -1</clus>
<clus scale="   91.318">  7  8 -1 -1</clus>
<clus scale="  100.321">  2  7  1 -1</clus>
<clus scale="  120.867">  1  9  2 -1</clus>
<clus scale="   39.680">  1  5  2 -1</clus>
</clustering>
</event>
<event>
10    2  0.3544405E-006  0.1610407E+03  0.7546771E-02  0.1203334E+00
         21   -1    0    0  503  502  0.00000000000E+00  0.00000000000E+00  0.16885749685E+03  0.16885749685E+03  0.00000000000E+00 0.  1.
         -1   -1    0    0    0  501 -0.00000000000E+00 -0.00000000000E+00 -0.65677695659E+03  0.65677695659E+03  0.00000000000E+00 0.  1.
         23    2    1    2    0    0 -0.99640582383E+01 -0.92783995858E+02 -0.21683372222E+03  0.25325129570E+03  0.91712612776E+02 0.  0.
         23    2    1    2    0    0  0.49698479066E+01 -0.39688613847E+02 -0.20377818198E+02  0.10312044583E+03  0.92836875306E+02 0.  0.
        -11    1    3    3    0    0 -0.49315553600E+02 -0.35698052059E+02 -0.89099175537E+02  0.10791217646E+03  0.00000000000E+00 0.  1.
         11    1    3    3    0    0  0.39351495361E+02 -0.57085943799E+02 -0.12773454668E+03  0.14533911924E+03  0.00000000000E+00 0. -1.
        -13    1    4    4    0    0 -0.54413995681E+01  0.29674584764E+02 -0.32905613063E+00  0.30171146616E+02  0.00000000000E+00 0.  1.
         13    1    4    4    0    0  0.10411247475E+02 -0.69363198611E+02 -0.20048762068E+02  0.72949299215E+02  0.00000000000E+00 0. -1.
         21    1    1    2  503  501 -0.69716623216E+00  0.18500550641E+03 -0.32744332460E+03  0.37609394340E+03  0.00000000000E+00 0.  1.
         -1    1    1    2    0  502  0.56913765638E+01 -0.52532896704E+02  0.76735405269E+02  0.93168768507E+02  0.00000000000E+00 0.  1.
<scales pt_clust_5="13000.00000" pt_clust_6="13000.00000" pt_clust_7="13000.00000" pt_clust_8="13000.00000" pt_clust_9="132.37408" pt_clust_10="52.84030"></scales>
<clustering>
<clus scale="   52.840">  1 10  2 -1</clus>
<clus scale="   91.713">  5  6 -1 -1</clus>
<clus scale="   92.837">  7  8 -1 -1</clus>
<clus scale="  113.936">  1  7  2 -1</clus>
<clus scale="  132.374">  1  9  2 -1</clus>
<clus scale="   52.840">  1  5  2 -1</clus>
</clustering>
</event>
<event>
10    2  0.4579791E-006  0.1119722E+03  0.7546771E-02  0.1257078E+00
         21   -1    0    0  501  502  0.00000000000E+00  0.00000000000E+00  0.10003767909E+03  0.10003767909E+03  0.00000000000E+00 0. -1.
          2   -1    0    0  503    0 -0.00000000000E+00 -0.00000000000E+00 -0.49961960861E+03  0.49961960861E+03  0.00000000000E+00 0. -1.
         23    2    1    2    0    0 -0.58501110113E+02  0.10308844907E+01 -0.36268459000E+03  0.37862382520E+03  0.91610297323E+02 0.  0.
         23    2    1    2    0    0  0.66737141279E+01 -0.18747863503E+02  0.32841273523E+01  0.93494361280E+02  0.91292876242E+02 0.  0.
        -11    1    3    3    0    0  0.22090573743E+02  0.14949167882E+02 -0.10050742400E+03  0.10398660177E+03  0.00000000000E+00 0.  1.
         11    1    3    3    0    0 -0.80591683856E+02 -0.13918283392E+02 -0.26217716600E+03  0.27463722343E+03  0.00000000000E+00 0. -1.
        -13    1    4    4    0    0 -0.41173532193E+02 -0.11573545492E+02  0.11803010955E+02  0.44367981429E+02  0.00000000000E+00 0. -1.
         13    1    4    4    0    0  0.47847246321E+02 -0.71743180105E+01 -0.85188836031E+01  0.49126379851E+02  0.00000000000E+00 0.  1.
         21    1    1    2  503  502 -0.26412132408E+02  0.83864652379E+01 -0.40101807232E+02  0.48745138023E+02  0.00000000000E+00 0.  1.
          2    1    1    2  501    0  0.78239528394E+02  0.93305137744E+01 -0.79659643367E-01  0.78793963196E+02  0.00000000000E+00 0. -1.
<scales pt_clust_5="13000.00000" pt_clust_6="13000.00000" pt_clust_7="13000.00000" pt_clust_8="13000.00000" pt_clust_9="27.71161" pt_clust_10="76.61422"></scales>
<clustering>
<clus scale="   27.712">  2  9  1 -1</clus>
<clus scale="   76.614">  1 10  2 -1</clus>
<clus scale="   91.293">  7  8 -1 -1</clus>
<clus scale="   91.610">  5  6 -1 -1</clus>
<clus scale="  111.713">  1  7  2 -1</clus>
<clus scale="   76.614">  1  5  2 -1</clus>
</clustering>
</event>
<event>
10    2  0.3544405E-006  0.1019092E+03  0.7546771E-02  0.1277012E+00
         -1   -1    0    0    0  501 -0.00000000000E+00  0.00000000000E+00  0.65120642334E+03  0.65120642334E+03  0.00000000000E+00 0.  1.
         21   -1    0    0  503  502  0.00000000000E+00 -0.00000000000E+00 -0.56452922669E+02  0.56452922669E+02  0.00000000000E+00 0.  1.
         23    2    1    2    0    0 -0.77225852384E+02 -0.36572261574E+02  0.29173259028E+03  0.31761145906E+03  0.92020498293E+02 0.  0.
         23    2    1    2    0    0  0.16185786854E+02  0.35310935226E+02  0.83083392148E+02  0.12889025670E+03  0.90559408005E+02 0.  0.
        -11    1    4    4    0    0 -0.69165329947E+01 -0.23999128910E+02  0.96829485391E+00  0.24994683675E+02  0.00000000000E+00 0. -1.
         11    1    4    4    0    0  0.23102319849E+02  0.59310064136E+02  0.82115097294E+02  0.10389557302E+03  0.00000000000E+00 0.  1.
        -13    1    3    3    0    0 -0.89965305396E+02 -0.52314783698E+02  0.22558936363E+03  0.24843742422E+03  0.00000000000E+00 0.  1.
         13    1    3    3    0    0  0.12739453012E+02  0.15742522124E+02  0.66143226643E+02  0.69174034844E+02  0.00000000000E+00 0. -1.
         21    1    1    2  503  501  0.49056121096E+02  0.35756062681E+02  0.21607100885E+03  0.22443636047E+03  0.00000000000E+00 0. -1.
         -1    1    1    2    0  502  0.11983944434E+02 -0.34494736334E+02  0.38665093934E+01  0.36721269774E+02  0.00000000000E+00 0.  1.
<scales pt_clust_5="13000.00000" pt_clust_6="13000.00000" pt_clust_7="13000.00000" pt_clust_8="13000.00000" pt_clust_9="59.70469" pt_clust_10="36.51714"></scales>
<clustering>
<clus scale="   36.517">  2 10  1 -1</clus>
<clus scale="   59.705">  1  9  2 -1</clus>
<clus scale="   90.559">  5  6 -1 -1</clus>
<clus scale="   92.020">  7  8 -1 -1</clus>
<clus scale="  100.592">  2  5  1 -1</clus>
<clus scale="   36.517">  2  5  1 -1</clus>
</clustering>
</event>
<event>
10    2  0.3544405E-006  0.9937161E+02  0.7546771E-02  0.1283002E+00
          3   -1    0    0  503    0 -0.00000000000E+00  0.00000000000E+00  0.18684714369E+03  0.18684714369E+03  0.00000000000E+00 0. -1.
         21   -1    0    0  501  502  0.00000000000E+00 -0.00000000000E+00 -0.14974213462E+03  0.14974213462E+03  0.00000000000E+00 0. -1.
         23    2    1    2    0    0 -0.22269340121E+02 -0.19940135059E+01  0.50331124486E+02  0.10888867104E+03  0.93934131125E+02 0.  0.
         23    2    1    2    0    0  0.56654625052E+02 -0.38139477436E+02  0.94872511890E+01  0.11434551616E+03  0.91216900040E+02 0.  0.
        -13    1    3    3    0    0  0.18442256252E+02 -0.37677329707E+02  0.27346187391E+02  0.50075063199E+02  0.00000000000E+00 0. -1.
         13    1    3    3    0    0 -0.40711596373E+02  0.35683316201E+02  0.22984937094E+02  0.58813607844E+02  0.00000000000E+00 0.  1.
        -13    1    4    4    0    0  0.12741731049E+02  0.30160699377E+02  0.34350368347E+01  0.32921406031E+02  0.00000000000E+00 0.  1.
         13    1    4    4    0    0  0.43912894003E+02 -0.68300176813E+02  0.60522143543E+01  0.81424110133E+02  0.00000000000E+00 0. -1.
         21    1    1    2  503  502  0.20625710047E+02 -0.19822714441E+01  0.22529529094E+02  0.30609295912E+02  0.00000000000E+00 0.  1.
          3    1    1    2  501    0 -0.55010994978E+02  0.42115762386E+02 -0.45242895697E+02  0.82745795185E+02  0.00000000000E+00 0. -1.
<scales pt_clust_5="13000.00000" pt_clust_6="13000.00000" pt_clust_7="13000.00000" pt_clust_8="13000.00000" pt_clust_9="20.72075" pt_clust_10="67.23688"></scales>
<clustering>
<clus scale="   20.721">  1  9  2 -1</clus>
<clus scale="   67.237">  2 10  1 -1</clus>
<clus scale="   91.217">  7  8 -1 -1</clus>
<clus scale="   93.934">  5  6 -1 -1</clus>
<clus scale="   96.807">  2  7  1 -1</clus>
<clus scale="   67.237">  2  5  1 -1</clus>
</clustering>
</event>
<event>
10    2  0.3544405E-006  0.1167667E+03  0.7546771E-02  0.1251354E+00
         21   -1    0    0  501  502  0.00000000000E+00  0.00000000000E+00  0.80371351742E+02  0.80371351742E+02  0.00000000000E+00 0.  1.
          2   -1    0    0  503    0 -0.00000000000E+00 -0.00000000000E+00 -0.69820825572E+03  0.69820825572E+03  0.00000000000E+00 0. -1.
         23    2    1    2    0    0  0.42166745205E+02  0.67836153448E+02 -0.49390344871E+03  0.51016429248E+03  0.99735703496E+02 0.  0.
         23    2    1    2    0    0 -0.38941682219E+02 -0.58898642187E+02  0.17341387771E+02  0.11737805539E+03  0.92148681443E+02 0.  0.
        -13    1    3    3    0    0  0.74882300387E+02  0.48330563019E+02 -0.36708839604E+03  0.37775268727E+03  0.00000000000E+00 0. -1.
         13    1    3    3    0    0 -0.32715555181E+02  0.19505590429E+02 -0.12681505267E+03  0.13241160521E+03  0.00000000000E+00 0.  1.
        -13    1    4    4    0    0 -0.52693179761E+02 -0.54454290457E+01 -0.12788993437E+02  0.54495708491E+02  0.00000000000E+00 0.  1.
         13    1    4    4    0    0  0.13751497542E+02 -0.53453213142E+02  0.30130381208E+02  0.62882346899E+02  0.00000000000E+00 0. -1.
         21    1    1    2  503  502 -0.25852831011E+02 -0.14952279514E+02 -0.84587273096E+02  0.89704773026E+02  0.00000000000E+00 0.  1.
          2    1    1    2  501    0  0.22627768025E+02  0.60147682534E+01 -0.56687569939E+02  0.61332486567E+02  0.00000000000E+00 0. -1.
<scales pt_clust_5="13000.00000" pt_clust_6="13000.00000" pt_clust_7="13000.00000" pt_clust_8="13000.00000" pt_clust_9="29.12517" pt_clust_10="23.41354"></scales>
<clustering>
<clus scale="   23.414">  1 10  2 -1</clus>
<clus scale="   29.125">  2  9  1 -1</clus>
<clus scale="   92.149">  7  8 -1 -1</clus>
<clus scale="   99.736">  5  6 -1 -1</clus>
<clus scale="  110.357">  1  7  2 -1</clus>
<clus scale="   23.414">  1  5  2 -1</clus>
</clustering>
</event>
<event>
10    2  0.3544405E-006  0.9469322E+02  0.7546771E-02  0.1293680E+00
          2   -1    0    0  503    0 -0.00000000000E+00  0.00000000000E+00  0.21293088158E+03  0.21293088158E+03  0.00000000000E+00 0. -1.
         21   -1    0    0  501  502  0.00000000000E+00 -0.00000000000E+00 -0.10075686752E+03  0.10075686752E+03  0.00000000000E+00 0.  1.
         23    2    1    2    0    0 -0.24233637291E+02  0.28013858040E+02  0.11341733006E+03  0.14837537686E+03  0.88202699979E+02 0.  0.
         23    2    1    2    0    0  0.25868750686E+02 -0.25897439501E+02 -0.28828862403E+02  0.10264800345E+03  0.91463870849E+02 0.  0.
        -11    1    4    4    0    0  0.36173263270E+02 -0.48045681741E+02  0.56358936317E+01  0.60404104219E+02  0.00000000000E+00 0.  1.
         11    1    4    4    0    0 -0.10304512584E+02  0.22148242239E+02 -0.34464756035E+02  0.42243899233E+02  0.00000000000E+00 0. -1.
        -13    1    3    3    0    0 -0.29144253672E+02 -0.26042387224E+02  0.31948306409E+02  0.50480567913E+02  0.00000000000E+00 0.  1.
         13    1    3    3    0    0  0.49106163805E+01  0.54056245264E+02  0.81469023649E+02  0.97894808951E+02  0.00000000000E+00 0. -1.
         21    1    1    2  503  502  0.15617250854E+02 -0.17245362384E+02  0.31731066964E+02  0.39346685485E+02  0.00000000000E+00 0. -1.
          2    1    1    2  501    0 -0.17252364249E+02  0.15128943845E+02 -0.41455205562E+01  0.23317683305E+02  0.00000000000E+00 0. -1.
<scales pt_clust_5="13000.00000" pt_clust_6="13000.00000" pt_clust_7="13000.00000" pt_clust_8="13000.00000" pt_clust_9="22.26879" pt_clust_10="22.94622"></scales>
<clustering>
<clus scale="   22.946">  2 10  1 -1</clus>
<clus scale="   22.269">  1  9  2 -1</clus>
<clus scale="   88.203">  7  8 -1 -1</clus>
<clus scale="   91.464">  5  6 -1 -1</clus>
<clus scale="   91.547">  1  7  2 -1</clus>
<clus scale="   22.946">  2  5  1 -1</clus>
</clustering>
</event>
<event>
10    2  0.3544405E-006  0.1179307E+03  0.7546771E-02  0.1247165E+00
          2   -1    0    0  503    0 -0.00000000000E+00  0.00000000000E+00  0.64634708540E+03  0.64634708540E+03  0.00000000000E+00 0. -1.
         21   -1    0    0  501  502  0.00000000000E+00 -0.00000000000E+00 -0.15729967310E+03  0.15729967310E+03  0.00000000000E+00 0.  1.
         23    2    1    2    0    0  0.16647817101E+02 -0.15387917705E+03  0.20949793568E+03  0.27542973286E+03  0.89533243820E+02 0.  0.
         23    2    1    2    0    0 -0.35678100119E+02  0.34710697627E+02 -0.29836304923E+02  0.10827281262E+03  0.91405894247E+02 0.  0.
        -11    1    3    3    0    0  0.20420564872E+02 -0.48995313631E+02  0.16234079296E+02  0.55507527039E+02  0.00000000000E+00 0.  1.
         11    1    3    3    0    0 -0.37727477705E+01 -0.10488386342E+03  0.19326385638E+03  0.21992220582E+03  0.00000000000E+00 0. -1.
        -13    1    4    4    0    0 -0.14428767816E+02  0.63217221226E+02 -0.52707200798E+01  0.65056797419E+02  0.00000000000E+00 0.  1.
         13    1    4    4    0    0 -0.21249332303E+02 -0.28506523600E+02 -0.24565584843E+02  0.43216015199E+02  0.00000000000E+00 0. -1.
         21    1    1    2  503  502  0.22866140697E+02  0.96058514727E+02  0.35510220673E+03  0.36857519703E+03  0.00000000000E+00 0. -1.
          2    1    1    2  501    0 -0.38358576796E+01  0.23109964692E+02 -0.45716425185E+02  0.51369015991E+02  0.00000000000E+00 0. -1.
<scales pt_clust_5="13000.00000" pt_clust_6="13000.00000" pt_clust_7="13000.00000" pt_clust_8="13000.00000" pt_clust_9="100.08169" pt_clust_10="23.42615"></scales>
<clustering>
<clus scale="   23.426">  2 10  1 -1</clus>
<clus scale="   89.533">  5  6 -1 -1</clus>
<clus scale="   91.406">  7  8 -1 -1</clus>
<clus scale="  100.082">  1  9  2 -1</clus>
<clus scale="  116.485">  1  5  2 -1</clus>
<clus scale="   23.426">  2  5  1 -1</clus>
</clustering>
</event>
<event>
10    2  0.3544405E-006  0.1164999E+03  0.7546771E-02  0.1249299E+00
         21   -1    0    0  503  502  0.00000000000E+00  0.00000000000E+00  0.24434376182E+03  0.24434376182E+03  0.00000000000E+00 0.  1.
         -1   -1    0    0    0  501 -0.00000000000E+00 -0.00000000000E+00 -0.30144775580E+03  0.30144775580E+03  0.00000000000E+00 0.  1.
         23    2    1    2    0    0  0.23259031250E+02  0.81842738444E+02 -0.19933740312E+03  0.23533923968E+03  0.91705730908E+02 0.  0.
         23    2    1    2    0    0  0.14970318604E+02 -0.41829060726E+02  0.17341721824E+03  0.20071938263E+03  0.90779723618E+02 0.  0.
        -11    1    3    3    0    0  0.49246910011E+02  0.84967958921E+02 -0.14647228969E+03  0.17634892638E+03  0.00000000000E+00 0. -1.
         11    1    3    3    0    0 -0.25987878760E+02 -0.31252204769E+01 -0.52865113432E+02  0.58990313303E+02  0.00000000000E+00 0.  1.
        -13    1    4    4    0    0  0.41500393920E+02  0.10075644584E+02  0.69653198506E+02  0.81702933677E+02  0.00000000000E+00 0. -1.
         13    1    4    4    0    0 -0.26530075316E+02 -0.51904705310E+02  0.10376401973E+03  0.11901644895E+03  0.00000000000E+00 0.  1.
         21    1    1    2  503  501 -0.50016648750E+02 -0.10053954141E+02 -0.50829966516E+02  0.72016891366E+02  0.00000000000E+00 0.  1.
         -1    1    1    2    0  502  0.11787298896E+02 -0.29959723577E+02  0.19646157413E+02  0.37716003940E+02  0.00000000000E+00 0.  1.
<scales pt_clust_5="13000.00000" pt_clust_6="13000.00000" pt_clust_7="13000.00000" pt_clust_8="13000.00000" pt_clust_9="50.76338" pt_clust_10="32.19512"></scales>
<clustering>
<clus scale="   32.195">  1 10  2 -1</clus>
<clus scale="   50.763">  2  9  1 -1</clus>
<clus scale="   90.780">  7  8 -1 -1</clus>
<clus scale="   91.706">  5  6 -1 -1</clus>
<clus scale="  115.772">  1  7  2 -1</clus>
<clus scale="   32.195">  1  5  2 -1</clus>
</clustering>
</event>
<event>
10    2  0.3544405E-006  0.9933592E+02  0.7546771E-02  0.1282303E+00
         21   -1    0    0  501  502  0.00000000000E+00  0.00000000000E+00  0.22414411743E+03  0.22414411743E+03  0.00000000000E+00 0.  1.
          2   -1    0    0  503    0 -0.00000000000E+00 -0.00000000000E+00 -0.13124373333E+03  0.13124373333E+03  0.00000000000E+00 0. -1.
         23    2    1    2    0    0  0.28499350736E+02 -0.16056678741E+02 -0.57170256276E+02  0.11349387894E+03  0.92425063856E+02 0.  0.
         23    2    1    2    0    0 -0.16063746845E+02 -0.19234900870E+02  0.13513423086E+03  0.16494867372E+03  0.91207342020E+02 0.  0.
        -11    1    3    3    0    0  0.23208571559E+02  0.36361571555E+02 -0.13910447507E+02  0.45324410968E+02  0.00000000000E+00 0.  1.
         11    1    3    3    0    0  0.52907791773E+01 -0.52418250296E+02 -0.43259808768E+02  0.68169467968E+02  0.00000000000E+00 0. -1.
        -11    1    4    4    0    0 -0.37092269116E+02 -0.41375847165E+02  0.50922660179E+02  0.75371841404E+02  0.00000000000E+00 0. -1.
         11    1    4    4    0    0  0.21028522271E+02  0.22140946295E+02  0.84211570678E+02  0.89576832316E+02  0.00000000000E+00 0.  1.
         21    1    1    2  503  502  0.16739431002E+02  0.20877582027E+02 -0.16713865744E+02  0.31550519642E+02  0.00000000000E+00 0.  1.
          2    1    1    2  501    0 -0.29175034892E+02  0.14413997584E+02  0.31650275259E+02  0.45394778459E+02  0.00000000000E+00 0. -1.
<scales pt_clust_5="13000.00000" pt_clust_6="13000.00000" pt_clust_7="13000.00000" pt_clust_8="13000.00000" pt_clust_9="26.75971" pt_clust_10="32.21554"></scales>
<clustering>
<clus scale="   26.760">  2  9  1 -1</clus>
<clus scale="   32.216">  1 10  2 -1</clus>
<clus scale="   91.207">  7  8 -1 -1</clus>
<clus scale="   92.425">  5  6 -1 -1</clus>
<clus scale="   98.204">  1  7  2 -1</clus>
<clus scale="   32.216">  1  5  2 -1</clus>
</clustering>
</event>
<event>
10    2  0.6664728E-006  0.1184765E+03  0.7546771E-02  0.1249022E+00
         21   -1    0    0  501  502  0.00000000000E+00  0.00000000000E+00  0.32755586961E+03  0.32755586961E+03  0.00000000000E+00 0.  1.
          1   -1    0    0  503    0 -0.00000000000E+00 -0.00000000000E+00 -0.45895411431E+03  0.45895411431E+03  0.00000000000E+00 0. -1.
         23    2    1    2    0    0  0.53739707121E+01  0.45036026140E+02 -0.36843822435E+03  0.38430712320E+03  0.99439009313E+02 0.  0.
         23    2    1    2    0    0  0.14154267636E+02 -0.68910912666E+02  0.11034337173E+03  0.15883118235E+03  0.90014596727E+02 0.  0.
        -11    1    3    3    0    0 -0.37895425284E+02  0.23657668501E+02 -0.78009673749E+02  0.89895816003E+02  0.00000000000E+00 0. -1.
         11    1    3    3    0    0  0.43269395996E+02  0.21378357639E+02 -0.29042855060E+03  0.29441130720E+03  0.00000000000E+00 0.  1.
        -11    1    4    4    0    0  0.49733445447E+02 -0.23987593594E+02  0.40444125532E+02  0.68443754518E+02  0.00000000000E+00 0. -1.
         11    1    4    4    0    0 -0.35579177812E+02 -0.44923319072E+02  0.69899246200E+02  0.90387427829E+02  0.00000000000E+00 0.  1.
         21    1    1    2  503  502  0.60565953654E+01  0.19628697582E+02 -0.55582440394E+02  0.59256862863E+02  0.00000000000E+00 0.  1.
          1    1    1    2  501    0 -0.25584833713E+02  0.42461889432E+01  0.18227904831E+03  0.18411481551E+03  0.00000000000E+00 0. -1.
<scales pt_clust_5="13000.00000" pt_clust_6="13000.00000" pt_clust_7="13000.00000" pt_clust_8="13000.00000" pt_clust_9="20.54186" pt_clust_10="25.92853"></scales>
<clustering>
<clus scale="   20.542">  2  9  1 -1</clus>
<clus scale="   25.929">  1 10  2 -1</clus>
<clus scale="   90.015">  7  8 -1 -1</clus>
<clus scale="   99.439">  5  6 -1 -1</clus>
<clus scale="  110.685">  1  7  2 -1</clus>
<clus scale="   25.929">  1  5  2 -1</clus>
</clustering>
</event>
<event>
10    2  0.3544405E-006  0.9868014E+02  0.7546771E-02  0.1283329E+00
         21   -1    0    0  501  502  0.00000000000E+00  0.00000000000E+00  0.37639713349E+02  0.37639713349E+02  0.00000000000E+00 0.  1.
          1   -1    0    0  503    0 -0.00000000000E+00 -0.00000000000E+00 -0.60785907428E+03  0.60785907428E+03  0.00000000000E+00 0. -1.
         23    2    1    2    0    0  0.50123866838E+01 -0.32070540729E+02 -0.23056652886E+03  0.25009189415E+03  0.91276435543E+02 0.  0.
         23    2    1    2    0    0  0.97059116584E+01  0.51244623434E+02 -0.19389047525E+03  0.22075026920E+03  0.91743930615E+02 0.  0.
        -11    1    3    3    0    0  0.29717756402E+02  0.16650095663E+02 -0.43720820912E+02  0.55424551531E+02  0.00000000000E+00 0. -1.
         11    1    3    3    0    0 -0.24705369719E+02 -0.48720636391E+02 -0.18684570795E+03  0.19466734262E+03  0.00000000000E+00 0.  1.
        -13    1    4    4    0    0 -0.40323656193E+02  0.22059815503E+02 -0.66819820931E+02  0.81101918461E+02  0.00000000000E+00 0. -1.
         13    1    4    4    0    0  0.50029567852E+02  0.29184807931E+02 -0.12707065432E+03  0.13964835074E+03  0.00000000000E+00 0.  1.
         21    1    1    2  503  502 -0.20454286927E+02  0.30373386424E+02 -0.10174167311E+03  0.10813088598E+03  0.00000000000E+00 0. -1.
          1    1    1    2  501    0  0.57359885843E+01 -0.49547469129E+02 -0.44020683706E+02  0.66525738298E+02  0.00000000000E+00 0. -1.
<scales pt_clust_5="13000.00000" pt_clust_6="13000.00000" pt_clust_7="13000.00000" pt_clust_8="13000.00000" pt_clust_9="36.61858" pt_clust_10="46.34077"></scales>
<clustering>
<clus scale="   36.619">  2  9  1 -1</clus>
<clus scale="   46.341">  1 10  2 -1</clus>
<clus scale="   91.276">  5  6 -1 -1</clus>
<clus scale="   91.744">  7  8 -1 -1</clus>
<clus scale="   98.246">  2  5  1 -1</clus>
<clus scale="   46.341">  1  5  2 -1</clus>
</clustering>
</event>
<event>
10    2  0.3544405E-006  0.1381975E+03  0.7546771E-02  0.1235612E+00
         21   -1    0    0  501  502  0.00000000000E+00  0.00000000000E+00  0.74115967308E+03  0.74115967308E+03  0.00000000000E+00 0. -1.
          2   -1    0    0  503    0 -0.00000000000E+00 -0.00000000000E+00 -0.16518171024E+03  0.16518171024E+03  0.00000000000E+00 0. -1.
         23    2    1    2    0    0  0.16286519834E+02  0.30488327425E+02 -0.41049356788E+02  0.10483839175E+03  0.90062477508E+02 0.  0.
         23    2    1    2    0    0 -0.71078083488E+02  0.12004525011E+03  0.60388336836E+02  0.17774309951E+03  0.92102671893E+02 0.  0.
        -13    1    3    3    0    0  0.16118959990E+02  0.60931100729E+02 -0.15038377520E+02  0.64796394234E+02  0.00000000000E+00 0. -1.
         13    1    3    3    0    0  0.16755984409E+00 -0.30442773304E+02 -0.26010979268E+02  0.40041997518E+02  0.00000000000E+00 0.  1.
        -13    1    4    4    0    0 -0.70034140680E+02  0.30152090022E+02  0.17965457685E+02  0.78337009538E+02  0.00000000000E+00 0.  1.
         13    1    4    4    0    0 -0.10439428073E+01  0.89893160089E+02  0.42422879151E+02  0.99406089968E+02  0.00000000000E+00 0. -1.
         21    1    1    2  503  502 -0.22297027080E+02 -0.85890458962E+02  0.39859117283E+02  0.97278351075E+02  0.00000000000E+00 0.  1.
          2    1    1    2  501    0  0.77088590734E+02 -0.64643118574E+02  0.51677986551E+03  0.52648154099E+03  0.00000000000E+00 0. -1.
<scales pt_clust_5="13000.00000" pt_clust_6="13000.00000" pt_clust_7="13000.00000" pt_clust_8="13000.00000" pt_clust_9="88.73741" pt_clust_10="103.03231"></scales>
<clustering>
<clus scale="   88.737">  2  9  1 -1</clus>
<clus scale="   90.062">  5  6 -1 -1</clus>
<clus scale="   91.477">  2  5  1 -1</clus>
<clus scale="   92.103">  7  8 -1 -1</clus>
<clus scale="  103.032">  1 10  2 -1</clus>
<clus scale="  103.032">  1  5  2 -1</clus>
</clustering>
</event>
<event>
10    2  0.3544405E-006  0.1114887E+03  0.7546771E-02  0.1259358E+00
         21   -1    0    0  503  502  0.00000000000E+00  0.00000000000E+00  0.20766288711E+03  0.20766288711E+03  0.00000000000E+00 0.  1.
         -3   -1    0    0    0  501 -0.00000000000E+00 -0.00000000000E+00 -0.14081322691E+03  0.14081322691E+03  0.00000000000E+00 0.  1.
         23    2    1    2    0    0 -0.67904129248E+02 -0.13488659884E+02  0.32989604647E+01  0.11394619528E+03  0.90443007277E+02 0.  0.
         23    2    1    2    0    0  0.50232485209E+02 -0.18746015719E+02 -0.11341975206E+02  0.10911550662E+03  0.94354849938E+02 0.  0.
        -11    1    4    4    0    0  0.19510761794E+02 -0.26653436402E+02  0.38066457798E+02  0.50399709395E+02  0.00000000000E+00 0.  1.
         11    1    4    4    0    0  0.30721723415E+02  0.79074206827E+01 -0.49408433004E+02  0.58715797221E+02  0.00000000000E+00 0. -1.
        -13    1    3    3    0    0 -0.14790688336E+02  0.36731302762E+02  0.90682421537E+01  0.40622482443E+02  0.00000000000E+00 0. -1.
         13    1    3    3    0    0 -0.53113440911E+02 -0.50219962646E+02 -0.57692816891E+01  0.73323712842E+02  0.00000000000E+00 0.  1.
         21    1    1    2  503  501  0.33291064177E+02  0.29602955706E+01 -0.94890975450E+01  0.34743363052E+02  0.00000000000E+00 0.  1.
         -3    1    1    2    0  502 -0.15619420138E+02  0.29274380033E+02  0.84381772481E+02  0.90671049067E+02  0.00000000000E+00 0.  1.
<scales pt_clust_5="13000.00000" pt_clust_6="13000.00000" pt_clust_7="13000.00000" pt_clust_8="13000.00000" pt_clust_9="32.22003" pt_clust_10="33.18065"></scales>
<clustering>
<clus scale="   33.181">  1 10  2 -1</clus>
<clus scale="   32.220">  2  9  1 -1</clus>
<clus scale="   90.443">  7  8 -1 -1</clus>
<clus scale="   94.355">  5  6 -1 -1</clus>
<clus scale="  108.198">  2  7  1 -1</clus>
<clus scale="   33.181">  1  5  2 -1</clus>
</clustering>
</event>
<event>
10    2  0.3544405E-006  0.1596149E+03  0.7546771E-02  0.1208383E+00
         -4   -1    0    0    0  501 -0.00000000000E+00  0.00000000000E+00  0.76688956598E+02  0.76688956598E+02  0.00000000000E+00 0.  1.
         21   -1    0    0  503  502  0.00000000000E+00 -0.00000000000E+00 -0.11956463234E+04  0.11956463234E+04  0.00000000000E+00 0. -1.
         23    2    1    2    0    0 -0.33891345257E+02 -0.33450327298E+02 -0.15704576459E+02  0.11188067142E+03  0.10001551497E+03 0.  0.
         23    2    1    2    0    0 -0.10604542657E+03 -0.11432965563E+02 -0.32986955161E+03  0.35973197788E+03  0.96004320897E+02 0.  0.
        -11    1    3    3    0    0 -0.59067354662E+02 -0.49975655372E+02  0.11276071547E+01  0.77380811669E+02  0.00000000000E+00 0.  1.
         11    1    3    3    0    0  0.25176009405E+02  0.16525328073E+02 -0.16832183614E+02  0.34499859749E+02  0.00000000000E+00 0. -1.
        -11    1    4    4    0    0 -0.89157797287E+01 -0.23330417078E+02 -0.13122151367E+02  0.28213300865E+02  0.00000000000E+00 0.  1.
         11    1    4    4    0    0 -0.97129646844E+02  0.11897451515E+02 -0.31674740025E+03  0.33151867702E+03  0.00000000000E+00 0. -1.
         21    1    1    2  503  501  0.29213705830E+01  0.46918934180E+02 -0.71374193625E+02  0.85464590950E+02  0.00000000000E+00 0.  1.
         -4    1    1    2    0  502  0.13701540125E+03 -0.20356413188E+01 -0.70200904510E+03  0.71525803974E+03  0.00000000000E+00 0.  1.
<scales pt_clust_5="13000.00000" pt_clust_6="13000.00000" pt_clust_7="13000.00000" pt_clust_8="13000.00000" pt_clust_9="47.00979" pt_clust_10="127.51507"></scales>
<clustering>
<clus scale="   47.010">  1  9  2 -1</clus>
<clus scale="   96.004">  7  8 -1 -1</clus>
<clus scale="  100.016">  5  6 -1 -1</clus>
<clus scale="  104.977">  1  5  2 -1</clus>
<clus scale="  127.515">  2 10  1 -1</clus>
<clus scale="  127.515">  2  5  1 -1</clus>
</clustering>
</event>
<event>
10    2  0.3544405E-006  0.1062165E+03  0.7546771E-02  0.1274699E+00
         21   -1    0    0  501  502  0.00000000000E+00  0.00000000000E+00  0.14931596846E+03  0.14931596846E+03  0.00000000000E+00 0. -1.
          2   -1    0    0  503    0 -0.00000000000E+00 -0.00000000000E+00 -0.73811535555E+03  0.73811535555E+03  0.00000000000E+00 0. -1.
         23    2    1    2    0    0  0.68048936157E+02  0.64389268597E+02 -0.37167162193E+03  0.39180739559E+03  0.81219487013E+02 0.  0.
         23    2    1    2    0    0 -0.17960924569E+02  0.40004212732E+02 -0.13157372885E+03  0.17225130323E+03  0.10215641680E+03 0.  0.
        -11    1    3    3    0    0  0.57273513477E+02  0.15739451888E+02 -0.29090267758E+03  0.29690462023E+03  0.00000000000E+00 0. -1.
         11    1    3    3    0    0  0.10775422680E+02  0.48649816708E+02 -0.80768944344E+02  0.94902775355E+02  0.00000000000E+00 0.  1.
        -13    1    4    4    0    0 -0.57006431501E+02  0.11689045753E+02 -0.46633174362E+02  0.74572246675E+02  0.00000000000E+00 0.  1.
         13    1    4    4    0    0  0.39045506932E+02  0.28315166978E+02 -0.84940554485E+02  0.97679056552E+02  0.00000000000E+00 0. -1.
         21    1    1    2  503  502 -0.60663457701E+02 -0.62450512806E+02 -0.19072310786E+03  0.20965549246E+03  0.00000000000E+00 0.  1.
          2    1    1    2  501    0  0.10575446113E+02 -0.41942968522E+02  0.10516907154E+03  0.11371713274E+03  0.00000000000E+00 0. -1.
<scales pt_clust_5="13000.00000" pt_clust_6="13000.00000" pt_clust_7="13000.00000" pt_clust_8="13000.00000" pt_clust_9="92.86918" pt_clust_10="43.25567"></scales>
<clustering>
<clus scale="   43.256">  1 10  2 -1</clus>
<clus scale="   81.219">  5  6 -1 -1</clus>
<clus scale="   92.869">  2  9  1 -1</clus>
<clus scale="   92.869">  2  5  1 -1</clus>
<clus scale="  102.156">  7  8 -1 -1</clus>
<clus scale="   43.256">  1  5  2 -1</clus>
</clustering>
</event>
<event>
10    2  0.3544405E-006  0.1024215E+03  0.7546771E-02  0.1277391E+00
          1   -1    0    0  503    0 -0.00000000000E+00  0.00000000000E+00  0.87580189055E+02  0.87580189055E+02  0.00000000000E+00 0. -1.
         21   -1    0    0  501  502  0.00000000000E+00 -0.00000000000E+00 -0.69912934052E+03  0.69912934052E+03  0.00000000000E+00 0.  1.
         23    2    1    2    0    0  0.10730986844E+02 -0.50197347431E+02  0.37480743713E+02  0.11054162321E+03  0.90441785396E+02 0.  0.
         23    2    1    2    0    0  0.65627958103E+01  0.27479837298E+02 -0.44513026179E+03  0.45420922726E+03  0.85830416612E+02 0.  0.
        -11    1    3    3    0    0 -0.18345135704E+02 -0.67401619571E+02  0.29498853548E+02  0.75826807169E+02  0.00000000000E+00 0. -1.
         11    1    3    3    0    0  0.29076122549E+02  0.17204272141E+02  0.79818901656E+01  0.34714816044E+02  0.00000000000E+00 0.  1.
        -13    1    4    4    0    0  0.21464346461E+02 -0.25145785985E+02 -0.11825156678E+03  0.12278624421E+03  0.00000000000E+00 0. -1.
         13    1    4    4    0    0 -0.14901550650E+02  0.52625623284E+02 -0.32687869501E+03  0.33142298304E+03  0.00000000000E+00 0.  1.
         21    1    1    2  503  502  0.18482831691E+02  0.77787018151E+01 -0.69407598471E+01  0.21220212452E+02  0.00000000000E+00 0. -1.
          1    1    1    2  501    0 -0.35776614346E+02  0.14938808317E+02 -0.19695887354E+03  0.20073846665E+03  0.00000000000E+00 0. -1.
<scales pt_clust_5="13000.00000" pt_clust_6="13000.00000" pt_clust_7="13000.00000" pt_clust_8="13000.00000" pt_clust_9="20.05301" pt_clust_10="38.44147"></scales>
<clustering>
<clus scale="   20.053">  1  9  2 -1</clus>
<clus scale="   38.441">  2 10  1 -1</clus>
<clus scale="   85.830">  7  8 -1 -1</clus>
<clus scale="   90.442">  5  6 -1 -1</clus>
<clus scale="   98.373">  2  7  1 -1</clus>
<clus scale="   38.441">  2  5  1 -1</clus>
</clustering>
</event>
<event>
10    2  0.3544405E-006  0.9168803E+02  0.7546771E-02  0.1299163E+00
         21   -1    0    0  501  502  0.00000000000E+00  0.00000000000E+00  0.15984886362E+03  0.15984886362E+03  0.00000000000E+00 0.  1.
          2   -1    0    0  503    0 -0.00000000000E+00 -0.00000000000E+00 -0.20352361075E+03  0.20352361075E+03  0.00000000000E+00 0. -1.
         23    2    1    2    0    0 -0.15674035832E+01 -0.22571154635E+02 -0.72764499065E+02  0.11761477096E+03  0.89591563483E+02 0.  0.
         23    2    1    2    0    0  0.39304167100E+02  0.65344237532E+00  0.47354182616E+02  0.10918665426E+03  0.90189036583E+02 0.  0.
        -11    1    3    3    0    0 -0.13967180830E+02 -0.54605393214E+02 -0.34015605607E+02  0.65832306151E+02  0.00000000000E+00 0.  1.
         11    1    3    3    0    0  0.12399777247E+02  0.32034238579E+02 -0.38748893457E+02  0.51782464805E+02  0.00000000000E+00 0. -1.
        -13    1    4    4    0    0  0.62495303477E+02  0.11753826418E+02  0.10808615555E+02  0.64503035296E+02  0.00000000000E+00 0.  1.
         13    1    4    4    0    0 -0.23191136377E+02 -0.11100384042E+02  0.36545567061E+02  0.44683618969E+02  0.00000000000E+00 0. -1.
         21    1    1    2  503  502 -0.11083504945E+02  0.29018323691E+02 -0.70755642967E+02  0.77273981413E+02  0.00000000000E+00 0. -1.
          2    1    1    2  501    0 -0.26653258572E+02 -0.71006114313E+01  0.52491212280E+02  0.59297067734E+02  0.00000000000E+00 0. -1.
<scales pt_clust_5="13000.00000" pt_clust_6="13000.00000" pt_clust_7="13000.00000" pt_clust_8="13000.00000" pt_clust_9="31.16502" pt_clust_10="27.58287"></scales>
<clustering>
<clus scale="   27.583">  1 10  2 -1</clus>
<clus scale="   31.165">  2  9  1 -1</clus>
<clus scale="   89.592">  5  6 -1 -1</clus>
<clus scale="   90.189">  7  8 -1 -1</clus>
<clus scale="   91.100">  2  5  1 -1</clus>
<clus scale="   27.583">  1  5  2 -1</clus>
</clustering>
</event>
<event>
10    2  0.3544405E-006  0.1560271E+03  0.7546771E-02  0.1193589E+00
         21   -1    0    0  501  502  0.00000000000E+00  0.00000000000E+00  0.19256313357E+03  0.19256313357E+03  0.00000000000E+00 0. -1.
          2   -1    0    0  503    0 -0.00000000000E+00 -0.00000000000E+00 -0.88698163821E+03  0.88698163821E+03  0.00000000000E+00 0. -1.
         23    2    1    2    0    0  0.10306694960E+03  0.38852608829E+02 -0.49517393596E+03  0.51567141961E+03  0.92668575223E+02 0.  0.
         23    2    1    2    0    0 -0.13393843790E+03 -0.62883971153E+02 -0.32627798701E+03  0.36957542407E+03  0.90745635120E+02 0.  0.
        -11    1    4    4    0    0 -0.75602659294E+02  0.80081464750E+01 -0.10185425831E+03  0.12709910479E+03  0.00000000000E+00 0.  1.
         11    1    4    4    0    0 -0.58335778602E+02 -0.70892117628E+02 -0.22442372870E+03  0.24247631928E+03  0.00000000000E+00 0. -1.
        -11    1    3    3    0    0  0.26853070446E+01 -0.20544062679E+02 -0.32662769112E+02  0.38679786341E+02  0.00000000000E+00 0. -1.
         11    1    3    3    0    0  0.10038164255E+03  0.59396671507E+02 -0.46251116685E+03  0.47699163327E+03  0.00000000000E+00 0.  1.
         21    1    1    2  503  502 -0.74354605143E+01  0.27075784896E+02 -0.24931591564E+02  0.37549546718E+02  0.00000000000E+00 0. -1.
          2    1    1    2  501    0  0.38306948813E+02 -0.30444225716E+01  0.15196500989E+03  0.15674838138E+03  0.00000000000E+00 0. -1.
<scales pt_clust_5="13000.00000" pt_clust_6="13000.00000" pt_clust_7="13000.00000" pt_clust_8="13000.00000" pt_clust_9="28.07818" pt_clust_10="38.40110"></scales>
<clustering>
<clus scale="   28.078">  2  9  1 -1</clus>
<clus scale="   38.401">  1 10  2 -1</clus>
<clus scale="   90.746">  5  6 -1 -1</clus>
<clus scale="   92.669">  7  8 -1 -1</clus>
<clus scale="  154.893">  1  5  2 -1</clus>
<clus scale="   38.401">  1  5  2 -1</clus>
</clustering>
</event>
<event>
10    2  0.3544405E-006  0.1067973E+03  0.7546771E-02  0.1267118E+00
         21   -1    0    0  503  502  0.00000000000E+00  0.00000000000E+00  0.21035051566E+03  0.21035051566E+03  0.00000000000E+00 0.  1.
         -1   -1    0    0    0  501 -0.00000000000E+00 -0.00000000000E+00 -0.44252369218E+03  0.44252369218E+03  0.00000000000E+00 0.  1.
         23    2    1    2    0    0 -0.37327683268E+01  0.53005105496E+02 -0.16407375697E+03  0.19529214246E+03  0.91626133905E+02 0.  0.
         23    2    1    2    0    0 -0.40880181623E+02 -0.40558340005E+02 -0.76042605878E+02  0.13309224351E+03  0.92816481195E+02 0.  0.
        -11    1    4    4    0    0 -0.26724372289E+02  0.27056786475E+02 -0.39927305333E+02  0.55140289079E+02  0.00000000000E+00 0.  1.
         11    1    4    4    0    0 -0.14155809334E+02 -0.67615126480E+02 -0.36115300545E+02  0.77951954435E+02  0.00000000000E+00 0. -1.
        -11    1    3    3    0    0 -0.33499590003E+02 -0.10687208029E+02 -0.46442637427E+02  0.58252532280E+02  0.00000000000E+00 0. -1.
         11    1    3    3    0    0  0.29766821676E+02  0.63692313525E+02 -0.11763111954E+03  0.13703961019E+03  0.00000000000E+00 0.  1.
         21    1    1    2  503  501  0.22642234078E+02  0.43081161345E+01 -0.15627392266E+03  0.15796445654E+03  0.00000000000E+00 0.  1.
         -1    1    1    2    0  502  0.21970715872E+02 -0.16754881625E+02  0.16421710898E+03  0.16652536532E+03  0.00000000000E+00 0.  1.
<scales pt_clust_5="13000.00000" pt_clust_6="13000.00000" pt_clust_7="13000.00000" pt_clust_8="13000.00000" pt_clust_9="23.04844" pt_clust_10="27.69272"></scales>
<clustering>
<clus scale="   23.048">  2  9  1 -1</clus>
<clus scale="   27.693">  1 10  2 -1</clus>
<clus scale="   91.626">  7  8 -1 -1</clus>
<clus scale="   92.816">  5  6 -1 -1</clus>
<clus scale="  105.764">  2  7  1 -1</clus>
<clus scale="   27.693">  1  5  2 -1</clus>
</clustering>
</event>
<event>
10    2  0.3544405E-006  0.1635666E+03  0.7546771E-02  0.1184777E+00
         21   -1    0    0  501  502  0.00000000000E+00  0.00000000000E+00  0.77405230430E+02  0.77405230430E+02  0.00000000000E+00 0. -1.
          1   -1    0    0  503    0 -0.00000000000E+00 -0.00000000000E+00 -0.66466741688E+03  0.66466741688E+03  0.00000000000E+00 0. -1.
         23    2    1    2    0    0  0.23001814880E+02 -0.15112179007E+03 -0.36079326961E+03  0.40306412754E+03  0.94456490474E+02 0.  0.
         23    2    1    2    0    0  0.22996364991E+02  0.12614153375E+03 -0.85114469829E+02  0.18041257642E+03  0.94147253909E+02 0.  0.
        -11    1    4    4    0    0  0.40633461773E+02  0.31385092110E+02 -0.63455035140E+02  0.81625018879E+02  0.00000000000E+00 0.  1.
         11    1    4    4    0    0 -0.17637096782E+02  0.94756441636E+02 -0.21659434689E+02  0.98787557543E+02  0.00000000000E+00 0. -1.
        -11    1    3    3    0    0 -0.33941929165E+02 -0.76864673235E+02 -0.14032353643E+03  0.16355710753E+03  0.00000000000E+00 0.  1.
         11    1    3    3    0    0  0.56943744046E+02 -0.74257116833E+02 -0.22046973318E+03  0.23950702001E+03  0.00000000000E+00 0. -1.
         21    1    1    2  503  502 -0.71743376407E+01  0.25942940860E+02 -0.91637045752E+02  0.95508405154E+02  0.00000000000E+00 0. -1.
          1    1    1    2  501    0 -0.38823842231E+02 -0.96268453647E+00 -0.49717401257E+02  0.63087538190E+02  0.00000000000E+00 0. -1.
<scales pt_clust_5="13000.00000" pt_clust_6="13000.00000" pt_clust_7="13000.00000" pt_clust_8="13000.00000" pt_clust_9="26.91667" pt_clust_10="39.56476"></scales>
<clustering>
<clus scale="   26.917">  2  9  1 -1</clus>
<clus scale="   39.565">  1 10  2 -1</clus>
<clus scale="   94.147">  5  6 -1 -1</clus>
<clus scale="   94.456">  7  8 -1 -1</clus>
<clus scale="  163.388">  1  5  2 -1</clus>
<clus scale="   39.565">  1  5  2 -1</clus>
</clustering>
</event>
<event>
10    2  0.3544405E-006  0.1986937E+03  0.7546771E-02  0.1150973E+00
         21   -1    0    0  503  502  0.00000000000E+00  0.00000000000E+00  0.12344195310E+03  0.12344195310E+03  0.00000000000E+00 0. -1.
         -1   -1    0    0    0  501 -0.00000000000E+00 -0.00000000000E+00 -0.62745830839E+03  0.62745830839E+03  0.00000000000E+00 0.  1.
         23    2    1    2    0    0  0.18029866634E+03 -0.47667302155E+02 -0.32945610509E+03  0.38990080494E+03  0.93282001118E+02 0.  0.
         23    2    1    2    0    0 -0.13625529188E+03  0.94408820952E+02 -0.70559895030E+02  0.20229164393E+03  0.92003697645E+02 0.  0.
        -11    1    4    4    0    0 -0.13856504263E+03  0.57501386707E+02 -0.42665842246E+02  0.15597132623E+03  0.00000000000E+00 0. -1.
         11    1    4    4    0    0  0.23097507527E+01  0.36907434245E+02 -0.27894052785E+02  0.46320317700E+02  0.00000000000E+00 0.  1.
        -13    1    3    3    0    0  0.11228414215E+03 -0.60897910225E+02 -0.14707311907E+03  0.19479934908E+03  0.00000000000E+00 0.  1.
         13    1    3    3    0    0  0.68014524197E+02  0.13230608069E+02 -0.18238298601E+03  0.19510145586E+03  0.00000000000E+00 0. -1.
         21    1    1    2  503  501 -0.18617434659E+02 -0.29677785882E+02 -0.11939915040E+03  0.12443286127E+03  0.00000000000E+00 0. -1.
         -1    1    1    2    0  502 -0.25425939805E+02 -0.17063732914E+02  0.15398795215E+02  0.34274951350E+02  0.00000000000E+00 0.  1.
<scales pt_clust_5="13000.00000" pt_clust_6="13000.00000" pt_clust_7="13000.00000" pt_clust_8="13000.00000" pt_clust_9="35.74923" pt_clust_10="30.62106"></scales>
<clustering>
<clus scale="   30.621">  1 10  2 -1</clus>
<clus scale="   35.749">  2  9  1 -1</clus>
<clus scale="   92.004">  5  6 -1 -1</clus>
<clus scale="   93.282">  7  8 -1 -1</clus>
<clus scale="  198.097">  1  5  2 -1</clus>
<clus scale="   30.621">  1  5  2 -1</clus>
</clustering>
</event>
<event>
10    2  0.3544405E-006  0.1288393E+03  0.7546771E-02  0.1229813E+00
          1   -1    0    0  503    0 -0.00000000000E+00  0.00000000000E+00  0.67095260890E+03  0.67095260890E+03  0.00000000000E+00 0. -1.
         21   -1    0    0  501  502  0.00000000000E+00 -0.00000000000E+00 -0.58719598277E+02  0.58719598277E+02  0.00000000000E+00 0.  1.
         23    2    1    2    0    0 -0.46993017351E+02 -0.79796943023E+02  0.36139474448E+03  0.38370637708E+03  0.89713581369E+02 0.  0.
         23    2    1    2    0    0  0.51086760427E+02  0.10158287712E+03  0.90033613897E+02  0.17177555626E+03  0.92042664470E+02 0.  0.
        -11    1    4    4    0    0 -0.94870104513E+01  0.79745028337E+02  0.62425857366E+02  0.10171656984E+03  0.00000000000E+00 0. -1.
         11    1    4    4    0    0  0.60573770879E+02  0.21837848779E+02  0.27607756532E+02  0.70058986422E+02  0.00000000000E+00 0.  1.
        -13    1    3    3    0    0  0.13950810670E+02 -0.58816160029E+02  0.22284738390E+03  0.23090024320E+03  0.00000000000E+00 0.  1.
         13    1    3    3    0    0 -0.60943828022E+02 -0.20980782994E+02  0.13854736058E+03  0.15280613388E+03  0.00000000000E+00 0. -1.
         21    1    1    2  503  502  0.22401139440E+02  0.46702232576E+01  0.10155846491E+03  0.10410448515E+03  0.00000000000E+00 0.  1.
          1    1    1    2  501    0 -0.26494882516E+02 -0.26456157351E+02  0.59246187334E+02  0.70085788680E+02  0.00000000000E+00 0. -1.
<scales pt_clust_5="13000.00000" pt_clust_6="13000.00000" pt_clust_7="13000.00000" pt_clust_8="13000.00000" pt_clust_9="22.88279" pt_clust_10="35.29096"></scales>
<clustering>
<clus scale="   22.883">  1  9  2 -1</clus>
<clus scale="   35.291">  2 10  1 -1</clus>
<clus scale="   89.714">  7  8 -1 -1</clus>
<clus scale="   92.043">  5  6 -1 -1</clus>
<clus scale="  127.186">  1  7  2 -1</clus>
<clus scale="   35.291">  2  5  1 -1</clus>
</clustering>
</event>
<event>
10    2  0.3544405E-006  0.2460443E+03  0.7546771E-02  0.1116054E+00
         21   -1    0    0  501  502  0.00000000000E+00  0.00000000000E+00  0.59010373853E+03  0.59010373853E+03  0.00000000000E+00 0. -1.
          2   -1    0    0  503    0 -0.00000000000E+00 -0.00000000000E+00 -0.47951295528E+03  0.47951295528E+03  0.00000000000E+00 0. -1.
         23    2    1    2    0    0  0.37637476511E+02 -0.26762382566E+03  0.52326325132E+02  0.29029314964E+03  0.92157347663E+02 0.  0.
         23    2    1    2    0    0 -0.80221341454E+02  0.18019278859E+03  0.19043820884E+03  0.29041540209E+03  0.95757452458E+02 0.  0.
        -11    1    4    4    0    0 -0.17760996820E+02  0.14781058900E+03  0.13153160758E+03  0.19865544800E+03  0.00000000000E+00 0.  1.
         11    1    4    4    0    0 -0.62460344634E+02  0.32382199584E+02  0.58906601257E+02  0.91759954083E+02  0.00000000000E+00 0. -1.
        -13    1    3    3    0    0  0.13835536246E+02 -0.53503981283E+02  0.50476724217E+02  0.74846494668E+02  0.00000000000E+00 0.  1.
         13    1    3    3    0    0  0.23801940265E+02 -0.21411984437E+03  0.18496009148E+01  0.21544665497E+03  0.00000000000E+00 0. -1.
         21    1    1    2  503  502  0.11490573872E+03  0.85205195768E+02 -0.28551871616E+03  0.31934963826E+03  0.00000000000E+00 0. -1.
          2    1    1    2  501    0 -0.72321873779E+02  0.22258413013E+01  0.15334496544E+03  0.16955850383E+03  0.00000000000E+00 0. -1.
<scales pt_clust_5="13000.00000" pt_clust_6="13000.00000" pt_clust_7="13000.00000" pt_clust_8="13000.00000" pt_clust_9="140.82081" pt_clust_10="72.35612"></scales>
<clustering>
<clus scale="   72.356">  1 10  2 -1</clus>
<clus scale="   92.157">  7  8 -1 -1</clus>
<clus scale="   95.757">  5  6 -1 -1</clus>
<clus scale="  140.821">  2  9  1 -1</clus>
<clus scale="  244.666">  2  7  1 -1</clus>
<clus scale="   72.356">  1  5  2 -1</clus>
</clustering>
</event>
<event>
10    2  0.3544405E-006  0.1035546E+03  0.7546771E-02  0.1273237E+00
          2   -1    0    0  503    0 -0.00000000000E+00  0.00000000000E+00  0.22983661258E+03  0.22983661258E+03  0.00000000000E+00 0. -1.
         21   -1    0    0  501  502  0.00000000000E+00 -0.00000000000E+00 -0.26316279356E+03  0.26316279356E+03  0.00000000000E+00 0. -1.
         23    2    1    2    0    0 -0.40127301888E+02  0.40778164451E+02  0.13686174702E+03  0.17387905810E+03  0.90717859309E+02 0.  0.
         23    2    1    2    0    0 -0.72664391530E+01 -0.41626443162E+02 -0.57492311223E+02  0.11584751155E+03  0.91267289727E+02 0.  0.
        -11    1    3    3    0    0  0.27850790755E+02  0.42413509409E+01  0.23211648692E+02  0.36502551123E+02  0.00000000000E+00 0.  1.
         11    1    3    3    0    0 -0.67978092643E+02  0.36536813510E+02  0.11365009833E+03  0.13737650698E+03  0.00000000000E+00 0. -1.
        -11    1    4    4    0    0 -0.37794817767E+02 -0.43937446496E+02 -0.62035971480E+02  0.84896461717E+02  0.00000000000E+00 0. -1.
         11    1    4    4    0    0  0.30528378614E+02  0.23110033338E+01  0.45436602565E+01  0.30951049833E+02  0.00000000000E+00 0.  1.
         21    1    1    2  503  502  0.21814512306E+02  0.77181765668E+01  0.41125339323E+02  0.47188311382E+02  0.00000000000E+00 0. -1.
          2    1    1    2  501    0  0.25579228735E+02 -0.68698978557E+01 -0.15382095610E+03  0.15608452510E+03  0.00000000000E+00 0. -1.
<scales pt_clust_5="13000.00000" pt_clust_6="13000.00000" pt_clust_7="13000.00000" pt_clust_8="13000.00000" pt_clust_9="23.13965" pt_clust_10="26.60204"></scales>
<clustering>
<clus scale="   23.140">  1  9  2 -1</clus>
<clus scale="   26.602">  2 10  1 -1</clus>
<clus scale="   90.718">  5  6 -1 -1</clus>
<clus scale="   91.267">  7  8 -1 -1</clus>
<clus scale="  103.071">  1  5  2 -1</clus>
<clus scale="   26.602">  2  5  1 -1</clus>
</clustering>
</event>
<event>
10    2  0.3544405E-006  0.9770521E+02  0.7546771E-02  0.1285278E+00
         21   -1    0    0  503  502  0.00000000000E+00  0.00000000000E+00  0.60800800785E+02  0.60800800785E+02  0.00000000000E+00 0.  1.
         -1   -1    0    0    0  501 -0.00000000000E+00 -0.00000000000E+00 -0.50326137947E+03  0.50326137947E+03  0.00000000000E+00 0.  1.
         23    2    1    2    0    0  0.52497990789E+02 -0.46546678821E+02 -0.24633446367E+03  0.27212516998E+03  0.91917396597E+02 0.  0.
         23    2    1    2    0    0  0.11441436288E+02 -0.56619911546E+01 -0.11816462329E+03  0.15015199016E+03  0.91759344729E+02 0.  0.
        -11    1    4    4    0    0  0.41585640954E+01 -0.47998996647E+02 -0.75815160363E+02  0.89828368990E+02  0.00000000000E+00 0.  1.
         11    1    4    4    0    0  0.72828721922E+01  0.42337005493E+02 -0.42349462922E+02  0.60323621172E+02  0.00000000000E+00 0. -1.
        -13    1    3    3    0    0  0.17042617582E+02 -0.39727017257E+02 -0.22717491168E+03  0.23125122100E+03  0.00000000000E+00 0.  1.
         13    1    3    3    0    0  0.35455373207E+02 -0.68196615644E+01 -0.19159551992E+02  0.40873948985E+02  0.00000000000E+00 0. -1.
         21    1    1    2  503  501 -0.10873378470E+02 -0.21217557212E+02 -0.32822739961E+02  0.40567811772E+02  0.00000000000E+00 0.  1.
         -1    1    1    2    0  502 -0.53066048607E+02  0.73426227188E+02 -0.45138751767E+02  0.10121720834E+03  0.00000000000E+00 0.  1.
<scales pt_clust_5="13000.00000" pt_clust_6="13000.00000" pt_clust_7="13000.00000" pt_clust_8="13000.00000" pt_clust_9="23.84146" pt_clust_10="88.95897"></scales>
<clustering>
<clus scale="   23.841">  2  9  1 -1</clus>
<clus scale="   88.959">  1 10  2 -1</clus>
<clus scale="   91.759">  5  6 -1 -1</clus>
<clus scale="   91.917">  7  8 -1 -1</clus>
<clus scale="   97.557">  1  5  2 -1</clus>
<clus scale="   88.959">  1  5  2 -1</clus>
</clustering>
</event>
<event>
10    2  0.3544405E-006  0.1114810E+03  0.7546771E-02  0.1260414E+00
         21   -1    0    0  501  502  0.00000000000E+00  0.00000000000E+00  0.79393032945E+02  0.79393032945E+02  0.00000000000E+00 0. -1.
          1   -1    0    0  503    0 -0.00000000000E+00 -0.00000000000E+00 -0.46768627565E+03  0.46768627565E+03  0.00000000000E+00 0. -1.
         23    2    1    2    0    0 -0.29694448886E+02 -0.82461812108E+01 -0.16572746493E+03  0.19444615989E+03  0.96922426009E+02 0.  0.
         23    2    1    2    0    0  0.94524090909E+02  0.13772559371E+02 -0.11323316483E+03  0.17363137985E+03  0.90562792008E+02 0.  0.
        -11    1    4    4    0    0  0.46561370811E+02  0.49511603628E+02 -0.39219918405E+02  0.78470135372E+02  0.00000000000E+00 0. -1.
         11    1    4    4    0    0  0.47962720098E+02 -0.35739044257E+02 -0.74013246427E+02  0.95161244476E+02  0.00000000000E+00 0.  1.
        -13    1    3    3    0    0 -0.16556184606E+02 -0.52432298944E+02 -0.10075385767E+03  0.11478063015E+03  0.00000000000E+00 0.  1.
         13    1    3    3    0    0 -0.13138264280E+02  0.44186117733E+02 -0.64973607261E+02  0.79665529742E+02  0.00000000000E+00 0. -1.
         21    1    1    2  503  502 -0.12508274740E+02  0.21111038491E+02 -0.11722150375E+03  0.11976232222E+03  0.00000000000E+00 0.  1.
          1    1    1    2  501    0 -0.52321367282E+02 -0.26637416651E+02  0.78888908031E+01  0.59239446640E+02  0.00000000000E+00 0. -1.
<scales pt_clust_5="13000.00000" pt_clust_6="13000.00000" pt_clust_7="13000.00000" pt_clust_8="13000.00000" pt_clust_9="24.53840" pt_clust_10="58.85471"></scales>
<clustering>
<clus scale="   24.538">  2  9  1 -1</clus>
<clus scale="   58.855">  1 10  2 -1</clus>
<clus scale="   90.563">  5  6 -1 -1</clus>
<clus scale="   96.922">  7  8 -1 -1</clus>
<clus scale="  105.998">  1  5  2 -1</clus>
<clus scale="   58.855">  1  5  2 -1</clus>
</clustering>
</event>
<event>
10    2  0.3544405E-006  0.9812695E+02  0.7546771E-02  0.1284730E+00
         21   -1    0    0  501  502  0.00000000000E+00  0.00000000000E+00  0.78778889447E+02  0.78778889447E+02  0.00000000000E+00 0.  1.
          1   -1    0    0  503    0 -0.00000000000E+00 -0.00000000000E+00 -0.26630490712E+03  0.26630490712E+03  0.00000000000E+00 0. -1.
         23    2    1    2    0    0 -0.36101323749E+02  0.10619642801E+01 -0.10923069595E+03  0.14785954398E+03  0.92879849611E+02 0.  0.
         23    2    1    2    0    0  0.22518443571E+02 -0.21749292760E+02 -0.82687502092E+02  0.12760558179E+03  0.92010050889E+02 0.  0.
        -13    1    4    4    0    0  0.11730966149E+02 -0.44573364376E+02 -0.90176771515E+02  0.10127314797E+03  0.00000000000E+00 0.  1.
         13    1    4    4    0    0  0.10787477423E+02  0.22824071616E+02  0.74892694235E+01  0.26332433818E+02  0.00000000000E+00 0. -1.
        -13    1    3    3    0    0  0.90218192595E+01 -0.36311225056E+02 -0.24065035064E+02  0.44486224839E+02  0.00000000000E+00 0.  1.
         13    1    3    3    0    0 -0.45123143008E+02  0.37373189336E+02 -0.85165660883E+02  0.10337331914E+03  0.00000000000E+00 0. -1.
         21    1    1    2  503  502 -0.18169247183E+02  0.24736155553E+02 -0.12835492593E+02  0.33267834388E+02  0.00000000000E+00 0.  1.
          1    1    1    2  501    0  0.31752127361E+02 -0.40488270729E+01  0.17227672958E+02  0.36350836416E+02  0.00000000000E+00 0. -1.
<scales pt_clust_5="13000.00000" pt_clust_6="13000.00000" pt_clust_7="13000.00000" pt_clust_8="13000.00000" pt_clust_9="30.69200" pt_clust_10="25.28456"></scales>
<clustering>
<clus scale="   30.692">  1  9  2 -1</clus>
<clus scale="   25.285">  1 10  2 -1</clus>
<clus scale="   92.010">  5  6 -1 -1</clus>
<clus scale="   92.880">  7  8 -1 -1</clus>
<clus scale="   97.304">  1  5  2 -1</clus>
<clus scale="   30.692">  1  5  2 -1</clus>
</clustering>
</event>
<event>
10    2  0.3544405E-006  0.1030038E+03  0.7546771E-02  0.1274393E+00
         21   -1    0    0  501  502  0.00000000000E+00  0.00000000000E+00  0.35720582177E+03  0.35720582177E+03  0.00000000000E+00 0.  1.
          2   -1    0    0  503    0 -0.00000000000E+00 -0.00000000000E+00 -0.20057164177E+03  0.20057164177E+03  0.00000000000E+00 0. -1.
         23    2    1    2    0    0 -0.50432029016E+02  0.30212856621E+02 -0.15381025824E+03  0.18792381461E+03  0.90562455253E+02 0.  0.
         23    2    1    2    0    0  0.34880737392E+02 -0.18740375737E+00  0.11725100502E+03  0.15181729079E+03  0.89911015150E+02 0.  0.
        -11    1    4    4    0    0  0.16929752881E+00 -0.22542286905E+02 -0.47340261518E+01  0.23034634014E+02  0.00000000000E+00 0. -1.
         11    1    4    4    0    0  0.34711439863E+02  0.22354883148E+02  0.12198503117E+03  0.12878265678E+03  0.00000000000E+00 0.  1.
        -13    1    3    3    0    0 -0.48068797400E+02 -0.17589164702E+02 -0.41688993673E+02  0.66014848268E+02  0.00000000000E+00 0. -1.
         13    1    3    3    0    0 -0.23632316159E+01  0.47802021323E+02 -0.11212126456E+03  0.12190896634E+03  0.00000000000E+00 0.  1.
         21    1    1    2  503  502  0.17473535117E+02  0.12238337161E+02  0.11241652005E+01  0.21362702857E+02  0.00000000000E+00 0.  1.
          2    1    1    2  501    0 -0.19222434930E+01 -0.42263790025E+02  0.19206926802E+03  0.19667365529E+03  0.00000000000E+00 0. -1.
<scales pt_clust_5="13000.00000" pt_clust_6="13000.00000" pt_clust_7="13000.00000" pt_clust_8="13000.00000" pt_clust_9="21.33310" pt_clust_10="42.15059"></scales>
<clustering>
<clus scale="   21.333">  2  9  1 -1</clus>
<clus scale="   42.151">  1 10  2 -1</clus>
<clus scale="   89.911">  5  6 -1 -1</clus>
<clus scale="   90.562">  7  8 -1 -1</clus>
<clus scale="  102.431">  1  5  2 -1</clus>
<clus scale="   42.151">  1  5  2 -1</clus>
</clustering>
</event>
<event>
10    2  0.4020503E-006  0.1405831E+03  0.7546771E-02  0.1213243E+00
          1   -1    0    0  503    0 -0.00000000000E+00  0.00000000000E+00  0.23026105068E+03  0.23026105068E+03  0.00000000000E+00 0. -1.
         21   -1    0    0  501  502  0.00000000000E+00 -0.00000000000E+00 -0.59882526316E+03  0.59882526316E+03  0.00000000000E+00 0.  1.
         23    2    1    2    0    0 -0.10423614572E+03 -0.76189527011E+02  0.14223461326E+03  0.21164327734E+03  0.88837905945E+02 0.  0.
         23    2    1    2    0    0  0.80898588168E+02  0.98058584366E+02 -0.48032051521E+03  0.50416605844E+03  0.85530986327E+02 0.  0.
        -11    1    4    4    0    0 -0.14965676231E+02  0.26192035102E+02 -0.60797927486E+02  0.67870333389E+02  0.00000000000E+00 0. -1.
         11    1    4    4    0    0  0.95864264399E+02  0.71866549264E+02 -0.41952258772E+03  0.43629572505E+03  0.00000000000E+00 0.  1.
        -13    1    3    3    0    0 -0.32723602930E+02  0.70935239035E+01  0.19855447295E+01  0.33542430710E+02  0.00000000000E+00 0.  1.
         13    1    3    3    0    0 -0.71512542789E+02 -0.83283050915E+02  0.14024906853E+03  0.17810084663E+03  0.00000000000E+00 0. -1.
         21    1    1    2  503  502  0.19628772251E+02  0.12369626998E+02  0.33422813090E+02  0.40686371269E+02  0.00000000000E+00 0.  1.
          1    1    1    2  501    0  0.37087853001E+01 -0.34238684352E+02 -0.63901123623E+02  0.72590606795E+02  0.00000000000E+00 0. -1.
<scales pt_clust_5="13000.00000" pt_clust_6="13000.00000" pt_clust_7="13000.00000" pt_clust_8="13000.00000" pt_clust_9="23.20121" pt_clust_10="34.21317"></scales>
<clustering>
<clus scale="   23.201">  1  9  2 -1</clus>
<clus scale="   34.213">  2 10  1 -1</clus>
<clus scale="   85.531">  5  6 -1 -1</clus>
<clus scale="   88.838">  7  8 -1 -1</clus>
<clus scale="  138.517">  2  5  1 -1</clus>
<clus scale="   34.213">  2  5  1 -1</clus>
</clustering>
</event>
<event>
10    2  0.3544405E-006  0.9735191E+02  0.7546771E-02  0.1286391E+00
         21   -1    0    0  501  502  0.00000000000E+00  0.00000000000E+00  0.12531118939E+03  0.12531118939E+03  0.00000000000E+00 0.  1.
          1   -1    0    0  503    0 -0.00000000000E+00 -0.00000000000E+00 -0.30546104052E+03  0.30546104052E+03  0.00000000000E+00 0. -1.
         23    2    1    2    0    0 -0.78960016668E+01  0.10945749568E+02 -0.32503353002E+02  0.98810393327E+02  0.92330220389E+02 0.  0.
         23    2    1    2    0    0  0.37905524767E+02  0.17480479819E+02  0.18949226487E+02  0.10381347226E+03  0.93143802020E+02 0.  0.
        -13    1    3    3    0    0  0.16543939894E+02  0.19727057154E+02  0.24892987467E+02  0.35812282198E+02  0.00000000000E+00 0.  1.
         13    1    3    3    0    0 -0.24439941561E+02 -0.87813075861E+01 -0.57396340470E+02  0.62998111129E+02  0.00000000000E+00 0. -1.
        -13    1    4    4    0    0  0.36759727042E+02 -0.10023038770E+02 -0.29434624465E+02  0.48147024371E+02  0.00000000000E+00 0. -1.
         13    1    4    4    0    0  0.11457977258E+01  0.27503518589E+02  0.48383850952E+02  0.55666447885E+02  0.00000000000E+00 0.  1.
         21    1    1    2  503  502 -0.41912827916E+02 -0.11164664706E+02 -0.19106371911E+03  0.19592518889E+03  0.00000000000E+00 0. -1.
          1    1    1    2  501    0  0.11903304815E+02 -0.17261564682E+02  0.24467994497E+02  0.32223175441E+02  0.00000000000E+00 0. -1.
<scales pt_clust_5="13000.00000" pt_clust_6="13000.00000" pt_clust_7="13000.00000" pt_clust_8="13000.00000" pt_clust_9="43.20024" pt_clust_10="20.96784"></scales>
<clustering>
<clus scale="   20.968">  1 10  2 -1</clus>
<clus scale="   43.200">  2  9  1 -1</clus>
<clus scale="   92.330">  5  6 -1 -1</clus>
<clus scale="   93.144">  7  8 -1 -1</clus>
<clus scale="   96.574">  2  5  1 -1</clus>
<clus scale="   20.968">  1  5  2 -1</clus>
</clustering>
</event>
<event>
10    2  0.3544405E-006  0.1007859E+03  0.7546771E-02  0.1280351E+00
         -1   -1    0    0    0  501 -0.00000000000E+00  0.00000000000E+00  0.32117662089E+03  0.32117662089E+03  0.00000000000E+00 0.  1.
         21   -1    0    0  503  502  0.00000000000E+00 -0.00000000000E+00 -0.15656822832E+03  0.15656822832E+03  0.00000000000E+00 0.  1.
         23    2    1    2    0    0  0.15903239935E+02 -0.34118166079E+02  0.16901955049E+03  0.19536289050E+03  0.90454896165E+02 0.  0.
         23    2    1    2    0    0 -0.29301347897E+02 -0.35478469078E+02 -0.67159649900E+02  0.12428410731E+03  0.93908625796E+02 0.  0.
        -13    1    4    4    0    0 -0.47852292646E+02 -0.54086890181E+02 -0.28710722256E+02  0.77714472098E+02  0.00000000000E+00 0.  1.
         13    1    4    4    0    0  0.18550944749E+02  0.18608421103E+02 -0.38448927644E+02  0.46569635214E+02  0.00000000000E+00 0. -1.
        -13    1    3    3    0    0  0.27106132155E+02 -0.75424211214E+01  0.16361973771E+03  0.16602123083E+03  0.00000000000E+00 0.  1.
         13    1    3    3    0    0 -0.11202892221E+02 -0.26575744958E+02  0.53998127738E+01  0.29341659670E+02  0.00000000000E+00 0. -1.
         21    1    1    2  503  501 -0.12640122153E+02 -0.17928201181E+02  0.63075849838E+02  0.66781403987E+02  0.00000000000E+00 0.  1.
         -1    1    1    2    0  502  0.26038230115E+02  0.87524836339E+02 -0.32735785407E+00  0.91316447406E+02  0.00000000000E+00 0.  1.
<scales pt_clust_5="13000.00000" pt_clust_6="13000.00000" pt_clust_7="13000.00000" pt_clust_8="13000.00000" pt_clust_9="21.93611" pt_clust_10="87.63393"></scales>
<clustering>
<clus scale="   21.936">  1  9  2 -1</clus>
<clus scale="   87.634">  2 10  1 -1</clus>
<clus scale="   90.455">  7  8 -1 -1</clus>
<clus scale="   93.909">  5  6 -1 -1</clus>
<clus scale="   97.576">  1  7  2 -1</clus>
<clus scale="   87.634">  2  5  1 -1</clus>
</clustering>
</event>
<event>
10    2  0.3544405E-006  0.1501390E+03  0.7546771E-02  0.1200327E+00
          2   -1    0    0  503    0 -0.00000000000E+00  0.00000000000E+00  0.81714792603E+03  0.81714792603E+03  0.00000000000E+00 0. -1.
         21   -1    0    0  501  502  0.00000000000E+00 -0.00000000000E+00 -0.81928045810E+02  0.81928045810E+02  0.00000000000E+00 0. -1.
         23    2    1    2    0    0 -0.47438819740E+02 -0.28114393279E+02  0.33127884138E+03  0.34798753261E+03  0.91152571977E+02 0.  0.
         23    2    1    2    0    0  0.12019297145E+03  0.10107352608E+03  0.88789337224E+02  0.20206505779E+03  0.91019410641E+02 0.  0.
        -13    1    3    3    0    0 -0.12821862214E+02  0.25367121594E+02  0.35761602191E+02  0.45681322221E+02  0.00000000000E+00 0. -1.
         13    1    3    3    0    0 -0.34616957526E+02 -0.53481514873E+02  0.29551723919E+03  0.30230621039E+03  0.00000000000E+00 0.  1.
        -13    1    4    4    0    0  0.39410186912E+02 -0.13085385948E+02  0.17074224177E+02  0.44898989844E+02  0.00000000000E+00 0. -1.
         13    1    4    4    0    0  0.80782784541E+02  0.11415891203E+03  0.71715113047E+02  0.15716606794E+03  0.00000000000E+00 0.  1.
         21    1    1    2  503  502 -0.85701447013E+02 -0.34900279333E+02  0.28238640868E+03  0.29716132205E+03  0.00000000000E+00 0. -1.
          2    1    1    2  501    0  0.12947295300E+02 -0.38058853469E+02  0.32765292939E+02  0.51862059391E+02  0.00000000000E+00 0. -1.
<scales pt_clust_5="13000.00000" pt_clust_6="13000.00000" pt_clust_7="13000.00000" pt_clust_8="13000.00000" pt_clust_9="92.86678" pt_clust_10="40.20086"></scales>
<clustering>
<clus scale="   40.201">  2 10  1 -1</clus>
<clus scale="   91.019">  7  8 -1 -1</clus>
<clus scale="   91.153">  5  6 -1 -1</clus>
<clus scale="   92.867">  1  9  2 -1</clus>
<clus scale="  150.058">  2  7  1 -1</clus>
<clus scale="   40.201">  2  5  1 -1</clus>
</clustering>
</event>
<event>
10    2  0.3544405E-006  0.1167115E+03  0.7546771E-02  0.1259317E+00
          1   -1    0    0  503    0 -0.00000000000E+00  0.00000000000E+00  0.45267027773E+03  0.45267027773E+03  0.00000000000E+00 0. -1.
         21   -1    0    0  501  502  0.00000000000E+00 -0.00000000000E+00 -0.10316432327E+03  0.10316432327E+03  0.00000000000E+00 0. -1.
         23    2    1    2    0    0 -0.44806721255E+01  0.20761926131E+02  0.17645992394E+03  0.20011894726E+03  0.91969311725E+02 0.  0.
         23    2    1    2    0    0  0.21466364476E+02 -0.18429537700E+02  0.54082182477E+02  0.11030529186E+03  0.91879934085E+02 0.  0.
        -11    1    4    4    0    0  0.53253587442E+02  0.12516590982E+01  0.49359332221E+02  0.72621311632E+02  0.00000000000E+00 0.  1.
         11    1    4    4    0    0 -0.31787222966E+02 -0.19681196798E+02  0.47228502562E+01  0.37683980228E+02  0.00000000000E+00 0. -1.
        -13    1    3    3    0    0 -0.44581264105E+02  0.28950655198E+02  0.91650072508E+02  0.10594982462E+03  0.00000000000E+00 0.  1.
         13    1    3    3    0    0  0.40100591980E+02 -0.81887290672E+01  0.84809851427E+02  0.94169122646E+02  0.00000000000E+00 0. -1.
         21    1    1    2  503  502 -0.84125525004E+02  0.64980378469E+02  0.10482723714E+03  0.14929267628E+03  0.00000000000E+00 0. -1.
          1    1    1    2  501    0  0.67139832654E+02 -0.67312766900E+02  0.14136610903E+02  0.96117685596E+02  0.00000000000E+00 0. -1.
<scales pt_clust_5="13000.00000" pt_clust_6="13000.00000" pt_clust_7="13000.00000" pt_clust_8="13000.00000" pt_clust_9="71.96983" pt_clust_10="91.37894"></scales>
<clustering>
<clus scale="   91.880">  5  6 -1 -1</clus>
<clus scale="   91.969">  7  8 -1 -1</clus>
<clus scale="   94.390">  1  7  2 -1</clus>
<clus scale="   91.379">  2 10  1 -1</clus>
<clus scale="   71.970">  2  9  1 -1</clus>
<clus scale="   91.379">  2  5  1 -1</clus>
</clustering>
</event>
<event>
10    2  0.3544405E-006  0.1004787E+03  0.7546771E-02  0.1279506E+00
          2   -1    0    0  503    0 -0.00000000000E+00  0.00000000000E+00  0.69217644632E+03  0.69217644632E+03  0.00000000000E+00 0. -1.
         21   -1    0    0  501  502  0.00000000000E+00 -0.00000000000E+00 -0.49521499540E+02  0.49521499540E+02  0.00000000000E+00 0.  1.
         23    2    1    2    0    0  0.40044480714E+02  0.13826404914E+02  0.44447534395E+03  0.45517632308E+03  0.88500981909E+02 0.  0.
         23    2    1    2    0    0 -0.99169488400E+01 -0.30600588979E+02  0.33271391926E+02  0.10027900671E+03  0.88961518346E+02 0.  0.
        -13    1    4    4    0    0  0.72625730297E+01 -0.48876024062E+02 -0.98579878870E+01  0.50386413053E+02  0.00000000000E+00 0. -1.
         13    1    4    4    0    0 -0.17179521870E+02  0.18275435083E+02  0.43129379813E+02  0.49892593661E+02  0.00000000000E+00 0.  1.
        -13    1    3    3    0    0  0.18556265883E+02  0.51478193087E+02  0.25485514591E+03  0.26066354706E+03  0.00000000000E+00 0.  1.
         13    1    3    3    0    0  0.21488214830E+02 -0.37651788173E+02  0.18962019804E+03  0.19451277602E+03  0.00000000000E+00 0. -1.
         21    1    1    2  503  502 -0.16488564033E+02  0.35979780996E+02  0.15618801985E+03  0.16112453236E+03  0.00000000000E+00 0.  1.
          2    1    1    2  501    0 -0.13638967841E+02 -0.19205596930E+02  0.87201910508E+01  0.25118083708E+02  0.00000000000E+00 0. -1.
<scales pt_clust_5="13000.00000" pt_clust_6="13000.00000" pt_clust_7="13000.00000" pt_clust_8="13000.00000" pt_clust_9="38.89360" pt_clust_10="23.55581"></scales>
<clustering>
<clus scale="   23.556">  2 10  1 -1</clus>
<clus scale="   38.894">  1  9  2 -1</clus>
<clus scale="   88.501">  7  8 -1 -1</clus>
<clus scale="   88.962">  5  6 -1 -1</clus>
<clus scale="  100.071">  1  7  2 -1</clus>
<clus scale="   23.556">  2  5  1 -1</clus>
</clustering>
</event>
<event>
10    2  0.3544405E-006  0.1026800E+03  0.7546771E-02  0.1279904E+00
         21   -1    0    0  501  502  0.00000000000E+00  0.00000000000E+00  0.35085252254E+03  0.35085252254E+03  0.00000000000E+00 0.  1.
          1   -1    0    0  503    0 -0.00000000000E+00 -0.00000000000E+00 -0.94692062488E+02  0.94692062488E+02  0.00000000000E+00 0. -1.
         23    2    1    2    0    0 -0.16574294356E+01  0.56666390854E+02  0.98948022668E+02  0.15277952427E+03  0.10167125907E+03 0.  0.
         23    2    1    2    0    0  0.10069138612E+01  0.10329744518E+02  0.10573151949E+03  0.14050441909E+03  0.91949008013E+02 0.  0.
        -11    1    4    4    0    0  0.11532293872E+02 -0.29393327338E+02  0.91855867180E+02  0.97131157871E+02  0.00000000000E+00 0. -1.
         11    1    4    4    0    0 -0.10525380010E+02  0.39723071856E+02  0.13875652305E+02  0.43373261221E+02  0.00000000000E+00 0.  1.
        -13    1    3    3    0    0  0.50042120587E+01 -0.22690406343E+02 -0.29847969536E+01  0.23426602212E+02  0.00000000000E+00 0. -1.
         13    1    3    3    0    0 -0.66616414942E+01  0.79356797197E+02  0.10193281962E+03  0.12935292206E+03  0.00000000000E+00 0.  1.
         21    1    1    2  503  502 -0.10602833549E+02 -0.84036822823E+02 -0.12024785857E+02  0.85552341548E+02  0.00000000000E+00 0. -1.
          1    1    1    2  501    0  0.11253349123E+02  0.17040687451E+02  0.63505703756E+02  0.66708300119E+02  0.00000000000E+00 0. -1.
<scales pt_clust_5="13000.00000" pt_clust_6="13000.00000" pt_clust_7="13000.00000" pt_clust_8="13000.00000" pt_clust_9="82.35482" pt_clust_10="20.42114"></scales>
<clustering>
<clus scale="   20.421">  1 10  2 -1</clus>
<clus scale="   82.355">  2  9  1 -1</clus>
<clus scale="   91.949">  5  6 -1 -1</clus>
<clus scale="   93.063">  1  5  2 -1</clus>
<clus scale="  101.671">  7  8 -1 -1</clus>
<clus scale="   20.421">  1  5  2 -1</clus>
</clustering>
</event>
<event>
10    2  0.3544405E-006  0.1099654E+03  0.7546771E-02  0.1262376E+00
         21   -1    0    0  503  502  0.00000000000E+00  0.00000000000E+00  0.12602038885E+03  0.12602038885E+03  0.00000000000E+00 0.  1.
         -3   -1    0    0    0  501 -0.00000000000E+00 -0.00000000000E+00 -0.40702496155E+03  0.40702496155E+03  0.00000000000E+00 0.  1.
         23    2    1    2    0    0 -0.10596909355E+03  0.13729996462E+02 -0.77405167592E+02  0.15990645723E+03  0.90335781959E+02 0.  0.
         23    2    1    2    0    0  0.10625770150E+02 -0.34825650353E+02 -0.64457863608E+01  0.10161800594E+03  0.94651666947E+02 0.  0.
        -11    1    3    3    0    0 -0.46849044358E+02  0.10093107107E+02 -0.87553642594E+02  0.99811542919E+02  0.00000000000E+00 0. -1.
         11    1    3    3    0    0 -0.59120049194E+02  0.36368893545E+01  0.10148475002E+02  0.60094914309E+02  0.00000000000E+00 0.  1.
        -11    1    4    4    0    0  0.47549817044E+02 -0.23851490584E+02 -0.25097319955E+02  0.58819675049E+02  0.00000000000E+00 0. -1.
         11    1    4    4    0    0 -0.36924046894E+02 -0.10974159769E+02  0.18651533594E+02  0.42798330891E+02  0.00000000000E+00 0.  1.
         21    1    1    2  503  501  0.60358223063E+02 -0.23127161084E+02 -0.20466998302E+03  0.21463406678E+03  0.00000000000E+00 0.  1.
         -3    1    1    2    0  502  0.34985100339E+02  0.44222814975E+02  0.75163642716E+01  0.56886820459E+02  0.00000000000E+00 0.  1.
<scales pt_clust_5="13000.00000" pt_clust_6="13000.00000" pt_clust_7="13000.00000" pt_clust_8="13000.00000" pt_clust_9="65.59415" pt_clust_10="56.38807"></scales>
<clustering>
<clus scale="   56.388">  1 10  2 -1</clus>
<clus scale="   65.594">  2  9  1 -1</clus>
<clus scale="   90.336">  5  6 -1 -1</clus>
<clus scale="   94.652">  7  8 -1 -1</clus>
<clus scale="  106.273">  2  5  1 -1</clus>
<clus scale="   56.388">  1  5  2 -1</clus>
</clustering>
</event>
<event>
10    2  0.3544405E-006  0.1220185E+03  0.7546771E-02  0.1240117E+00
         21   -1    0    0  503  502  0.00000000000E+00  0.00000000000E+00  0.20545794846E+03  0.20545794846E+03  0.00000000000E+00 0.  1.
         -1   -1    0    0    0  501 -0.00000000000E+00 -0.00000000000E+00 -0.22796970416E+03  0.22796970416E+03  0.00000000000E+00 0.  1.
         23    2    1    2    0    0  0.99783118309E+00 -0.10744728118E+03 -0.28086679616E+02  0.14165178653E+03  0.87922995601E+02 0.  0.
         23    2    1    2    0    0 -0.51958087030E+02  0.52182176857E+02 -0.38133494304E+02  0.12163655469E+03  0.88986884762E+02 0.  0.
        -11    1    3    3    0    0 -0.32267351467E+02 -0.10083977126E+02  0.35909322968E+01  0.33996519824E+02  0.00000000000E+00 0.  1.
         11    1    3    3    0    0  0.33265182650E+02 -0.97363304055E+02 -0.31677611913E+02  0.10765526671E+03  0.00000000000E+00 0. -1.
        -13    1    4    4    0    0  0.20801361368E+01  0.31563167349E+02  0.21745560623E+02  0.38385282417E+02  0.00000000000E+00 0. -1.
         13    1    4    4    0    0 -0.54038223167E+02  0.20619009508E+02 -0.59879054927E+02  0.83251272273E+02  0.00000000000E+00 0.  1.
         21    1    1    2  503  501  0.46012016987E+01  0.43105320201E+02 -0.49214644118E+02  0.65584456103E+02  0.00000000000E+00 0.  1.
         -1    1    1    2    0  502  0.46359054148E+02  0.12159784122E+02  0.92923062342E+02  0.10455485530E+03  0.00000000000E+00 0.  1.
<scales pt_clust_5="13000.00000" pt_clust_6="13000.00000" pt_clust_7="13000.00000" pt_clust_8="13000.00000" pt_clust_9="43.35020" pt_clust_10="48.47161"></scales>
<clustering>
<clus scale="   43.350">  2  9  1 -1</clus>
<clus scale="   48.472">  1 10  2 -1</clus>
<clus scale="   87.923">  5  6 -1 -1</clus>
<clus scale="   88.987">  7  8 -1 -1</clus>
<clus scale="  121.245">  2  5  1 -1</clus>
<clus scale="   48.472">  1  5  2 -1</clus>
</clustering>
</event>
<event>
10    2  0.3544405E-006  0.2469624E+03  0.7546771E-02  0.1115432E+00
          1   -1    0    0  503    0 -0.00000000000E+00  0.00000000000E+00  0.11675249060E+04  0.11675249060E+04  0.00000000000E+00 0. -1.
         21   -1    0    0  501  502  0.00000000000E+00 -0.00000000000E+00 -0.17766912258E+03  0.17766912258E+03  0.00000000000E+00 0. -1.
         23    2    1    2    0    0  0.34773482480E+02  0.23545543285E+03  0.71267827766E+03  0.75664696610E+03  0.89195559980E+02 0.  0.
         23    2    1    2    0    0  0.90586467228E+02 -0.23672228115E+03  0.13268601504E+02  0.27011743393E+03  0.92433900109E+02 0.  0.
        -11    1    3    3    0    0  0.34747428891E+00  0.21227082404E+03  0.57970409989E+03  0.61734582440E+03  0.00000000000E+00 0. -1.
         11    1    3    3    0    0  0.34426008191E+02  0.23184608817E+02  0.13297417777E+03  0.13930114170E+03  0.00000000000E+00 0.  1.
        -13    1    4    4    0    0  0.67432122854E+01 -0.86641545370E+02  0.40816787848E+02  0.96011657971E+02  0.00000000000E+00 0.  1.
         13    1    4    4    0    0  0.83843254942E+02 -0.15008073578E+03 -0.27548186344E+02  0.17410577596E+03  0.00000000000E+00 0. -1.
         21    1    1    2  503  502  0.15522815627E+02 -0.14159064710E+02  0.98007819789E+02  0.10023457317E+03  0.00000000000E+00 0.  1.
          1    1    1    2  501    0 -0.14088276533E+03  0.15425913006E+02  0.16590108447E+03  0.21819505537E+03  0.00000000000E+00 0. -1.
<scales pt_clust_5="13000.00000" pt_clust_6="13000.00000" pt_clust_7="13000.00000" pt_clust_8="13000.00000" pt_clust_9="21.01040" pt_clust_10="138.69201"></scales>
<clustering>
<clus scale="   21.010">  1  9  2 -1</clus>
<clus scale="   89.196">  5  6 -1 -1</clus>
<clus scale="   92.434">  7  8 -1 -1</clus>
<clus scale="  138.692">  2 10  1 -1</clus>
<clus scale="  245.769">  1  5  2 -1</clus>
<clus scale="  138.692">  2  5  1 -1</clus>
</clustering>
</event>
<event>
10    2  0.3544405E-006  0.1427837E+03  0.7546771E-02  0.1209890E+00
         21   -1    0    0  501  502  0.00000000000E+00  0.00000000000E+00  0.14241154822E+03  0.14241154822E+03  0.00000000000E+00 0. -1.
          3   -1    0    0  503    0 -0.00000000000E+00 -0.00000000000E+00 -0.29193413033E+03  0.29193413033E+03  0.00000000000E+00 0. -1.
         23    2    1    2    0    0  0.10351238010E+03  0.29725377715E+02 -0.83056520444E+02  0.16438670417E+03  0.92337381408E+02 0.  0.
         23    2    1    2    0    0 -0.79721759900E+02 -0.91726193194E+02 -0.65912653146E+02  0.16557817147E+03  0.91117503821E+02 0.  0.
        -13    1    4    4    0    0 -0.20674149336E+02  0.17706072111E+02 -0.77527702659E+01  0.28302489063E+02  0.00000000000E+00 0.  1.
         13    1    4    4    0    0 -0.59047610563E+02 -0.10943226530E+03 -0.58159882881E+02  0.13727568240E+03  0.00000000000E+00 0. -1.
        -13    1    3    3    0    0  0.86163093456E+02  0.47878420227E+02 -0.94715145384E+02  0.13670179429E+03  0.00000000000E+00 0.  1.
         13    1    3    3    0    0  0.17349286648E+02 -0.18153042512E+02  0.11658624940E+02  0.27684909881E+02  0.00000000000E+00 0. -1.
         21    1    1    2  503  502 -0.24422114098E+02  0.29446963354E+02 -0.38571140118E+02  0.54325833245E+02  0.00000000000E+00 0. -1.
          3    1    1    2  501    0  0.63149389324E+00  0.32553852125E+02  0.38017731596E+02  0.50054969668E+02  0.00000000000E+00 0. -1.
<scales pt_clust_5="13000.00000" pt_clust_6="13000.00000" pt_clust_7="13000.00000" pt_clust_8="13000.00000" pt_clust_9="40.26676" pt_clust_10="32.55998"></scales>
<clustering>
<clus scale="   32.560">  1 10  2 -1</clus>
<clus scale="   40.267">  2  9  1 -1</clus>
<clus scale="   91.118">  5  6 -1 -1</clus>
<clus scale="   92.337">  7  8 -1 -1</clus>
<clus scale="  141.998">  1  5  2 -1</clus>
<clus scale="   32.560">  1  5  2 -1</clus>
</clustering>
</event>
<event>
10    2  0.3544405E-006  0.9761115E+02  0.7546771E-02  0.1287096E+00
         21   -1    0    0  501  502  0.00000000000E+00  0.00000000000E+00  0.91992224855E+02  0.91992224855E+02  0.00000000000E+00 0. -1.
          3   -1    0    0  503    0 -0.00000000000E+00 -0.00000000000E+00 -0.59694692792E+03  0.59694692792E+03  0.00000000000E+00 0. -1.
         23    2    1    2    0    0  0.27118369679E+02  0.69834612225E+01 -0.26703161326E+03  0.28338275645E+03  0.90640661219E+02 0.  0.
         23    2    1    2    0    0  0.52350784666E+02 -0.66551560047E+02 -0.20510382300E+03  0.24091996320E+03  0.93835684376E+02 0.  0.
        -13    1    3    3    0    0  0.56139849353E+02 -0.10486193992E+02 -0.20378237033E+03  0.21163387584E+03  0.00000000000E+00 0. -1.
         13    1    3    3    0    0 -0.29021479674E+02  0.17469655215E+02 -0.63249242936E+02  0.71748880602E+02  0.00000000000E+00 0.  1.
        -13    1    4    4    0    0  0.24556918539E+02 -0.19345254282E+02 -0.17625756035E+03  0.17900840397E+03  0.00000000000E+00 0. -1.
         13    1    4    4    0    0  0.27793866127E+02 -0.47206305765E+02 -0.28846262651E+02  0.61911559238E+02  0.00000000000E+00 0.  1.
         21    1    1    2  503  502 -0.24805695159E+02 -0.33177243383E+01 -0.69297593809E+02  0.73678262160E+02  0.00000000000E+00 0. -1.
          3    1    1    2  501    0 -0.54663459186E+02  0.62885823163E+02  0.36478326999E+02  0.90958170967E+02  0.00000000000E+00 0. -1.
<scales pt_clust_5="13000.00000" pt_clust_6="13000.00000" pt_clust_7="13000.00000" pt_clust_8="13000.00000" pt_clust_9="25.02658" pt_clust_10="84.04379"></scales>
<clustering>
<clus scale="   25.027">  2  9  1 -1</clus>
<clus scale="   84.044">  1 10  2 -1</clus>
<clus scale="   90.641">  5  6 -1 -1</clus>
<clus scale="   93.836">  7  8 -1 -1</clus>
<clus scale="   94.544">  2  5  1 -1</clus>
<clus scale="   84.044">  1  5  2 -1</clus>
</clustering>
</event>
<event>
10    2  0.3544405E-006  0.1338295E+03  0.7546771E-02  0.1233117E+00
          1   -1    0    0  503    0 -0.00000000000E+00  0.00000000000E+00  0.11823618616E+03  0.11823618616E+03  0.00000000000E+00 0. -1.
         21   -1    0    0  501  502  0.00000000000E+00 -0.00000000000E+00 -0.41089158243E+03  0.41089158243E+03  0.00000000000E+00 0.  1.
         23    2    1    2    0    0 -0.20729414171E+02 -0.37411858111E+02 -0.41894237971E+02  0.10838424664E+03  0.90347451566E+02 0.  0.
         23    2    1    2    0    0  0.93132098973E+02  0.36056845909E+02 -0.10778411507E+03  0.19085242137E+03  0.12179305105E+03 0.  0.
        -11    1    3    3    0    0 -0.46175628076E+02 -0.61823983926E+00 -0.43745814777E+02  0.63610275578E+02  0.00000000000E+00 0.  1.
         11    1    3    3    0    0  0.25446213905E+02 -0.36793618272E+02  0.18515768054E+01  0.44773971058E+02  0.00000000000E+00 0. -1.
        -13    1    4    4    0    0  0.11827670253E+03  0.37109459167E+02 -0.61987257320E+02  0.13859621348E+03  0.00000000000E+00 0.  1.
         13    1    4    4    0    0 -0.25144603559E+02 -0.10526132581E+01 -0.45796857750E+02  0.52256207885E+02  0.00000000000E+00 0. -1.
         21    1    1    2  503  502  0.29690575245E+02 -0.68055192785E+01  0.20687840630E+02  0.36821625452E+02  0.00000000000E+00 0. -1.
          1    1    1    2  501    0 -0.10209326005E+03  0.81605314812E+01 -0.16366488385E+03  0.19306947513E+03  0.00000000000E+00 0. -1.
<scales pt_clust_5="13000.00000" pt_clust_6="13000.00000" pt_clust_7="13000.00000" pt_clust_8="13000.00000" pt_clust_9="30.46055" pt_clust_10="97.46968"></scales>
<clustering>
<clus scale="   30.461">  1  9  2 -1</clus>
<clus scale="   90.347">  5  6 -1 -1</clus>
<clus scale="   97.470">  2 10  1 -1</clus>
<clus scale="  106.016">  1  5  2 -1</clus>
<clus scale="  121.793">  7  8 -1 -1</clus>
<clus scale="   97.470">  2  5  1 -1</clus>
</clustering>
</event>
<event>
10    2  0.3544405E-006  0.1488312E+03  0.7546771E-02  0.1205557E+00
         21   -1    0    0  503  502  0.00000000000E+00  0.00000000000E+00  0.49282262196E+02  0.49282262196E+02  0.00000000000E+00 0.  1.
         -1   -1    0    0    0  501 -0.00000000000E+00 -0.00000000000E+00 -0.13520695533E+04  0.13520695533E+04  0.00000000000E+00 0.  1.
         23    2    1    2    0    0  0.15332467301E+02 -0.45956737766E+02 -0.21375533285E+03  0.24420208575E+03  0.10768570038E+03 0.  0.
         23    2    1    2    0    0 -0.82697416188E+02  0.15116591011E+03 -0.39695134185E+03  0.44230725532E+03  0.91516912594E+02 0.  0.
        -13    1    4    4    0    0 -0.75538432981E+02  0.72655798637E+02 -0.14933642865E+03  0.18244530374E+03  0.00000000000E+00 0.  1.
         13    1    4    4    0    0 -0.71589832075E+01  0.78510111469E+02 -0.24761491320E+03  0.25986195159E+03  0.00000000000E+00 0. -1.
        -13    1    3    3    0    0  0.39541777262E+02  0.86051048732E+01 -0.15592663210E+03  0.16109225486E+03  0.00000000000E+00 0. -1.
         13    1    3    3    0    0 -0.24209309961E+02 -0.54561842639E+02 -0.57828700747E+02  0.83109830893E+02  0.00000000000E+00 0.  1.
         21    1    1    2  503  501  0.61758504013E+02 -0.12729717963E+02 -0.46999332712E+03  0.47420447707E+03  0.00000000000E+00 0. -1.
         -1    1    1    2    0  502  0.56064448739E+01 -0.92479454378E+02 -0.22208728933E+03  0.24063799739E+03  0.00000000000E+00 0.  1.
<scales pt_clust_5="13000.00000" pt_clust_6="13000.00000" pt_clust_7="13000.00000" pt_clust_8="13000.00000" pt_clust_9="63.05679" pt_clust_10="98.28461"></scales>
<clustering>
<clus scale="   63.057">  2  9  1 -1</clus>
<clus scale="   91.517">  5  6 -1 -1</clus>
<clus scale="   98.285">  1 10  2 -1</clus>
<clus scale="  107.686">  7  8 -1 -1</clus>
<clus scale="  137.586">  1  5  2 -1</clus>
<clus scale="   98.285">  1  5  2 -1</clus>
</clustering>
</event>
<event>
10    2  0.3544405E-006  0.1778801E+03  0.7546771E-02  0.1169899E+00
          3   -1    0    0  503    0 -0.00000000000E+00  0.00000000000E+00  0.64218298320E+03  0.64218298320E+03  0.00000000000E+00 0. -1.
         21   -1    0    0  501  502  0.00000000000E+00 -0.00000000000E+00 -0.12920031286E+03  0.12920031286E+03  0.00000000000E+00 0.  1.
         23    2    1    2    0    0  0.10355906597E+03  0.64570929508E+02  0.15476169233E+03  0.21758258384E+03  0.92179793314E+02 0.  0.
         23    2    1    2    0    0 -0.16030694115E+03 -0.93080064323E+02  0.97609425602E+02  0.22879139093E+03  0.91954808711E+02 0.  0.
        -13    1    4    4    0    0 -0.13414311761E+03 -0.10740934776E+03  0.62831730439E+02  0.18297259450E+03  0.00000000000E+00 0.  1.
         13    1    4    4    0    0 -0.26163823534E+02  0.14329283435E+02  0.34777695162E+02  0.45818796432E+02  0.00000000000E+00 0. -1.
        -13    1    3    3    0    0  0.81953240062E+02  0.24145362667E+01  0.57462608069E+02  0.10012050174E+03  0.00000000000E+00 0.  1.
         13    1    3    3    0    0  0.21605825911E+02  0.62156393241E+02  0.97299084264E+02  0.11746208211E+03  0.00000000000E+00 0. -1.
         21    1    1    2  503  502  0.48199503012E+02 -0.11662503540E+02  0.27654478349E+03  0.28095590998E+03  0.00000000000E+00 0. -1.
          3    1    1    2  501    0  0.85483721619E+01  0.40171638355E+02 -0.15933231078E+02  0.44053411302E+02  0.00000000000E+00 0. -1.
<scales pt_clust_5="13000.00000" pt_clust_6="13000.00000" pt_clust_7="13000.00000" pt_clust_8="13000.00000" pt_clust_9="49.57347" pt_clust_10="41.07110"></scales>
<clustering>
<clus scale="   41.071">  2 10  1 -1</clus>
<clus scale="   49.573">  1  9  2 -1</clus>
<clus scale="   91.955">  5  6 -1 -1</clus>
<clus scale="   92.180">  7  8 -1 -1</clus>
<clus scale="  177.764">  2  5  1 -1</clus>
<clus scale="   41.071">  2  5  1 -1</clus>
</clustering>
</event>
<event>
10    2  0.3544405E-006  0.1003762E+03  0.7546771E-02  0.1279530E+00
          2   -1    0    0  503    0 -0.00000000000E+00  0.00000000000E+00  0.34122717072E+03  0.34122717072E+03  0.00000000000E+00 0. -1.
         21   -1    0    0  501  502  0.00000000000E+00 -0.00000000000E+00 -0.72699689239E+02  0.72699689239E+02  0.00000000000E+00 0.  1.
         23    2    1    2    0    0 -0.10353634728E+02  0.27186023767E+02  0.23841101089E+03  0.25728806243E+03  0.92255402626E+02 0.  0.
         23    2    1    2    0    0  0.10267497763E+02 -0.23543324454E+02 -0.29864871796E+01  0.95763773646E+02  0.92206678720E+02 0.  0.
        -11    1    4    4    0    0  0.34406898947E+02 -0.46380354221E+02 -0.16238270422E+02  0.59988777109E+02  0.00000000000E+00 0.  1.
         11    1    4    4    0    0 -0.24139401184E+02  0.22837029767E+02  0.13251783242E+02  0.35774996537E+02  0.00000000000E+00 0. -1.
        -13    1    3    3    0    0 -0.23893168339E+02 -0.29481820550E+02  0.81253971050E+02  0.89678698963E+02  0.00000000000E+00 0.  1.
         13    1    3    3    0    0  0.13539533611E+02  0.56667844316E+02  0.15715703984E+03  0.16760936347E+03  0.00000000000E+00 0. -1.
         21    1    1    2  503  502 -0.19907363050E+02  0.10952914465E+02  0.27172086876E+02  0.35420216601E+02  0.00000000000E+00 0. -1.
          2    1    1    2  501    0  0.19993500015E+02 -0.14595613778E+02  0.59308708962E+01  0.25454807286E+02  0.00000000000E+00 0. -1.
<scales pt_clust_5="13000.00000" pt_clust_6="13000.00000" pt_clust_7="13000.00000" pt_clust_8="13000.00000" pt_clust_9="22.72156" pt_clust_10="23.61357"></scales>
<clustering>
<clus scale="   22.722">  1  9  2 -1</clus>
<clus scale="   23.614">  2 10  1 -1</clus>
<clus scale="   92.207">  5  6 -1 -1</clus>
<clus scale="   92.255">  7  8 -1 -1</clus>
<clus scale="  100.331">  2  5  1 -1</clus>
<clus scale="   23.614">  2  5  1 -1</clus>
</clustering>
</event>
<event>
10    2  0.3544405E-006  0.1353072E+03  0.7546771E-02  0.1219795E+00
          2   -1    0    0  503    0 -0.00000000000E+00  0.00000000000E+00  0.53028151839E+03  0.53028151839E+03  0.00000000000E+00 0. -1.
         21   -1    0    0  501  502  0.00000000000E+00 -0.00000000000E+00 -0.80900525165E+03  0.80900525165E+03  0.00000000000E+00 0. -1.
         23    2    1    2    0    0  0.16378183957E+02  0.95859475689E+02 -0.29948595232E+02  0.13623494943E+03  0.90585645111E+02 0.  0.
         23    2    1    2    0    0  0.93842828602E+02 -0.57080494108E+02 -0.30257972711E+03  0.33439263923E+03  0.90549912322E+02 0.  0.
        -11    1    4    4    0    0  0.36727114323E+02  0.14288222735E+02 -0.39131120273E+02  0.55536283718E+02  0.00000000000E+00 0. -1.
         11    1    4    4    0    0  0.57115714279E+02 -0.71368716842E+02 -0.26344860684E+03  0.27885635551E+03  0.00000000000E+00 0.  1.
        -11    1    3    3    0    0  0.53233840203E+02  0.49299318022E+02 -0.24602925973E+02  0.76613108974E+02  0.00000000000E+00 0.  1.
         11    1    3    3    0    0 -0.36855656246E+02  0.46560157667E+02 -0.53456692595E+01  0.59621840454E+02  0.00000000000E+00 0. -1.
         21    1    1    2  503  502 -0.69792478505E+02  0.73747576658E+01  0.45622335427E+03  0.46158978118E+03  0.00000000000E+00 0. -1.
          2    1    1    2  501    0 -0.40428534055E+02 -0.46153739248E+02 -0.40241876518E+03  0.40706940020E+03  0.00000000000E+00 0. -1.
<scales pt_clust_5="13000.00000" pt_clust_6="13000.00000" pt_clust_7="13000.00000" pt_clust_8="13000.00000" pt_clust_9="70.41648" pt_clust_10="61.35661"></scales>
<clustering>
<clus scale="   61.357">  2 10  1 -1</clus>
<clus scale="   70.416">  1  9  2 -1</clus>
<clus scale="   90.550">  5  6 -1 -1</clus>
<clus scale="   90.586">  7  8 -1 -1</clus>
<clus scale="  135.283">  2  5  1 -1</clus>
<clus scale="   61.357">  2  5  1 -1</clus>
</clustering>
</event>
<event>
10    2  0.3544405E-006  0.1376294E+03  0.7546771E-02  0.1216888E+00
          1   -1    0    0  503    0 -0.00000000000E+00  0.00000000000E+00  0.39155431412E+02  0.39155431412E+02  0.00000000000E+00 0. -1.
         21   -1    0    0  501  502  0.00000000000E+00 -0.00000000000E+00 -0.10442608781E+04  0.10442608781E+04  0.00000000000E+00 0. -1.
         23    2    1    2    0    0 -0.52648012189E+02  0.67200311259E+02 -0.37237128923E+03  0.39309809702E+03  0.92617718703E+02 0.  0.
         23    2    1    2    0    0  0.10490495813E+03 -0.62389777901E+02 -0.36815580405E+03  0.39843450444E+03  0.91180171336E+02 0.  0.
        -11    1    3    3    0    0  0.19008161563E+02  0.31009796946E+02 -0.19559601070E+03  0.19894903145E+03  0.00000000000E+00 0.  1.
         11    1    3    3    0    0 -0.71656173752E+02  0.36190514313E+02 -0.17677527852E+03  0.19414906557E+03  0.00000000000E+00 0. -1.
        -13    1    4    4    0    0  0.69234619516E+00 -0.38546606693E+02 -0.52275694862E+02  0.64954357083E+02  0.00000000000E+00 0.  1.
         13    1    4    4    0    0  0.10421261194E+03 -0.23843171208E+02 -0.31588010919E+03  0.33348014736E+03  0.00000000000E+00 0. -1.
         21    1    1    2  503  502 -0.10810520611E+02 -0.28343910856E+02 -0.86352144156E+01  0.31540633578E+02  0.00000000000E+00 0. -1.
          1    1    1    2  501    0 -0.41446425333E+02  0.23533377498E+02 -0.25594313904E+03  0.26034307452E+03  0.00000000000E+00 0. -1.
<scales pt_clust_5="13000.00000" pt_clust_6="13000.00000" pt_clust_7="13000.00000" pt_clust_8="13000.00000" pt_clust_9="30.33553" pt_clust_10="47.35664"></scales>
<clustering>
<clus scale="   30.336">  1  9  2 -1</clus>
<clus scale="   47.357">  2 10  1 -1</clus>
<clus scale="   91.180">  7  8 -1 -1</clus>
<clus scale="   92.618">  5  6 -1 -1</clus>
<clus scale="  136.666">  2  7  1 -1</clus>
<clus scale="   47.357">  2  5  1 -1</clus>
</clustering>
</event>
<event>
10    2  0.3544405E-006  0.3094493E+03  0.7546771E-02  0.1080631E+00
         21   -1    0    0  501  502  0.00000000000E+00  0.00000000000E+00  0.10955941789E+03  0.10955941789E+03  0.00000000000E+00 0.  1.
          2   -1    0    0  503    0 -0.00000000000E+00 -0.00000000000E+00 -0.12780758806E+04  0.12780758806E+04  0.00000000000E+00 0. -1.
         23    2    1    2    0    0  0.12793202106E+03 -0.25149733017E+03 -0.58310464927E+03  0.65419444998E+03  0.91333659149E+02 0.  0.
         23    2    1    2    0    0 -0.14008584542E+03  0.28156155060E+03 -0.47862891490E+03  0.58003044605E+03  0.91916969634E+02 0.  0.
        -13    1    4    4    0    0 -0.14500172140E+03  0.20599095804E+03 -0.36920870141E+03  0.44695954985E+03  0.00000000000E+00 0. -1.
         13    1    4    4    0    0  0.49158759820E+01  0.75570592558E+02 -0.10942021349E+03  0.13307089620E+03  0.00000000000E+00 0.  1.
        -13    1    3    3    0    0  0.96664288984E+02 -0.20349865399E+03 -0.36705853214E+03  0.43068277532E+03  0.00000000000E+00 0.  1.
         13    1    3    3    0    0  0.31267732072E+02 -0.47998676184E+02 -0.21604611713E+03  0.22351167467E+03  0.00000000000E+00 0. -1.
         21    1    1    2  503  502  0.55740851155E+02  0.21078319627E+01 -0.49654221914E+02  0.74679496496E+02  0.00000000000E+00 0.  1.
          2    1    1    2  501    0 -0.43587026789E+02 -0.32172052394E+02 -0.57128676605E+02  0.78730905941E+02  0.00000000000E+00 0. -1.
<scales pt_clust_5="13000.00000" pt_clust_6="13000.00000" pt_clust_7="13000.00000" pt_clust_8="13000.00000" pt_clust_9="50.25695" pt_clust_10="54.17444"></scales>
<clustering>
<clus scale="   54.174">  1 10  2 -1</clus>
<clus scale="   50.257">  1  9  2 -1</clus>
<clus scale="   91.334">  7  8 -1 -1</clus>
<clus scale="   91.917">  5  6 -1 -1</clus>
<clus scale="  309.277">  2  7  1 -1</clus>
<clus scale="   54.174">  1  5  2 -1</clus>
</clustering>
</event>
<event>
10    2  0.3544405E-006  0.1007404E+03  0.7546771E-02  0.1279361E+00
         21   -1    0    0  501  502  0.00000000000E+00  0.00000000000E+00  0.27460503550E+03  0.27460503550E+03  0.00000000000E+00 0. -1.
          3   -1    0    0  503    0 -0.00000000000E+00 -0.00000000000E+00 -0.23280117842E+03  0.23280117842E+03  0.00000000000E+00 0. -1.
         23    2    1    2    0    0 -0.24617892265E+02  0.32248837430E+01 -0.58130545839E+02  0.11027688995E+03  0.90362556417E+02 0.  0.
         23    2    1    2    0    0  0.55546154626E+02  0.24995378871E+01  0.80131609450E+01  0.10750004857E+03  0.91653841766E+02 0.  0.
        -11    1    4    4    0    0 -0.14100485234E+02  0.15515499534E+02 -0.22145969152E+02  0.30495874464E+02  0.00000000000E+00 0.  1.
         11    1    4    4    0    0  0.69646639860E+02 -0.13015961646E+02  0.30159130097E+02  0.77004174105E+02  0.00000000000E+00 0. -1.
        -13    1    3    3    0    0 -0.10451096570E+02  0.46558033140E+02 -0.34839351355E+02  0.59081776143E+02  0.00000000000E+00 0.  1.
         13    1    3    3    0    0 -0.14166795695E+02 -0.43333149397E+02 -0.23291194484E+02  0.51195113804E+02  0.00000000000E+00 0. -1.
         21    1    1    2  503  502 -0.18098394117E+02 -0.41761594730E+02 -0.91535509457E+02  0.10222686611E+03  0.00000000000E+00 0.  1.
          3    1    1    2  501    0 -0.12829868244E+02  0.36037173100E+02  0.18345675142E+03  0.18740240929E+03  0.00000000000E+00 0. -1.
<scales pt_clust_5="13000.00000" pt_clust_6="13000.00000" pt_clust_7="13000.00000" pt_clust_8="13000.00000" pt_clust_9="43.86624" pt_clust_10="38.25289"></scales>
<clustering>
<clus scale="   38.253">  1 10  2 -1</clus>
<clus scale="   43.866">  2  9  1 -1</clus>
<clus scale="   90.363">  7  8 -1 -1</clus>
<clus scale="   91.654">  5  6 -1 -1</clus>
<clus scale="   99.567">  2  7  1 -1</clus>
<clus scale="   38.253">  1  5  2 -1</clus>
</clustering>
</event>
<event>
10    2  0.3544405E-006  0.2291775E+03  0.7546771E-02  0.1142274E+00
          1   -1    0    0  503    0 -0.00000000000E+00  0.00000000000E+00  0.76227235591E+03  0.76227235591E+03  0.00000000000E+00 0. -1.
         21   -1    0    0  501  502  0.00000000000E+00 -0.00000000000E+00 -0.16846020254E+03  0.16846020254E+03  0.00000000000E+00 0. -1.
         23    2    1    2    0    0  0.30920132535E+02  0.26730046427E+03  0.26829393402E+03  0.39058608968E+03  0.90389521670E+02 0.  0.
         23    2    1    2    0    0 -0.50137436157E+02 -0.13365063395E+03  0.17249383803E+03  0.24207925100E+03  0.92043387298E+02 0.  0.
        -11    1    3    3    0    0  0.34905925486E+02  0.37554568410E+02  0.71921529799E+02  0.88325962725E+02  0.00000000000E+00 0.  1.
         11    1    3    3    0    0 -0.39857929510E+01  0.22974589586E+03  0.19637240422E+03  0.30226012696E+03  0.00000000000E+00 0. -1.
        -13    1    4    4    0    0 -0.33489977908E+02 -0.55223667667E+01  0.67649928348E+02  0.75687435948E+02  0.00000000000E+00 0.  1.
         13    1    4    4    0    0 -0.16647458249E+02 -0.12812826719E+03  0.10484390969E+03  0.16639181505E+03  0.00000000000E+00 0. -1.
         21    1    1    2  503  502 -0.39482732277E+02 -0.16880460811E+03  0.15054036699E+03  0.22960026994E+03  0.00000000000E+00 0. -1.
          1    1    1    2  501    0  0.58700035899E+02  0.35154777785E+02  0.24840143353E+01  0.68466947813E+02  0.00000000000E+00 0. -1.
<scales pt_clust_5="13000.00000" pt_clust_6="13000.00000" pt_clust_7="13000.00000" pt_clust_8="13000.00000" pt_clust_9="210.59924" pt_clust_10="68.42187"></scales>
<clustering>
<clus scale="   68.422">  2 10  1 -1</clus>
<clus scale="   90.390">  5  6 -1 -1</clus>
<clus scale="   92.043">  7  8 -1 -1</clus>
<clus scale="  158.845">  2  7  1 -1</clus>
<clus scale="  210.599">  1  9  2 -1</clus>
<clus scale="   68.422">  2  5  1 -1</clus>
</clustering>
</event>
<event>
10    2  0.3544405E-006  0.1262450E+03  0.7546771E-02  0.1234149E+00
         21   -1    0    0  501  502  0.00000000000E+00  0.00000000000E+00  0.49651715706E+02  0.49651715706E+02  0.00000000000E+00 0.  1.
          1   -1    0    0  503    0 -0.00000000000E+00 -0.00000000000E+00 -0.77979263132E+03  0.77979263132E+03  0.00000000000E+00 0. -1.
         23    2    1    2    0    0  0.11021512279E+02 -0.74763806016E+02 -0.46295862826E+03  0.47804331555E+03  0.92106566718E+02 0.  0.
         23    2    1    2    0    0 -0.29247373440E+01  0.11424803671E+03 -0.25267142154E+03  0.29109858973E+03  0.88511997484E+02 0.  0.
        -11    1    3    3    0    0 -0.30642318139E+02 -0.70877377569E+02 -0.29183216865E+03  0.30187508836E+03  0.00000000000E+00 0.  1.
         11    1    3    3    0    0  0.41663830417E+02 -0.38864284462E+01 -0.17112645961E+03  0.17616822719E+03  0.00000000000E+00 0. -1.
        -11    1    4    4    0    0 -0.42206130246E+02  0.78700660523E+02 -0.13270864454E+03  0.15995854379E+03  0.00000000000E+00 0.  1.
         11    1    4    4    0    0  0.39281392902E+02  0.35547376182E+02 -0.11996277700E+03  0.13114004594E+03  0.00000000000E+00 0. -1.
         21    1    1    2  503  502 -0.12667968809E+02 -0.17836130158E+02 -0.27113978615E+02  0.34839242372E+02  0.00000000000E+00 0.  1.
          1    1    1    2  501    0  0.45711938740E+01 -0.21648100532E+02  0.12603112807E+02  0.25463199377E+02  0.00000000000E+00 0. -1.
<scales pt_clust_5="13000.00000" pt_clust_6="13000.00000" pt_clust_7="13000.00000" pt_clust_8="13000.00000" pt_clust_9="21.87704" pt_clust_10="29.07034"></scales>
<clustering>
<clus scale="   21.877">  1  9  2 -1</clus>
<clus scale="   29.070">  1 10  2 -1</clus>
<clus scale="   88.512">  7  8 -1 -1</clus>
<clus scale="   92.107">  5  6 -1 -1</clus>
<clus scale="  123.647">  1  7  2 -1</clus>
<clus scale="   21.877">  1  5  2 -1</clus>
</clustering>
</event>
<event>
10    2  0.3544405E-006  0.9508360E+02  0.7546771E-02  0.1292708E+00
          2   -1    0    0  503    0 -0.00000000000E+00  0.00000000000E+00  0.47193009751E+03  0.47193009751E+03  0.00000000000E+00 0. -1.
         21   -1    0    0  501  502  0.00000000000E+00 -0.00000000000E+00 -0.11022286034E+03  0.11022286034E+03  0.00000000000E+00 0. -1.
         23    2    1    2    0    0  0.28801928185E+02  0.48573446285E+02  0.10117249387E+03  0.14568698925E+03  0.88317011792E+02 0.  0.
         23    2    1    2    0    0  0.86129575709E+01 -0.62805228277E+01  0.89348641266E+02  0.12829316867E+03  0.91445773148E+02 0.  0.
        -11    1    3    3    0    0 -0.12678393019E+02  0.23384967113E+02 -0.66736789223E+01  0.27425103952E+02  0.00000000000E+00 0.  1.
         11    1    3    3    0    0  0.41480321204E+02  0.25188479172E+02  0.10784617279E+03  0.11826188530E+03  0.00000000000E+00 0. -1.
        -13    1    4    4    0    0  0.14051994722E+02 -0.36334190364E+02  0.58620447899E+01  0.39395374274E+02  0.00000000000E+00 0.  1.
         13    1    4    4    0    0 -0.54390371508E+01  0.30053667536E+02  0.83486596477E+02  0.88897794398E+02  0.00000000000E+00 0. -1.
         21    1    1    2  503  502 -0.51746768323E+02 -0.59461839435E+02  0.23112520459E+03  0.24419725342E+03  0.00000000000E+00 0.  1.
          2    1    1    2  501    0  0.14331882567E+02  0.17168915978E+02 -0.59939102561E+02  0.63975546497E+02  0.00000000000E+00 0. -1.
<scales pt_clust_5="13000.00000" pt_clust_6="13000.00000" pt_clust_7="13000.00000" pt_clust_8="13000.00000" pt_clust_9="75.79746" pt_clust_10="22.36458"></scales>
<clustering>
<clus scale="   22.365">  2 10  1 -1</clus>
<clus scale="   75.797">  1  9  2 -1</clus>
<clus scale="   88.317">  5  6 -1 -1</clus>
<clus scale="   91.446">  7  8 -1 -1</clus>
<clus scale="   92.079">  1  5  2 -1</clus>
<clus scale="   22.365">  2  5  1 -1</clus>
</clustering>
</event>
<event>
10    2  0.3544405E-006  0.9716350E+02  0.7546771E-02  0.1287269E+00
          2   -1    0    0  503    0 -0.00000000000E+00  0.00000000000E+00  0.79274304214E+03  0.79274304214E+03  0.00000000000E+00 0. -1.
         21   -1    0    0  501  502  0.00000000000E+00 -0.00000000000E+00 -0.32872432937E+02  0.32872432937E+02  0.00000000000E+00 0.  1.
         23    2    1    2    0    0  0.17465495007E+02 -0.44845959077E+02  0.22959161892E+03  0.25213677536E+03  0.92436131726E+02 0.  0.
         23    2    1    2    0    0 -0.13813222481E+02  0.12120699359E+02  0.19357449833E+03  0.21457247651E+03  0.90733372051E+02 0.  0.
        -11    1    4    4    0    0  0.18489607020E+02 -0.32090534892E+02  0.92100874960E+02  0.99268520518E+02  0.00000000000E+00 0. -1.
         11    1    4    4    0    0 -0.32302829501E+02  0.44211234251E+02  0.10147362337E+03  0.11530395600E+03  0.00000000000E+00 0.  1.
        -11    1    3    3    0    0  0.33427586255E+02  0.17800081741E+02  0.10766751854E+03  0.11413387306E+03  0.00000000000E+00 0.  1.
         11    1    3    3    0    0 -0.15962091248E+02 -0.62646040819E+02  0.12192410038E+03  0.13800290229E+03  0.00000000000E+00 0. -1.
         21    1    1    2  503  502  0.66920949253E+01  0.62001231559E+02  0.31477576599E+03  0.32089362677E+03  0.00000000000E+00 0.  1.
          2    1    1    2  501    0 -0.10344367451E+02 -0.29275971841E+02  0.21928725960E+02  0.38012596431E+02  0.00000000000E+00 0. -1.
<scales pt_clust_5="13000.00000" pt_clust_6="13000.00000" pt_clust_7="13000.00000" pt_clust_8="13000.00000" pt_clust_9="58.64544" pt_clust_10="31.04977"></scales>
<clustering>
<clus scale="   31.050">  2 10  1 -1</clus>
<clus scale="   58.645">  1  9  2 -1</clus>
<clus scale="   90.733">  5  6 -1 -1</clus>
<clus scale="   92.436">  7  8 -1 -1</clus>
<clus scale="   95.545">  2  5  1 -1</clus>
<clus scale="   31.050">  2  5  1 -1</clus>
</clustering>
</event>
<event>
10    2  0.3544405E-006  0.1561667E+03  0.7546771E-02  0.1207709E+00
         21   -1    0    0  501  502  0.00000000000E+00  0.00000000000E+00  0.10210804782E+03  0.10210804782E+03  0.00000000000E+00 0.  1.
          2   -1    0    0  503    0 -0.00000000000E+00 -0.00000000000E+00 -0.72508652451E+03  0.72508652451E+03  0.00000000000E+00 0. -1.
         23    2    1    2    0    0 -0.33564144833E+02  0.18062972835E+03 -0.19365989009E+03  0.28260826249E+03  0.92788072578E+02 0.  0.
         23    2    1    2    0    0 -0.26597871338E+02 -0.49195927463E+02 -0.10775103459E+03  0.15217288668E+03  0.91753015996E+02 0.  0.
        -11    1    4    4    0    0 -0.33002721058E+02  0.46282793638E+01 -0.20555142348E+01  0.33389005764E+02  0.00000000000E+00 0.  1.
         11    1    4    4    0    0  0.64048497200E+01 -0.53824206827E+02 -0.10569552036E+03  0.11878388091E+03  0.00000000000E+00 0. -1.
        -13    1    3    3    0    0 -0.50086542153E+02  0.82800156241E+02 -0.52573933224E+02  0.11012967826E+03  0.00000000000E+00 0.  1.
         13    1    3    3    0    0  0.16522397319E+02  0.97829572107E+02 -0.14108595687E+03  0.17247858423E+03  0.00000000000E+00 0. -1.
         21    1    1    2  503  502  0.69576004671E+02 -0.92716450754E+02 -0.33163966581E+03  0.35131471447E+03  0.00000000000E+00 0. -1.
          2    1    1    2  501    0 -0.94139884995E+01 -0.38717350132E+02  0.10072113799E+02  0.41098708703E+02  0.00000000000E+00 0. -1.
<scales pt_clust_5="13000.00000" pt_clust_6="13000.00000" pt_clust_7="13000.00000" pt_clust_8="13000.00000" pt_clust_9="125.61212" pt_clust_10="39.84541"></scales>
<clustering>
<clus scale="   39.845">  1 10  2 -1</clus>
<clus scale="   91.753">  5  6 -1 -1</clus>
<clus scale="   92.788">  7  8 -1 -1</clus>
<clus scale="  113.715">  1  5  2 -1</clus>
<clus scale="  125.612">  2  9  1 -1</clus>
<clus scale="   39.845">  1  5  2 -1</clus>
</clustering>
</event>
<event>
10    2  0.3544405E-006  0.1175616E+03  0.7546771E-02  0.1251024E+00
          1   -1    0    0  503    0 -0.00000000000E+00  0.00000000000E+00  0.24028595249E+03  0.24028595249E+03  0.00000000000E+00 0. -1.
         21   -1    0    0  501  502  0.00000000000E+00 -0.00000000000E+00 -0.35463235338E+03  0.35463235338E+03  0.00000000000E+00 0. -1.
         23    2    1    2    0    0 -0.64517657940E+02  0.10666537839E+02  0.17391863042E+03  0.20374949222E+03  0.83605396698E+02 0.  0.
         23    2    1    2    0    0  0.44154090483E+02  0.27552425604E+02 -0.18221222667E+03  0.21183166348E+03  0.94671211271E+02 0.  0.
        -11    1    3    3    0    0 -0.53653295442E+02  0.40255962927E+02  0.78474182414E+02  0.10323476143E+03  0.00000000000E+00 0.  1.
         11    1    3    3    0    0 -0.10864362498E+02 -0.29589425088E+02  0.95444448008E+02  0.10051473079E+03  0.00000000000E+00 0. -1.
        -13    1    4    4    0    0  0.58738162532E+02 -0.11354926708E+02 -0.14164644334E+03  0.15376222231E+03  0.00000000000E+00 0. -1.
         13    1    4    4    0    0 -0.14584072049E+02  0.38907352312E+02 -0.40565783332E+02  0.58069441179E+02  0.00000000000E+00 0.  1.
         21    1    1    2  503  502 -0.42625824334E+01 -0.37313479240E+02  0.25565410855E+02  0.45431878392E+02  0.00000000000E+00 0.  1.
          1    1    1    2  501    0  0.24626149890E+02 -0.90548420313E+00 -0.13161821549E+03  0.13390527178E+03  0.00000000000E+00 0. -1.
<scales pt_clust_5="13000.00000" pt_clust_6="13000.00000" pt_clust_7="13000.00000" pt_clust_8="13000.00000" pt_clust_9="37.48745" pt_clust_10="24.64279"></scales>
<clustering>
<clus scale="   24.643">  2 10  1 -1</clus>
<clus scale="   37.487">  1  9  2 -1</clus>
<clus scale="   83.605">  5  6 -1 -1</clus>
<clus scale="   94.671">  7  8 -1 -1</clus>
<clus scale="  108.848">  1  5  2 -1</clus>
<clus scale="   24.643">  2  5  1 -1</clus>
</clustering>
</event>
<event>
10    2  0.3544405E-006  0.1464253E+03  0.7546771E-02  0.1205097E+00
          4   -1    0    0  503    0 -0.00000000000E+00  0.00000000000E+00  0.70485220742E+03  0.70485220742E+03  0.00000000000E+00 0. -1.
         21   -1    0    0  501  502  0.00000000000E+00 -0.00000000000E+00 -0.51702848849E+02  0.51702848849E+02  0.00000000000E+00 0. -1.
         23    2    1    2    0    0 -0.93985552498E+02 -0.26999509438E+02  0.30398561857E+03  0.33306433493E+03  0.94669621942E+02 0.  0.
         23    2    1    2    0    0  0.13479498163E+03  0.34886897339E+02  0.21666341588E+03  0.27412338878E+03  0.93881914218E+02 0.  0.
        -11    1    4    4    0    0  0.78400864873E+02 -0.99991519171E+01  0.52637529463E+02  0.94959929233E+02  0.00000000000E+00 0. -1.
         11    1    4    4    0    0  0.56394116762E+02  0.44886049256E+02  0.16402588641E+03  0.17916345955E+03  0.00000000000E+00 0.  1.
        -11    1    3    3    0    0 -0.78406090374E+02 -0.46753166454E+02  0.29052965910E+03  0.30453383457E+03  0.00000000000E+00 0. -1.
         11    1    3    3    0    0 -0.15579462125E+02  0.19753657017E+02  0.13455959467E+02  0.28530500360E+02  0.00000000000E+00 0.  1.
         21    1    1    2  503  502 -0.23954901251E+02 -0.29817279131E+02  0.54288089321E+02  0.66408614433E+02  0.00000000000E+00 0.  1.
          4    1    1    2  501    0 -0.16854527886E+02  0.21929891231E+02  0.78212234801E+02  0.82958718120E+02  0.00000000000E+00 0. -1.
<scales pt_clust_5="13000.00000" pt_clust_6="13000.00000" pt_clust_7="13000.00000" pt_clust_8="13000.00000" pt_clust_9="37.58979" pt_clust_10="27.65856"></scales>
<clustering>
<clus scale="   27.659">  2 10  1 -1</clus>
<clus scale="   37.590">  2  9  1 -1</clus>
<clus scale="   93.882">  5  6 -1 -1</clus>
<clus scale="   94.670">  7  8 -1 -1</clus>
<clus scale="  145.917">  2  5  1 -1</clus>
<clus scale="   27.659">  2  5  1 -1</clus>
</clustering>
</event>
<event>
10    2  0.3544405E-006  0.3117245E+03  0.7546771E-02  0.1106523E+00
         21   -1    0    0  501  502  0.00000000000E+00  0.00000000000E+00  0.31295168369E+03  0.31295168369E+03  0.00000000000E+00 0. -1.
          2   -1    0    0  503    0 -0.00000000000E+00 -0.00000000000E+00 -0.93893734603E+03  0.93893734603E+03  0.00000000000E+00 0. -1.
         23    2    1    2    0    0  0.93056339833E+02 -0.96739548712E+02 -0.20469666337E+03  0.26151058565E+03  0.92027385841E+02 0.  0.
         23    2    1    2    0    0 -0.46145919379E+02  0.39827562453E+03 -0.38848248690E+03  0.56456523439E+03  0.84037743227E+02 0.  0.
        -13    1    4    4    0    0 -0.32532380250E+02  0.55474935698E+02 -0.84548557336E+02  0.10622750493E+03  0.00000000000E+00 0.  1.
         13    1    4    4    0    0 -0.13613539129E+02  0.34280068883E+03 -0.30393392956E+03  0.45833772946E+03  0.00000000000E+00 0. -1.
        -13    1    3    3    0    0  0.20118735335E+02 -0.86582867272E+02 -0.10519652071E+03  0.13772314397E+03  0.00000000000E+00 0.  1.
         13    1    3    3    0    0  0.72937604497E+02 -0.10156681441E+02 -0.99500142664E+02  0.12378744168E+03  0.00000000000E+00 0. -1.
         21    1    1    2  503  502 -0.11091611318E+03 -0.32498691873E+02 -0.86169279327E+02  0.14416550848E+03  0.00000000000E+00 0. -1.
          2    1    1    2  501    0  0.64005692724E+02 -0.26903738394E+03  0.53362767256E+02  0.28164770120E+03  0.00000000000E+00 0. -1.
<scales pt_clust_5="13000.00000" pt_clust_6="13000.00000" pt_clust_7="13000.00000" pt_clust_8="13000.00000" pt_clust_9="115.57919" pt_clust_10="300.18294"></scales>
<clustering>
<clus scale="   84.038">  5  6 -1 -1</clus>
<clus scale="   92.027">  7  8 -1 -1</clus>
<clus scale="  115.579">  2  9  1 -1</clus>
<clus scale="  153.280">  2  7  1 -1</clus>
<clus scale="  300.183">  1 10  2 -1</clus>
<clus scale="  300.183">  1  5  2 -1</clus>
</clustering>
</event>
<event>
10    2  0.3544405E-006  0.1929198E+03  0.7546771E-02  0.1156033E+00
         21   -1    0    0  503  502  0.00000000000E+00  0.00000000000E+00  0.45585540084E+03  0.45585540084E+03  0.00000000000E+00 0.  1.
         -3   -1    0    0    0  501 -0.00000000000E+00 -0.00000000000E+00 -0.25107898795E+03  0.25107898795E+03  0.00000000000E+00 0.  1.
         23    2    1    2    0    0  0.76488133539E+02  0.13337962445E+03 -0.21486057822E+02  0.18185659066E+03  0.94708025498E+02 0.  0.
         23    2    1    2    0    0 -0.18077296286E+03 -0.10385551083E+03  0.89870361637E+02  0.24535803324E+03  0.93054023788E+02 0.  0.
        -11    1    4    4    0    0 -0.89791630324E+02 -0.16546669599E+01  0.50237214893E+02  0.10290312220E+03  0.00000000000E+00 0. -1.
         11    1    4    4    0    0 -0.90981332538E+02 -0.10220084387E+03  0.39633146744E+02  0.14245491104E+03  0.00000000000E+00 0.  1.
        -11    1    3    3    0    0  0.30616311907E+02  0.12508095892E+03  0.37887079048E+01  0.12882918593E+03  0.00000000000E+00 0.  1.
         11    1    3    3    0    0  0.45871821632E+02  0.82986655263E+01 -0.25274765727E+02  0.53027404725E+02  0.00000000000E+00 0. -1.
         21    1    1    2  503  501 -0.27937453674E+02  0.32605239130E+02 -0.34365011835E+02  0.54995972352E+02  0.00000000000E+00 0.  1.
         -3    1    1    2    0  502  0.13222228300E+03 -0.62129352754E+02  0.17075712091E+03  0.22472379255E+03  0.00000000000E+00 0.  1.
<scales pt_clust_5="13000.00000" pt_clust_6="13000.00000" pt_clust_7="13000.00000" pt_clust_8="13000.00000" pt_clust_9="42.93720" pt_clust_10="140.99212"></scales>
<clustering>
<clus scale="   42.937">  2  9  1 -1</clus>
<clus scale="   93.054">  5  6 -1 -1</clus>
<clus scale="   94.708">  7  8 -1 -1</clus>
<clus scale="  140.992">  1 10  2 -1</clus>
<clus scale="  192.113">  1  5  2 -1</clus>
<clus scale="  140.992">  1  5  2 -1</clus>
</clustering>
</event>
<event>
10    2  0.3544405E-006  0.1112278E+03  0.7546771E-02  0.1259402E+00
         -4   -1    0    0    0  501 -0.00000000000E+00  0.00000000000E+00  0.37822856138E+03  0.37822856138E+03  0.00000000000E+00 0.  1.
         21   -1    0    0  503  502  0.00000000000E+00 -0.00000000000E+00 -0.15272775539E+03  0.15272775539E+03  0.00000000000E+00 0. -1.
         23    2    1    2    0    0  0.10884900920E+02 -0.24359962028E+02  0.91151572416E+01  0.96233592864E+02  0.92010485739E+02 0.  0.
         23    2    1    2    0    0  0.87958340254E+01  0.10732947237E+03 -0.46286015660E+01  0.13987543862E+03  0.89144444822E+02 0.  0.
        -11    1    4    4    0    0  0.22448350843E+02  0.17470675434E+02  0.31161802479E+02  0.42192545425E+02  0.00000000000E+00 0.  1.
         11    1    4    4    0    0 -0.13652516818E+02  0.89858796933E+02 -0.35790404045E+02  0.97682893197E+02  0.00000000000E+00 0. -1.
        -13    1    3    3    0    0  0.24361531087E+02 -0.52541196161E+02 -0.11177698725E+02  0.58983069093E+02  0.00000000000E+00 0.  1.
         13    1    3    3    0    0 -0.13476630166E+02  0.28181234133E+02  0.20292855966E+02  0.37250523770E+02  0.00000000000E+00 0. -1.
         21    1    1    2  503  501 -0.25264199791E+02 -0.53306943100E+02  0.24765785739E+03  0.25458657525E+03  0.00000000000E+00 0.  1.
         -4    1    1    2    0  502  0.55834648455E+01 -0.29662567240E+02 -0.26643607072E+02  0.40260710038E+02  0.00000000000E+00 0.  1.
<scales pt_clust_5="13000.00000" pt_clust_6="13000.00000" pt_clust_7="13000.00000" pt_clust_8="13000.00000" pt_clust_9="59.70207" pt_clust_10="30.18349"></scales>
<clustering>
<clus scale="   30.183">  2 10  1 -1</clus>
<clus scale="   59.702">  1  9  2 -1</clus>
<clus scale="   89.144">  5  6 -1 -1</clus>
<clus scale="   92.010">  7  8 -1 -1</clus>
<clus scale="  108.869">  2  5  1 -1</clus>
<clus scale="   30.183">  2  5  1 -1</clus>
</clustering>
</event>
<event>
10    2  0.3544405E-006  0.2010057E+03  0.7546771E-02  0.1179515E+00
          3   -1    0    0  503    0 -0.00000000000E+00  0.00000000000E+00  0.34745750262E+03  0.34745750262E+03  0.00000000000E+00 0. -1.
         21   -1    0    0  501  502  0.00000000000E+00 -0.00000000000E+00 -0.40384781278E+03  0.40384781278E+03  0.00000000000E+00 0. -1.
         23    2    1    2    0    0 -0.53289652631E+00  0.42091617640E+02 -0.11658973391E+03  0.15373446842E+03  0.90934770424E+02 0.  0.
         23    2    1    2    0    0 -0.14642067971E+03  0.70445203590E+02  0.61845148302E+02  0.19706511937E+03  0.92780907249E+02 0.  0.
        -11    1    3    3    0    0  0.30861426751E+02  0.30905380084E+02 -0.13996417107E+02  0.45863600721E+02  0.00000000000E+00 0.  1.
         11    1    3    3    0    0 -0.31394323278E+02  0.11186237556E+02 -0.10259331681E+03  0.10787086770E+03  0.00000000000E+00 0. -1.
        -13    1    4    4    0    0 -0.14899128036E+02  0.51710779183E+02  0.11731803308E+02  0.55078343373E+02  0.00000000000E+00 0.  1.
         13    1    4    4    0    0 -0.13152155167E+03  0.18734424407E+02  0.50113344995E+02  0.14198677600E+03  0.00000000000E+00 0. -1.
         21    1    1    2  503  502 -0.16678451512E+02 -0.29523496878E+02  0.15535892690E+03  0.15901636324E+03  0.00000000000E+00 0. -1.
          3    1    1    2  501    0  0.16363202775E+03 -0.83013324352E+02 -0.15700465145E+03  0.24148936436E+03  0.00000000000E+00 0. -1.
<scales pt_clust_5="13000.00000" pt_clust_6="13000.00000" pt_clust_7="13000.00000" pt_clust_8="13000.00000" pt_clust_9="33.90881" pt_clust_10="178.31148"></scales>
<clustering>
<clus scale="   33.909">  1  9  2 -1</clus>
<clus scale="   90.935">  5  6 -1 -1</clus>
<clus scale="   92.781">  7  8 -1 -1</clus>
<clus scale="   99.052">  1  5  2 -1</clus>
<clus scale="  178.311">  2 10  1 -1</clus>
<clus scale="  178.311">  2  5  1 -1</clus>
</clustering>
</event>
<event>
10    2  0.3544405E-006  0.1375263E+03  0.7546771E-02  0.1217594E+00
          1   -1    0    0  503    0 -0.00000000000E+00  0.00000000000E+00  0.52369169934E+03  0.52369169934E+03  0.00000000000E+00 0. -1.
         21   -1    0    0  501  502  0.00000000000E+00 -0.00000000000E+00 -0.15542679534E+03  0.15542679534E+03  0.00000000000E+00 0. -1.
         23    2    1    2    0    0  0.38109250233E+01  0.70346919170E+02  0.22643769036E+03  0.25367007844E+03  0.90062583211E+02 0.  0.
         23    2    1    2    0    0 -0.16956828515E+02 -0.15326669559E+03  0.16471784264E+03  0.24149324881E+03  0.86074430163E+02 0.  0.
        -11    1    4    4    0    0 -0.22772399389E+02 -0.85917670462E+02  0.35597446669E+02  0.95747618669E+02  0.00000000000E+00 0.  1.
         11    1    4    4    0    0  0.58155708737E+01 -0.67349025129E+02  0.12912039597E+03  0.14574563014E+03  0.00000000000E+00 0. -1.
        -13    1    3    3    0    0 -0.24115405807E+02  0.79188529282E+02  0.14289024465E+03  0.16513630123E+03  0.00000000000E+00 0.  1.
         13    1    3    3    0    0  0.27926330830E+02 -0.88416101127E+01  0.83547445707E+02  0.88533777210E+02  0.00000000000E+00 0. -1.
         21    1    1    2  503  502 -0.18992643151E+02  0.26259051470E+02  0.66131495845E+02  0.73645319068E+02  0.00000000000E+00 0. -1.
          1    1    1    2  501    0  0.32138546643E+02  0.56660724950E+02 -0.89022124849E+02  0.11030984836E+03  0.00000000000E+00 0. -1.
<scales pt_clust_5="13000.00000" pt_clust_6="13000.00000" pt_clust_7="13000.00000" pt_clust_8="13000.00000" pt_clust_9="32.40769" pt_clust_10="65.46039"></scales>
<clustering>
<clus scale="   32.408">  1  9  2 -1</clus>
<clus scale="   65.460">  2 10  1 -1</clus>
<clus scale="   86.074">  5  6 -1 -1</clus>
<clus scale="   90.063">  7  8 -1 -1</clus>
<clus scale="  134.948">  2  5  1 -1</clus>
<clus scale="   65.460">  2  5  1 -1</clus>
</clustering>
</event>
<event>
10    2  0.3544405E-006  0.2404820E+03  0.7546771E-02  0.1119515E+00
         21   -1    0    0  501  502  0.00000000000E+00  0.00000000000E+00  0.16668657730E+03  0.16668657730E+03  0.00000000000E+00 0. -1.
          2   -1    0    0  503    0 -0.00000000000E+00 -0.00000000000E+00 -0.10689867943E+04  0.10689867943E+04  0.00000000000E+00 0. -1.
         23    2    1    2    0    0  0.21591354635E+03  0.99617525654E+02 -0.66726085683E+03  0.71419328889E+03  0.91064218666E+02 0.  0.
         23    2    1    2    0    0 -0.17912580430E+03 -0.55504764403E+02 -0.19807214384E+03  0.28734832866E+03  0.90386144836E+02 0.  0.
        -11    1    3    3    0    0  0.33401737743E+02  0.58580992963E+02 -0.16710253534E+03  0.18019618791E+03  0.00000000000E+00 0.  1.
         11    1    3    3    0    0  0.18251180860E+03  0.41036532691E+02 -0.50015832149E+03  0.53399710098E+03  0.00000000000E+00 0. -1.
        -13    1    4    4    0    0 -0.17801908905E+03 -0.27484244102E+02 -0.17196281137E+03  0.24903290593E+03  0.00000000000E+00 0.  1.
         13    1    4    4    0    0 -0.11067152438E+01 -0.28020520300E+02 -0.26109332474E+02  0.38315422728E+02  0.00000000000E+00 0. -1.
         21    1    1    2  503  502  0.17743782948E+02 -0.18252371945E+02 -0.12490678219E+03  0.12747429212E+03  0.00000000000E+00 0. -1.
          2    1    1    2  501    0 -0.54531524997E+02 -0.25860389307E+02  0.87939565832E+02  0.10665746196E+03  0.00000000000E+00 0. -1.
<scales pt_clust_5="13000.00000" pt_clust_6="13000.00000" pt_clust_7="13000.00000" pt_clust_8="13000.00000" pt_clust_9="25.45567" pt_clust_10="60.27165"></scales>
<clustering>
<clus scale="   25.456">  2  9  1 -1</clus>
<clus scale="   60.272">  1 10  2 -1</clus>
<clus scale="   90.386">  7  8 -1 -1</clus>
<clus scale="   91.064">  5  6 -1 -1</clus>
<clus scale="  240.226">  1  7  2 -1</clus>
<clus scale="   60.272">  1  5  2 -1</clus>
</clustering>
</event>
<event>
10    2  0.3544405E-006  0.1139252E+03  0.7546771E-02  0.1253632E+00
         21   -1    0    0  501  502  0.00000000000E+00  0.00000000000E+00  0.10547534873E+03  0.10547534873E+03  0.00000000000E+00 0.  1.
          3   -1    0    0  503    0 -0.00000000000E+00 -0.00000000000E+00 -0.30403338274E+03  0.30403338274E+03  0.00000000000E+00 0. -1.
         23    2    1    2    0    0 -0.74254929133E+02 -0.59198665123E+01 -0.17024204076E+03  0.20696481431E+03  0.91122130149E+02 0.  0.
         23    2    1    2    0    0  0.42332233316E+02  0.15843949044E+02  0.25926657437E+02  0.10536819989E+03  0.91581751912E+02 0.  0.
        -11    1    4    4    0    0  0.58872817831E+02  0.41194657316E+02  0.18716875734E+02  0.74251800705E+02  0.00000000000E+00 0.  1.
         11    1    4    4    0    0 -0.16540584515E+02 -0.25350708271E+02  0.72097817034E+01  0.31116399184E+02  0.00000000000E+00 0. -1.
        -11    1    3    3    0    0 -0.18195390244E+02 -0.43886752029E+02 -0.91636507647E+02  0.10322000176E+03  0.00000000000E+00 0. -1.
         11    1    3    3    0    0 -0.56059538889E+02  0.37966885516E+02 -0.78605533111E+02  0.10374481255E+03  0.00000000000E+00 0.  1.
         21    1    1    2  503  502 -0.75706572152E+01  0.21522349055E+02  0.35134186036E+00  0.22817751875E+02  0.00000000000E+00 0. -1.
          3    1    1    2  501    0  0.39493353033E+02 -0.31446431587E+02 -0.54593992550E+02  0.74357965383E+02  0.00000000000E+00 0. -1.
<scales pt_clust_5="13000.00000" pt_clust_6="13000.00000" pt_clust_7="13000.00000" pt_clust_8="13000.00000" pt_clust_9="22.81505" pt_clust_10="48.46615"></scales>
<clustering>
<clus scale="   22.815">  1  9  2 -1</clus>
<clus scale="   48.466">  1 10  2 -1</clus>
<clus scale="   91.122">  7  8 -1 -1</clus>
<clus scale="   91.582">  5  6 -1 -1</clus>
<clus scale="  113.556">  2  7  1 -1</clus>
<clus scale="   22.815">  1  5  2 -1</clus>
</clustering>
</event>
<event>
10    2  0.3544405E-006  0.1672118E+03  0.7546771E-02  0.1181869E+00
          4   -1    0    0  503    0 -0.00000000000E+00  0.00000000000E+00  0.11655297138E+03  0.11655297138E+03  0.00000000000E+00 0. -1.
         21   -1    0    0  501  502  0.00000000000E+00 -0.00000000000E+00 -0.56579046457E+03  0.56579046457E+03  0.00000000000E+00 0.  1.
         23    2    1    2    0    0  0.20272276349E+02  0.12521445371E+03 -0.89738553471E+01  0.15535066877E+03  0.89239428519E+02 0.  0.
         23    2    1    2    0    0 -0.33286777644E+02 -0.18222357932E+03 -0.38040258287E+03  0.43394422060E+03  0.96374369582E+02 0.  0.
        -11    1    3    3    0    0 -0.19673321964E+02  0.34185811613E+02 -0.34847240390E+02  0.52631164490E+02  0.00000000000E+00 0.  1.
         11    1    3    3    0    0  0.39945598314E+02  0.91028642098E+02  0.25873385043E+02  0.10271950428E+03  0.00000000000E+00 0. -1.
        -11    1    4    4    0    0 -0.13695282948E+02 -0.18724729018E+03 -0.33059858293E+03  0.38019012545E+03  0.00000000000E+00 0.  1.
         11    1    4    4    0    0 -0.19591494696E+02  0.50237108621E+01 -0.49803999943E+02  0.53754095152E+02  0.00000000000E+00 0. -1.
         21    1    1    2  503  502 -0.11949020512E+02  0.36691240418E+02 -0.37871541268E+02  0.54067364025E+02  0.00000000000E+00 0. -1.
          4    1    1    2  501    0  0.24963521806E+02  0.20317885190E+02 -0.21989513703E+02  0.38981182543E+02  0.00000000000E+00 0. -1.
<scales pt_clust_5="13000.00000" pt_clust_6="13000.00000" pt_clust_7="13000.00000" pt_clust_8="13000.00000" pt_clust_9="39.66702" pt_clust_10="32.18687"></scales>
<clustering>
<clus scale="   32.187">  2 10  1 -1</clus>
<clus scale="   39.667">  2  9  1 -1</clus>
<clus scale="   89.239">  5  6 -1 -1</clus>
<clus scale="   96.374">  7  8 -1 -1</clus>
<clus scale="  163.204">  1  5  2 -1</clus>
<clus scale="   32.187">  2  5  1 -1</clus>
</clustering>
</event>
<event>
10    2  0.3544405E-006  0.1221198E+03  0.7546771E-02  0.1242178E+00
          1   -1    0    0  503    0 -0.00000000000E+00  0.00000000000E+00  0.24039682542E+03  0.24039682542E+03  0.00000000000E+00 0. -1.
         21   -1    0    0  501  502  0.00000000000E+00 -0.00000000000E+00 -0.52134760597E+03  0.52134760597E+03  0.00000000000E+00 0.  1.
         23    2    1    2    0    0  0.53048668108E+02  0.70310533222E+02 -0.10845226103E+02  0.12602440708E+03  0.89480724080E+02 0.  0.
         23    2    1    2    0    0 -0.88841840292E+02 -0.55019037965E+02 -0.27042859993E+03  0.30580543913E+03  0.97290142454E+02 0.  0.
        -11    1    4    4    0    0 -0.54726792414E+02 -0.64290570350E+02 -0.25234862714E+03  0.26609796854E+03  0.00000000000E+00 0.  1.
         11    1    4    4    0    0 -0.34115047878E+02  0.92715323855E+01 -0.18079972788E+02  0.39707470588E+02  0.00000000000E+00 0. -1.
        -13    1    3    3    0    0  0.52133364596E+02  0.16273796420E+02  0.26128395415E+02  0.60542689079E+02  0.00000000000E+00 0. -1.
         13    1    3    3    0    0  0.91530351199E+00  0.54036736802E+02 -0.36973621519E+02  0.65481718005E+02  0.00000000000E+00 0.  1.
         21    1    1    2  503  502 -0.93042521985E+01 -0.29154981991E+02  0.16026409853E+03  0.16315993185E+03  0.00000000000E+00 0. -1.
          1    1    1    2  501    0  0.45097424383E+02  0.13863486734E+02 -0.15994105306E+03  0.16675465332E+03  0.00000000000E+00 0. -1.
<scales pt_clust_5="13000.00000" pt_clust_6="13000.00000" pt_clust_7="13000.00000" pt_clust_8="13000.00000" pt_clust_9="30.60363" pt_clust_10="46.43700"></scales>
<clustering>
<clus scale="   30.604">  1  9  2 -1</clus>
<clus scale="   46.437">  2 10  1 -1</clus>
<clus scale="   89.481">  7  8 -1 -1</clus>
<clus scale="   97.290">  5  6 -1 -1</clus>
<clus scale="  115.994">  1  7  2 -1</clus>
<clus scale="   46.437">  2  5  1 -1</clus>
</clustering>
</event>
<event>
10    2  0.3544405E-006  0.1249877E+03  0.7546771E-02  0.1237257E+00
         21   -1    0    0  501  502  0.00000000000E+00  0.00000000000E+00  0.45573426010E+02  0.45573426010E+02  0.00000000000E+00 0. -1.
          4   -1    0    0  503    0 -0.00000000000E+00 -0.00000000000E+00 -0.62026969436E+03  0.62026969436E+03  0.00000000000E+00 0. -1.
         23    2    1    2    0    0 -0.10006335863E+03 -0.28086776598E+02 -0.35040824542E+03  0.37687622443E+03  0.91914130134E+02 0.  0.
         23    2    1    2    0    0  0.50925719781E+02  0.20463014226E+02 -0.15667287811E+03  0.19321481953E+03  0.98860567789E+02 0.  0.
        -11    1    4    4    0    0 -0.10032908933E+02  0.34341108159E+02 -0.15835028923E+02  0.39124405583E+02  0.00000000000E+00 0. -1.
         11    1    4    4    0    0  0.60958628714E+02 -0.13878093933E+02 -0.14083784919E+03  0.15409041394E+03  0.00000000000E+00 0.  1.
        -11    1    3    3    0    0 -0.85110671150E+02  0.18265013685E+02 -0.25998255503E+03  0.27416849926E+03  0.00000000000E+00 0. -1.
         11    1    3    3    0    0 -0.14952687484E+02 -0.46351790284E+02 -0.90425690390E+02  0.10270772516E+03  0.00000000000E+00 0.  1.
         21    1    1    2  503  502  0.28011995682E+02  0.11811238730E+02 -0.67703204748E+02  0.74215235603E+02  0.00000000000E+00 0.  1.
          4    1    1    2  501    0  0.21125643172E+02 -0.41874763581E+01  0.88059928035E-01  0.21536840813E+02  0.00000000000E+00 0. -1.
<scales pt_clust_5="13000.00000" pt_clust_6="13000.00000" pt_clust_7="13000.00000" pt_clust_8="13000.00000" pt_clust_9="32.09115" pt_clust_10="21.53666"></scales>
<clustering>
<clus scale="   21.537">  1 10  2 -1</clus>
<clus scale="   32.091">  2  9  1 -1</clus>
<clus scale="   91.914">  7  8 -1 -1</clus>
<clus scale="   98.861">  5  6 -1 -1</clus>
<clus scale="  119.569">  2  7  1 -1</clus>
<clus scale="   21.537">  1  5  2 -1</clus>
</clustering>
</event>
<event>
10    2  0.3544405E-006  0.9550161E+02  0.7546771E-02  0.1291453E+00
          2   -1    0    0  503    0 -0.00000000000E+00  0.00000000000E+00  0.89438018862E+03  0.89438018862E+03  0.00000000000E+00 0. -1.
         21   -1    0    0  501  502  0.00000000000E+00 -0.00000000000E+00 -0.28990991858E+02  0.28990991858E+02  0.00000000000E+00 0. -1.
         23    2    1    2    0    0 -0.11109955234E+02 -0.30293380879E+02  0.41685150350E+03  0.42859889916E+03  0.94290616513E+02 0.  0.
         23    2    1    2    0    0 -0.49393707757E+02  0.65262375750E+01  0.18782563142E+03  0.21490773386E+03  0.91785271748E+02 0.  0.
        -11    1    3    3    0    0 -0.26155806061E+02  0.28661038304E+02  0.15899277739E+03  0.16365904976E+03  0.00000000000E+00 0.  1.
         11    1    3    3    0    0  0.15045850827E+02 -0.58954419183E+02  0.25785872611E+03  0.26493984940E+03  0.00000000000E+00 0. -1.
        -13    1    4    4    0    0  0.18256615128E+02 -0.17234395843E+02  0.91150289539E+02  0.94544717881E+02  0.00000000000E+00 0.  1.
         13    1    4    4    0    0 -0.67650322885E+02  0.23760633418E+02  0.96675341880E+02  0.12036301597E+03  0.00000000000E+00 0. -1.
         21    1    1    2  503  502 -0.65354557511E+01  0.31323789771E+02  0.11360991873E+03  0.11803010472E+03  0.00000000000E+00 0. -1.
          2    1    1    2  501    0  0.67039118742E+02 -0.75566464663E+01  0.14710214312E+03  0.16183444274E+03  0.00000000000E+00 0. -1.
<scales pt_clust_5="13000.00000" pt_clust_6="13000.00000" pt_clust_7="13000.00000" pt_clust_8="13000.00000" pt_clust_9="31.99831" pt_clust_10="65.75616"></scales>
<clustering>
<clus scale="   31.998">  1  9  2 -1</clus>
<clus scale="   65.756">  2 10  1 -1</clus>
<clus scale="   91.785">  7  8 -1 -1</clus>
<clus scale="   93.029">  2  7  1 -1</clus>
<clus scale="   94.291">  5  6 -1 -1</clus>
<clus scale="   65.756">  2  5  1 -1</clus>
</clustering>
</event>
<event>
10    2  0.3544405E-006  0.1498134E+03  0.7546771E-02  0.1200707E+00
         21   -1    0    0  501  502  0.00000000000E+00  0.00000000000E+00  0.66771639822E+02  0.66771639822E+02  0.00000000000E+00 0.  1.
          1   -1    0    0  503    0 -0.00000000000E+00 -0.00000000000E+00 -0.13493133203E+04  0.13493133203E+04  0.00000000000E+00 0. -1.
         23    2    1    2    0    0 -0.13576576303E+03  0.49825604676E+02 -0.84621616703E+03  0.86344105949E+03  0.92378182398E+02 0.  0.
         23    2    1    2    0    0  0.52712504638E+02 -0.10520165687E+03 -0.29022757472E+03  0.32652074335E+03  0.92399967279E+02 0.  0.
        -13    1    4    4    0    0  0.79009950970E+02 -0.80262527622E+02 -0.20485593169E+03  0.23377467451E+03  0.00000000000E+00 0. -1.
         13    1    4    4    0    0 -0.26297446332E+02 -0.24939129252E+02 -0.85371643030E+02  0.92746068839E+02  0.00000000000E+00 0.  1.
        -13    1    3    3    0    0 -0.12052307562E+02  0.46252238037E+02 -0.22705128886E+03  0.23202761778E+03  0.00000000000E+00 0. -1.
         13    1    3    3    0    0 -0.12371345547E+03  0.35733666389E+01 -0.61916487817E+03  0.63141344171E+03  0.00000000000E+00 0.  1.
         21    1    1    2  503  502  0.24501131616E+02 -0.12534220083E+02 -0.13262418760E+03  0.13544957460E+03  0.00000000000E+00 0.  1.
          1    1    1    2  501    0  0.58552126777E+02  0.67910272281E+02 -0.13473751160E+02  0.90673582712E+02  0.00000000000E+00 0. -1.
<scales pt_clust_5="13000.00000" pt_clust_6="13000.00000" pt_clust_7="13000.00000" pt_clust_8="13000.00000" pt_clust_9="27.52112" pt_clust_10="89.95300"></scales>
<clustering>
<clus scale="   27.521">  2  9  1 -1</clus>
<clus scale="   89.953">  1 10  2 -1</clus>
<clus scale="   92.378">  7  8 -1 -1</clus>
<clus scale="   92.400">  5  6 -1 -1</clus>
<clus scale="  149.800">  2  7  1 -1</clus>
<clus scale="   89.953">  1  5  2 -1</clus>
</clustering>
</event>
<event>
10    2  0.3544405E-006  0.2590078E+03  0.7546771E-02  0.1138789E+00
         21   -1    0    0  501  502  0.00000000000E+00  0.00000000000E+00  0.41068727952E+03  0.41068727952E+03  0.00000000000E+00 0. -1.
          1   -1    0    0  503    0 -0.00000000000E+00 -0.00000000000E+00 -0.63121114353E+03  0.63121114353E+03  0.00000000000E+00 0. -1.
         23    2    1    2    0    0 -0.82890518585E+02 -0.33819855800E+02 -0.42527870016E+02  0.13022201700E+03  0.84466166402E+02 0.  0.
         23    2    1    2    0    0  0.19235174617E+03 -0.12175756351E+03 -0.29994972451E+03  0.38661675527E+03  0.87627505369E+02 0.  0.
        -11    1    4    4    0    0  0.17572703745E+03 -0.94626150379E+02 -0.29221641256E+03  0.35387078404E+03  0.00000000000E+00 0. -1.
         11    1    4    4    0    0  0.16624708720E+02 -0.27131413131E+02 -0.77333119548E+01  0.32745971238E+02  0.00000000000E+00 0.  1.
        -13    1    3    3    0    0 -0.50504521354E+02 -0.59667315084E+02 -0.42090956534E+02  0.88783691005E+02  0.00000000000E+00 0. -1.
         13    1    3    3    0    0 -0.32385997230E+02  0.25847459285E+02 -0.43691348138E+00  0.41438325997E+02  0.00000000000E+00 0.  1.
         21    1    1    2  503  502  0.46352906460E+02 -0.36695466674E+02 -0.14767692682E+03  0.15907112851E+03  0.00000000000E+00 0. -1.
          1    1    1    2  501    0 -0.15581413404E+03  0.19227288598E+03  0.26963065733E+03  0.36598852226E+03  0.00000000000E+00 0. -1.
<scales pt_clust_5="13000.00000" pt_clust_6="13000.00000" pt_clust_7="13000.00000" pt_clust_8="13000.00000" pt_clust_9="59.11979" pt_clust_10="243.73441"></scales>
<clustering>
<clus scale="   59.120">  2  9  1 -1</clus>
<clus scale="   84.466">  7  8 -1 -1</clus>
<clus scale="   87.628">  5  6 -1 -1</clus>
<clus scale="  119.679">  2  7  1 -1</clus>
<clus scale="  243.734">  1 10  2 -1</clus>
<clus scale="  243.734">  1  5  2 -1</clus>
</clustering>
</event>
<event>
10    2  0.3544405E-006  0.1125292E+03  0.7546771E-02  0.1258028E+00
         21   -1    0    0  501  502  0.00000000000E+00  0.00000000000E+00  0.96353165789E+02  0.96353165789E+02  0.00000000000E+00 0.  1.
          4   -1    0    0  503    0 -0.00000000000E+00 -0.00000000000E+00 -0.36680125531E+03  0.36680125531E+03  0.00000000000E+00 0. -1.
         23    2    1    2    0    0  0.30099340824E+01  0.22609000581E+02 -0.15475378375E+03  0.18126332112E+03  0.91582920835E+02 0.  0.
         23    2    1    2    0    0 -0.88165092096E+01 -0.59387159853E+02 -0.23460071805E+01  0.11398422025E+03  0.96862444355E+02 0.  0.
        -11    1    4    4    0    0  0.38659118864E+02 -0.22211413498E+01  0.60849615599E+01  0.39198057317E+02  0.00000000000E+00 0. -1.
         11    1    4    4    0    0 -0.47475628074E+02 -0.57166018503E+02 -0.84309687403E+01  0.74786162934E+02  0.00000000000E+00 0.  1.
        -13    1    3    3    0    0 -0.39306194977E+01  0.58003497003E+02 -0.10080372449E+03  0.11636686086E+03  0.00000000000E+00 0. -1.
         13    1    3    3    0    0  0.69405535801E+01 -0.35394496422E+02 -0.53950059253E+02  0.64896460261E+02  0.00000000000E+00 0.  1.
         21    1    1    2  503  502  0.24957464438E+02  0.50921655971E+02 -0.12796699055E+03  0.13996942790E+03  0.00000000000E+00 0. -1.
          4    1    1    2  501    0 -0.19150889311E+02 -0.14143496699E+02  0.14618691951E+02  0.27937451828E+02  0.00000000000E+00 0. -1.
<scales pt_clust_5="13000.00000" pt_clust_6="13000.00000" pt_clust_7="13000.00000" pt_clust_8="13000.00000" pt_clust_9="55.02688" pt_clust_10="23.80746"></scales>
<clustering>
<clus scale="   23.807">  1 10  2 -1</clus>
<clus scale="   55.027">  2  9  1 -1</clus>
<clus scale="   91.583">  7  8 -1 -1</clus>
<clus scale="   96.862">  5  6 -1 -1</clus>
<clus scale="  108.018">  2  7  1 -1</clus>
<clus scale="   23.807">  1  5  2 -1</clus>
</clustering>
</event>
<event>
10    2  0.3544405E-006  0.2624774E+03  0.7546771E-02  0.1129147E+00
          2   -1    0    0  503    0 -0.00000000000E+00  0.00000000000E+00  0.18160249972E+04  0.18160249972E+04  0.00000000000E+00 0. -1.
         21   -1    0    0  501  502  0.00000000000E+00 -0.00000000000E+00 -0.11476807605E+03  0.11476807605E+03  0.00000000000E+00 0. -1.
         23    2    1    2    0    0  0.96025686960E+02  0.68276005925E+02  0.16728784075E+03  0.22375160163E+03  0.90537351572E+02 0.  0.
         23    2    1    2    0    0 -0.24988013790E+03 -0.17357338066E+03  0.87957298090E+03  0.93476069120E+03  0.86954696807E+02 0.  0.
        -11    1    3    3    0    0  0.76721947579E+02  0.78778392941E+02  0.16909000180E+03  0.20170206033E+03  0.00000000000E+00 0.  1.
         11    1    3    3    0    0  0.19303739382E+02 -0.10502387016E+02 -0.18021610479E+01  0.22049541301E+02  0.00000000000E+00 0. -1.
        -11    1    4    4    0    0 -0.21089918153E+03 -0.10132487199E+03  0.67021816770E+03  0.70988561527E+03  0.00000000000E+00 0. -1.
         11    1    4    4    0    0 -0.38980956367E+02 -0.72248508673E+02  0.20935481320E+03  0.22487507593E+03  0.00000000000E+00 0.  1.
         21    1    1    2  503  502 -0.76014444416E+02  0.51383973496E+02  0.45224007570E+03  0.46145378377E+03  0.00000000000E+00 0. -1.
          2    1    1    2  501    0  0.22986889535E+03  0.53913401237E+02  0.20215602379E+03  0.31082699664E+03  0.00000000000E+00 0. -1.
<scales pt_clust_5="13000.00000" pt_clust_6="13000.00000" pt_clust_7="13000.00000" pt_clust_8="13000.00000" pt_clust_9="91.75243" pt_clust_10="247.65553"></scales>
<clustering>
<clus scale="   86.955">  7  8 -1 -1</clus>
<clus scale="   90.537">  5  6 -1 -1</clus>
<clus scale="   91.752">  1  9  2 -1</clus>
<clus scale="  145.475">  1  5  2 -1</clus>
<clus scale="  247.656">  2 10  1 -1</clus>
<clus scale="  247.656">  2  5  1 -1</clus>
</clustering>
</event>
<event>
10    2  0.3544405E-006  0.1024303E+03  0.7546771E-02  0.1277584E+00
         -3   -1    0    0    0  501 -0.00000000000E+00  0.00000000000E+00  0.12149269049E+03  0.12149269049E+03  0.00000000000E+00 0.  1.
         21   -1    0    0  503  502  0.00000000000E+00 -0.00000000000E+00 -0.24392364290E+03  0.24392364290E+03  0.00000000000E+00 0. -1.
         23    2    1    2    0    0 -0.61437720289E+01 -0.66088449120E+02 -0.65074127784E+01  0.10950789996E+03  0.86857381327E+02 0.  0.
         23    2    1    2    0    0  0.21685913381E+02  0.24323394967E+02 -0.93756831100E+01  0.97901665880E+02  0.91841855199E+02 0.  0.
        -11    1    3    3    0    0  0.39035568403E+02 -0.39640956810E+02 -0.11857997816E+02  0.56884032642E+02  0.00000000000E+00 0.  1.
         11    1    3    3    0    0 -0.45179340432E+02 -0.26447492310E+02  0.53505850375E+01  0.52623867319E+02  0.00000000000E+00 0. -1.
        -13    1    4    4    0    0  0.46750055431E+02  0.24729589637E+00 -0.31799961917E+02  0.56540838480E+02  0.00000000000E+00 0. -1.
         13    1    4    4    0    0 -0.25064142050E+02  0.24076099070E+02  0.22424278807E+02  0.41360827400E+02  0.00000000000E+00 0.  1.
         21    1    1    2  503  501  0.11359151389E+02  0.41491545479E+02  0.49564585451E+01  0.43302946179E+02  0.00000000000E+00 0. -1.
         -3    1    1    2    0  502 -0.26901292741E+02  0.27350867483E+00 -0.11150431506E+03  0.11470382136E+03  0.00000000000E+00 0.  1.
<scales pt_clust_5="13000.00000" pt_clust_6="13000.00000" pt_clust_7="13000.00000" pt_clust_8="13000.00000" pt_clust_9="42.18862" pt_clust_10="26.90268"></scales>
<clustering>
<clus scale="   26.903">  2 10  1 -1</clus>
<clus scale="   42.189">  1  9  2 -1</clus>
<clus scale="   86.857">  5  6 -1 -1</clus>
<clus scale="   91.842">  7  8 -1 -1</clus>
<clus scale="   97.986">  1  5  2 -1</clus>
<clus scale="   26.903">  2  5  1 -1</clus>
</clustering>
</event>
<event>
10    2  0.3544405E-006  0.2072110E+03  0.7546771E-02  0.1143805E+00
         21   -1    0    0  503  502  0.00000000000E+00  0.00000000000E+00  0.39334923004E+03  0.39334923004E+03  0.00000000000E+00 0. -1.
          1   -1    0    0  502    0 -0.00000000000E+00 -0.00000000000E+00 -0.35361345781E+03  0.35361345781E+03  0.00000000000E+00 0. -1.
         23    2    1    2    0    0  0.76619391957E+02 -0.21744530621E+03 -0.19853331050E+03  0.31770653326E+03  0.91482093775E+02 0.  0.
         23    2    1    2    0    0 -0.70759716887E+02  0.10984197077E+03 -0.53409692862E+01  0.15952223275E+03  0.91359841909E+02 0.  0.
        -11    1    4    4    0    0 -0.64779178496E+02  0.18484489781E+02 -0.85979855308E+01  0.67911292760E+02  0.00000000000E+00 0.  1.
         11    1    4    4    0    0 -0.59805383911E+01  0.91357480986E+02  0.32570162446E+01  0.91610939993E+02  0.00000000000E+00 0. -1.
        -11    1    3    3    0    0  0.35588220232E+02 -0.62536283770E+02 -0.13999078305E+02  0.73302676626E+02  0.00000000000E+00 0.  1.
         11    1    3    3    0    0  0.41031171726E+02 -0.15490902244E+03 -0.18453423219E+03  0.24440385663E+03  0.00000000000E+00 0. -1.
         21    1    1    2  503  501 -0.43947039722E+01  0.74589314403E+02  0.20865861964E+03  0.22163325292E+03  0.00000000000E+00 0. -1.
          1    1    1    2  501    0 -0.14649710979E+01  0.33014021042E+02  0.34951432368E+02  0.48100668917E+02  0.00000000000E+00 0. -1.
<scales pt_clust_5="13000.00000" pt_clust_6="13000.00000" pt_clust_7="13000.00000" pt_clust_8="13000.00000" pt_clust_9="28.19739" pt_clust_10="115.80385"></scales>
<clustering>
<clus scale="   28.197">  9 10 -1 -1</clus>
<clus scale="   91.360">  5  6 -1 -1</clus>
<clus scale="   91.482">  7  8 -1 -1</clus>
<clus scale="  115.804">  1  9  2 -1</clus>
<clus scale="  207.157">  1  5  2 -1</clus>
<clus scale="  115.804">  1  5  2 -1</clus>
</clustering>
</event>
<event>
10    2  0.3544405E-006  0.1380406E+03  0.7546771E-02  0.1228788E+00
          2   -1    0    0  503    0 -0.00000000000E+00  0.00000000000E+00  0.21032908339E+04  0.21032908339E+04  0.00000000000E+00 0. -1.
         21   -1    0    0  501  502  0.00000000000E+00 -0.00000000000E+00 -0.34286396258E+02  0.34286396258E+02  0.00000000000E+00 0. -1.
         23    2    1    2    0    0  0.37246437749E+02 -0.35637756179E+02  0.47135155573E+03  0.48304129557E+03  0.92191416897E+02 0.  0.
         23    2    1    2    0    0 -0.37308570256E+02  0.69636402171E+02  0.37384416743E+03  0.39323854566E+03  0.92929728007E+02 0.  0.
        -11    1    4    4    0    0 -0.32155079980E+02 -0.12651004536E+02  0.16760026061E+03  0.17112523029E+03  0.00000000000E+00 0. -1.
         11    1    4    4    0    0 -0.51534902761E+01  0.82287406706E+02  0.20624390682E+03  0.22211331537E+03  0.00000000000E+00 0.  1.
        -11    1    3    3    0    0  0.10055284871E+00 -0.58917023144E+02  0.21306122967E+03  0.22105726253E+03  0.00000000000E+00 0.  1.
         11    1    3    3    0    0  0.37145884901E+02  0.23279266965E+02  0.25829032605E+03  0.26198403304E+03  0.00000000000E+00 0. -1.
         21    1    1    2  503  502 -0.12005089698E+03  0.11848945971E+02  0.96295315721E+03  0.97047998350E+03  0.00000000000E+00 0. -1.
          2    1    1    2  501    0  0.12011302948E+03 -0.45847591962E+02  0.26085555724E+03  0.29081740540E+03  0.00000000000E+00 0. -1.
<scales pt_clust_5="13000.00000" pt_clust_6="13000.00000" pt_clust_7="13000.00000" pt_clust_8="13000.00000" pt_clust_9="98.35209" pt_clust_10="102.07485"></scales>
<clustering>
<clus scale="   92.191">  7  8 -1 -1</clus>
<clus scale="   92.930">  5  6 -1 -1</clus>
<clus scale="  105.625">  1  7  2 -1</clus>
<clus scale="   98.352">  1  9  2 -1</clus>
<clus scale="  102.075">  2 10  1 -1</clus>
<clus scale="  102.075">  2  5  1 -1</clus>
</clustering>
</event>
<event>
10    2  0.3544405E-006  0.1093987E+03  0.7546771E-02  0.1265244E+00
         21   -1    0    0  501  502  0.00000000000E+00  0.00000000000E+00  0.17226741736E+03  0.17226741736E+03  0.00000000000E+00 0.  1.
          2   -1    0    0  503    0 -0.00000000000E+00 -0.00000000000E+00 -0.23430551660E+03  0.23430551660E+03  0.00000000000E+00 0. -1.
         23    2    1    2    0    0  0.67590490217E+01  0.54962136963E+02 -0.73478799292E+02  0.12997501867E+03  0.91803323956E+02 0.  0.
         23    2    1    2    0    0 -0.38863715397E+02 -0.54715946042E+02 -0.80254070845E+02  0.13348905397E+03  0.82911932290E+02 0.  0.
        -11    1    3    3    0    0  0.33810147664E+02 -0.95186008490E+01 -0.37336985977E+02  0.51261880272E+02  0.00000000000E+00 0.  1.
         11    1    3    3    0    0 -0.27051098642E+02  0.64480737812E+02 -0.36141813315E+02  0.78713138397E+02  0.00000000000E+00 0. -1.
        -13    1    4    4    0    0 -0.78831622389E+01 -0.43203032676E+02 -0.89048095712E+02  0.99288517107E+02  0.00000000000E+00 0. -1.
         13    1    4    4    0    0 -0.30980553158E+02 -0.11512913366E+02  0.87940248674E+01  0.34200536860E+02  0.00000000000E+00 0.  1.
         21    1    1    2  503  502  0.16235238384E+02 -0.13393880228E+02 -0.20295373929E+02  0.29238351456E+02  0.00000000000E+00 0. -1.
          2    1    1    2  501    0  0.15869427991E+02  0.13147689307E+02  0.11199014482E+03  0.11387050986E+03  0.00000000000E+00 0. -1.
<scales pt_clust_5="13000.00000" pt_clust_6="13000.00000" pt_clust_7="13000.00000" pt_clust_8="13000.00000" pt_clust_9="21.39348" pt_clust_10="20.60826"></scales>
<clustering>
<clus scale="   20.608">  1 10  2 -1</clus>
<clus scale="   21.393">  2  9  1 -1</clus>
<clus scale="   82.912">  7  8 -1 -1</clus>
<clus scale="   91.803">  5  6 -1 -1</clus>
<clus scale="  102.052">  1  7  2 -1</clus>
<clus scale="   20.608">  1  5  2 -1</clus>
</clustering>
</event>
<event>
10    2  0.5167999E-006  0.1576120E+03  0.7546771E-02  0.1209884E+00
         21   -1    0    0  501  502  0.00000000000E+00  0.00000000000E+00  0.74625134592E+03  0.74625134592E+03  0.00000000000E+00 0.  1.
          3   -1    0    0  503    0 -0.00000000000E+00 -0.00000000000E+00 -0.14424679281E+03  0.14424679281E+03  0.00000000000E+00 0. -1.
         23    2    1    2    0    0  0.73920853402E+02  0.18145125511E+02 -0.68572384915E+02  0.13626872281E+03  0.89852405060E+02 0.  0.
         23    2    1    2    0    0 -0.75948214600E+02 -0.12475414258E+03  0.46603938929E+03  0.49685635676E+03  0.91333452235E+02 0.  0.
        -11    1    4    4    0    0 -0.53329447149E+02 -0.98171961187E+02  0.43817864709E+03  0.45219718117E+03  0.00000000000E+00 0.  1.
         11    1    4    4    0    0 -0.22618767451E+02 -0.26582181392E+02  0.27860742200E+02  0.44659175591E+02  0.00000000000E+00 0. -1.
        -11    1    3    3    0    0  0.81066853422E+02 -0.16201345187E+02 -0.48784681729E+02  0.95990955204E+02  0.00000000000E+00 0. -1.
         11    1    3    3    0    0 -0.71460000202E+01  0.34346470698E+02 -0.19787703186E+02  0.40277767603E+02  0.00000000000E+00 0.  1.
         21    1    1    2  503  502 -0.26800962354E+02 -0.35681462654E+01  0.48164625599E+01  0.27463094554E+02  0.00000000000E+00 0. -1.
          3    1    1    2  501    0  0.28828323552E+02  0.11017716333E+03  0.19972108618E+03  0.22990996460E+03  0.00000000000E+00 0. -1.
<scales pt_clust_5="13000.00000" pt_clust_6="13000.00000" pt_clust_7="13000.00000" pt_clust_8="13000.00000" pt_clust_9="27.03744" pt_clust_10="128.45134"></scales>
<clustering>
<clus scale="   27.037">  2  9  1 -1</clus>
<clus scale="   89.852">  7  8 -1 -1</clus>
<clus scale="   91.333">  5  6 -1 -1</clus>
<clus scale="  105.585">  2  7  1 -1</clus>
<clus scale="  128.451">  1 10  2 -1</clus>
<clus scale="  128.451">  1  5  2 -1</clus>
</clustering>
</event>
<event>
10    2  0.3544405E-006  0.1140233E+03  0.7546771E-02  0.1253876E+00
          2   -1    0    0  503    0 -0.00000000000E+00  0.00000000000E+00  0.58027488682E+03  0.58027488682E+03  0.00000000000E+00 0. -1.
         21   -1    0    0  501  502  0.00000000000E+00 -0.00000000000E+00 -0.12571822646E+03  0.12571822646E+03  0.00000000000E+00 0.  1.
         23    2    1    2    0    0 -0.66389921535E+02  0.98157701855E+01  0.34560498765E+03  0.36373652975E+03  0.91419278940E+02 0.  0.
         23    2    1    2    0    0  0.78398989076E+02 -0.10340803149E+02 -0.58797977730E+01  0.11978662215E+03  0.89782677211E+02 0.  0.
        -13    1    4    4    0    0 -0.94442685469E+00  0.29985885546E+02 -0.68714265351E+01  0.30777618113E+02  0.00000000000E+00 0. -1.
         13    1    4    4    0    0  0.79343415931E+02 -0.40326688695E+02  0.99162876216E+00  0.89009004041E+02  0.00000000000E+00 0.  1.
        -13    1    3    3    0    0  0.13293100108E+02  0.17041690935E+02  0.23864568394E+02  0.32196946517E+02  0.00000000000E+00 0.  1.
         13    1    3    3    0    0 -0.79683021643E+02 -0.72259207494E+01  0.32174041926E+03  0.33153958323E+03  0.00000000000E+00 0. -1.
         21    1    1    2  503  502  0.62918083179E+01  0.20672509740E+02  0.16445679007E+03  0.16587035694E+03  0.00000000000E+00 0. -1.
          2    1    1    2  501    0 -0.18300875859E+02 -0.20147476777E+02 -0.49625319594E+02  0.56599604437E+02  0.00000000000E+00 0. -1.
<scales pt_clust_5="13000.00000" pt_clust_6="13000.00000" pt_clust_7="13000.00000" pt_clust_8="13000.00000" pt_clust_9="21.60878" pt_clust_10="27.05446"></scales>
<clustering>
<clus scale="   21.609">  1  9  2 -1</clus>
<clus scale="   27.054">  2 10  1 -1</clus>
<clus scale="   89.783">  5  6 -1 -1</clus>
<clus scale="   91.419">  7  8 -1 -1</clus>
<clus scale="  112.715">  2  5  1 -1</clus>
<clus scale="   27.054">  2  5  1 -1</clus>
</clustering>
</event>
<event>
10    2  0.3544405E-006  0.1087383E+03  0.7546771E-02  0.1262935E+00
         21   -1    0    0  501  502  0.00000000000E+00  0.00000000000E+00  0.29439089819E+03  0.29439089819E+03  0.00000000000E+00 0.  1.
          1   -1    0    0  503    0 -0.00000000000E+00 -0.00000000000E+00 -0.13585061764E+03  0.13585061764E+03  0.00000000000E+00 0. -1.
         23    2    1    2    0    0 -0.33777180970E+02 -0.27558067650E+02 -0.10425898875E+02  0.10141007749E+03  0.90966803847E+02 0.  0.
         23    2    1    2    0    0  0.48222646344E+01  0.85214727286E+02  0.20102467634E+02  0.12632893787E+03  0.90940020656E+02 0.  0.
        -13    1    3    3    0    0  0.25115014981E+02  0.38581525164E+01 -0.22067720992E+02  0.33654622686E+02  0.00000000000E+00 0. -1.
         13    1    3    3    0    0 -0.58892195951E+02 -0.31416220166E+02  0.11641822118E+02  0.67755454804E+02  0.00000000000E+00 0.  1.
        -13    1    4    4    0    0  0.18574840486E+02  0.62340549272E+02  0.53042033366E+02  0.83933462255E+02  0.00000000000E+00 0. -1.
         13    1    4    4    0    0 -0.13752575852E+02  0.22874178014E+02 -0.32939565732E+02  0.42395475619E+02  0.00000000000E+00 0.  1.
         21    1    1    2  503  502  0.83430753844E+01 -0.37228059807E+02 -0.11253565040E+02  0.39776602042E+02  0.00000000000E+00 0. -1.
          1    1    1    2  501    0  0.20611840952E+02 -0.20428599829E+02  0.16011727683E+03  0.16272589842E+03  0.00000000000E+00 0. -1.
<scales pt_clust_5="13000.00000" pt_clust_6="13000.00000" pt_clust_7="13000.00000" pt_clust_8="13000.00000" pt_clust_9="40.80746" pt_clust_10="29.02026"></scales>
<clustering>
<clus scale="   29.020">  1 10  2 -1</clus>
<clus scale="   40.807">  2  9  1 -1</clus>
<clus scale="   90.940">  7  8 -1 -1</clus>
<clus scale="   90.967">  5  6 -1 -1</clus>
<clus scale="  108.716">  1  7  2 -1</clus>
<clus scale="   29.020">  1  5  2 -1</clus>
</clustering>
</event>
<event>
10    2  0.3544405E-006  0.2149436E+03  0.7546771E-02  0.1137776E+00
         21   -1    0    0  501  502  0.00000000000E+00  0.00000000000E+00  0.27878968867E+03  0.27878968867E+03  0.00000000000E+00 0. -1.
          3   -1    0    0  503    0 -0.00000000000E+00 -0.00000000000E+00 -0.48280634070E+03  0.48280634070E+03  0.00000000000E+00 0. -1.
         23    2    1    2    0    0 -0.11877150727E+03 -0.11476450729E+03 -0.10223090287E+03  0.21450705510E+03  0.91019536974E+02 0.  0.
         23    2    1    2    0    0  0.22695556188E+03  0.18358388608E+03  0.13645459694E+01  0.30601480426E+03  0.91822263876E+02 0.  0.
        -13    1    3    3    0    0 -0.25962189884E+02 -0.71908308781E+02 -0.10521253763E+02  0.77172125512E+02  0.00000000000E+00 0.  1.
         13    1    3    3    0    0 -0.92809317387E+02 -0.42856198511E+02 -0.91709649105E+02  0.13733492958E+03  0.00000000000E+00 0. -1.
        -13    1    4    4    0    0  0.16640961606E+03  0.99879449313E+02 -0.33563503235E+02  0.19696338102E+03  0.00000000000E+00 0. -1.
         13    1    4    4    0    0  0.60545945817E+02  0.83704436765E+02  0.34928049204E+02  0.10905142324E+03  0.00000000000E+00 0.  1.
         21    1    1    2  503  502  0.22670138481E+02 -0.41262400024E+01 -0.91814686953E+02  0.94662018653E+02  0.00000000000E+00 0. -1.
          3    1    1    2  501    0 -0.13085419309E+03 -0.64693138783E+02 -0.11335608174E+02  0.14641215136E+03  0.00000000000E+00 0. -1.
<scales pt_clust_5="13000.00000" pt_clust_6="13000.00000" pt_clust_7="13000.00000" pt_clust_8="13000.00000" pt_clust_9="23.04259" pt_clust_10="142.25562"></scales>
<clustering>
<clus scale="   23.043">  2  9  1 -1</clus>
<clus scale="   91.020">  5  6 -1 -1</clus>
<clus scale="   91.822">  7  8 -1 -1</clus>
<clus scale="  142.256">  1 10  2 -1</clus>
<clus scale="  214.602">  2  5  1 -1</clus>
<clus scale="  142.256">  1  5  2 -1</clus>
</clustering>
</event>
<event>
10    2  0.3544405E-006  0.2171088E+03  0.7546771E-02  0.1169032E+00
         -2   -1    0    0    0  501 -0.00000000000E+00  0.00000000000E+00  0.56499990402E+03  0.56499990402E+03  0.00000000000E+00 0.  1.
         21   -1    0    0  503  502  0.00000000000E+00 -0.00000000000E+00 -0.64389872118E+03  0.64389872118E+03  0.00000000000E+00 0.  1.
         23    2    1    2    0    0 -0.43421309043E+02  0.28689291314E+01  0.13692862448E+03  0.16974526420E+03  0.90390075146E+02 0.  0.
         23    2    1    2    0    0 -0.41827964864E+02 -0.23598351784E+03  0.56011963226E+02  0.26185265436E+03  0.89396158961E+02 0.  0.
        -11    1    3    3    0    0  0.22367870130E+02  0.14162930224E+02  0.71630104543E+02  0.76366105594E+02  0.00000000000E+00 0.  1.
         11    1    3    3    0    0 -0.65789179173E+02 -0.11294001093E+02  0.65298519932E+02  0.93379158608E+02  0.00000000000E+00 0. -1.
        -11    1    4    4    0    0 -0.46993693421E+02 -0.10546867701E+03  0.62078958971E+02  0.13109479852E+03  0.00000000000E+00 0.  1.
         11    1    4    4    0    0  0.51657285578E+01 -0.13051484083E+03 -0.60669957456E+01  0.13075785584E+03  0.00000000000E+00 0. -1.
         21    1    1    2  503  501  0.22401701376E+02  0.50192990787E+02  0.23157482983E+03  0.23800855942E+03  0.00000000000E+00 0.  1.
         -2    1    1    2    0  502  0.62847572531E+02  0.18292159792E+03 -0.50341423469E+03  0.53929214721E+03  0.00000000000E+00 0.  1.
<scales pt_clust_5="13000.00000" pt_clust_6="13000.00000" pt_clust_7="13000.00000" pt_clust_8="13000.00000" pt_clust_9="54.96519" pt_clust_10="197.84980"></scales>
<clustering>
<clus scale="   54.965">  1  9  2 -1</clus>
<clus scale="   89.396">  7  8 -1 -1</clus>
<clus scale="   90.390">  5  6 -1 -1</clus>
<clus scale="   99.729">  1  5  2 -1</clus>
<clus scale="  197.850">  2 10  1 -1</clus>
<clus scale="  197.850">  2  5  1 -1</clus>
</clustering>
</event>
<event>
10    2  0.3544405E-006  0.1355261E+03  0.7546771E-02  0.1221952E+00
          2   -1    0    0  503    0 -0.00000000000E+00  0.00000000000E+00  0.15836827931E+03  0.15836827931E+03  0.00000000000E+00 0. -1.
         21   -1    0    0  501  502  0.00000000000E+00 -0.00000000000E+00 -0.40226960517E+03  0.40226960517E+03  0.00000000000E+00 0. -1.
         23    2    1    2    0    0 -0.43485184881E+02 -0.11328948136E+03  0.49685056640E+02  0.15381551164E+03  0.80406087319E+02 0.  0.
         23    2    1    2    0    0  0.89324521537E+01  0.10542212258E+03 -0.84579440281E+02  0.16316378949E+03  0.90967729725E+02 0.  0.
        -13    1    3    3    0    0  0.22337521042E+02 -0.39765614385E+02  0.64007784339E+01  0.46056909343E+02  0.00000000000E+00 0.  1.
         13    1    3    3    0    0 -0.65822705922E+02 -0.73523866973E+02  0.43284278206E+02  0.10775860230E+03  0.00000000000E+00 0. -1.
        -13    1    4    4    0    0  0.81019529322E+01  0.83335112366E+02 -0.87560778363E+01  0.84184627418E+02  0.00000000000E+00 0. -1.
         13    1    4    4    0    0  0.83049922149E+00  0.22087010217E+02 -0.75823362445E+02  0.78979162073E+02  0.00000000000E+00 0.  1.
         21    1    1    2  503  502  0.62482181049E+01  0.35774489942E+02 -0.60140376068E+01  0.36810637164E+02  0.00000000000E+00 0. -1.
          2    1    1    2  501    0  0.28304514622E+02 -0.27907131168E+02 -0.20299290461E+03  0.20684794619E+03  0.00000000000E+00 0. -1.
<scales pt_clust_5="13000.00000" pt_clust_6="13000.00000" pt_clust_7="13000.00000" pt_clust_8="13000.00000" pt_clust_9="36.31603" pt_clust_10="39.47204"></scales>
<clustering>
<clus scale="   36.316">  1  9  2 -1</clus>
<clus scale="   39.472">  2 10  1 -1</clus>
<clus scale="   80.406">  5  6 -1 -1</clus>
<clus scale="   90.968">  7  8 -1 -1</clus>
<clus scale="  128.675">  1  5  2 -1</clus>
<clus scale="   39.472">  2  5  1 -1</clus>
</clustering>
</event>
<event>
10    2  0.3544405E-006  0.1296920E+03  0.7546771E-02  0.1228121E+00
         21   -1    0    0  501  502  0.00000000000E+00  0.00000000000E+00  0.52480975847E+03  0.52480975847E+03  0.00000000000E+00 0.  1.
          1   -1    0    0  503    0 -0.00000000000E+00 -0.00000000000E+00 -0.31983286344E+03  0.31983286344E+03  0.00000000000E+00 0. -1.
         23    2    1    2    0    0 -0.28184189106E+02 -0.88537674922E+02 -0.25860547681E+03  0.28886538738E+03  0.89068237854E+02 0.  0.
         23    2    1    2    0    0 -0.12300351769E+02  0.11848945461E+03  0.40199151594E+03  0.42879559082E+03  0.89874525343E+02 0.  0.
        -11    1    3    3    0    0 -0.32815639202E+02 -0.79610516654E+01 -0.14883253900E+03  0.15261510144E+03  0.00000000000E+00 0. -1.
         11    1    3    3    0    0  0.46314500968E+01 -0.80576623257E+02 -0.10977293780E+03  0.13625028594E+03  0.00000000000E+00 0.  1.
        -13    1    4    4    0    0 -0.23314271542E+02  0.24250549035E+02  0.30597809687E+02  0.45473842412E+02  0.00000000000E+00 0. -1.
         13    1    4    4    0    0  0.11013919774E+02  0.94238905571E+02  0.37139370626E+03  0.38332174840E+03  0.00000000000E+00 0.  1.
         21    1    1    2  503  502  0.73550976594E+02 -0.21235499919E+02  0.46775924411E+02  0.89714434286E+02  0.00000000000E+00 0.  1.
          1    1    1    2  501    0 -0.33066435720E+02 -0.87162797646E+01  0.14814931477E+02  0.37267209431E+02  0.00000000000E+00 0. -1.
<scales pt_clust_5="13000.00000" pt_clust_6="13000.00000" pt_clust_7="13000.00000" pt_clust_8="13000.00000" pt_clust_9="72.57886" pt_clust_10="34.19595"></scales>
<clustering>
<clus scale="   34.196">  1 10  2 -1</clus>
<clus scale="   72.579">  1  9  2 -1</clus>
<clus scale="   89.068">  5  6 -1 -1</clus>
<clus scale="   89.875">  7  8 -1 -1</clus>
<clus scale="  129.135">  2  5  1 -1</clus>
<clus scale="   34.196">  1  5  2 -1</clus>
</clustering>
</event>
<event>
10    2  0.3544405E-006  0.1046352E+03  0.7546771E-02  0.1278478E+00
         21   -1    0    0  501  502  0.00000000000E+00  0.00000000000E+00  0.64474046642E+03  0.64474046642E+03  0.00000000000E+00 0.  1.
          1   -1    0    0  503    0 -0.00000000000E+00 -0.00000000000E+00 -0.29908124367E+02  0.29908124367E+02  0.00000000000E+00 0. -1.
         23    2    1    2    0    0 -0.91724507748E+01  0.46447005913E+02  0.12777913170E+03  0.15802402900E+03  0.80016429752E+02 0.  0.
         23    2    1    2    0    0  0.25607347205E+01 -0.54675790412E+02  0.35282949297E+03  0.36968862779E+03  0.95838567317E+02 0.  0.
        -11    1    4    4    0    0  0.20489228082E+02 -0.75971817432E+02  0.21194346451E+03  0.22607865370E+03  0.00000000000E+00 0.  1.
         11    1    4    4    0    0 -0.17928493362E+02  0.21296027020E+02  0.14088602847E+03  0.14360997409E+03  0.00000000000E+00 0. -1.
        -13    1    3    3    0    0 -0.49663204035E+01 -0.21703326593E+02  0.48686551080E+02  0.53535772896E+02  0.00000000000E+00 0.  1.
         13    1    3    3    0    0 -0.42061303713E+01  0.68150332506E+02  0.79092580622E+02  0.10448825610E+03  0.00000000000E+00 0. -1.
         21    1    1    2  503  502 -0.31689852220E+01 -0.22691237238E+02  0.29782878564E+02  0.37575983956E+02  0.00000000000E+00 0.  1.
          1    1    1    2  501    0  0.97807012763E+01  0.30920021737E+02  0.10444083882E+03  0.10935995005E+03  0.00000000000E+00 0. -1.
<scales pt_clust_5="13000.00000" pt_clust_6="13000.00000" pt_clust_7="13000.00000" pt_clust_8="13000.00000" pt_clust_9="22.91145" pt_clust_10="30.29617"></scales>
<clustering>
<clus scale="   22.911">  2  9  1 -1</clus>
<clus scale="   30.296">  1 10  2 -1</clus>
<clus scale="   80.016">  7  8 -1 -1</clus>
<clus scale="   90.367">  2  7  1 -1</clus>
<clus scale="   95.839">  5  6 -1 -1</clus>
<clus scale="   30.296">  1  5  2 -1</clus>
</clustering>
</event>
<event>
10    2  0.6584056E-006  0.1253603E+03  0.7546771E-02  0.1234591E+00
         21   -1    0    0  503  502  0.00000000000E+00  0.00000000000E+00  0.25792351446E+03  0.25792351446E+03  0.00000000000E+00 0.  1.
         -3   -1    0    0    0  501 -0.00000000000E+00 -0.00000000000E+00 -0.40969967039E+03  0.40969967039E+03  0.00000000000E+00 0.  1.
         23    2    1    2    0    0  0.31454356589E+02  0.62009993547E+02 -0.33834218086E+03  0.35743283964E+03  0.91914023155E+02 0.  0.
         23    2    1    2    0    0  0.17642397146E+02 -0.93239876102E+02  0.59522405480E+02  0.14471499398E+03  0.91621962740E+02 0.  0.
        -13    1    4    4    0    0  0.31558958929E+02  0.55624149271E+01  0.16707641406E+02  0.36139363994E+02  0.00000000000E+00 0.  1.
         13    1    4    4    0    0 -0.13916561784E+02 -0.98802291029E+02  0.42814764074E+02  0.10857562999E+03  0.00000000000E+00 0. -1.
        -13    1    3    3    0    0  0.46784769740E+02  0.32173091496E+02 -0.30462406344E+03  0.30987052542E+03  0.00000000000E+00 0.  1.
         13    1    3    3    0    0 -0.15330413152E+02  0.29836902051E+02 -0.33718117422E+02  0.47562314219E+02  0.00000000000E+00 0. -1.
         21    1    1    2  503  501 -0.69124408954E+01  0.22340117962E+02 -0.72087223367E+01  0.24470970300E+02  0.00000000000E+00 0. -1.
         -3    1    1    2    0  502 -0.42184312839E+02  0.88897645926E+01  0.13425234179E+03  0.14100438093E+03  0.00000000000E+00 0.  1.
<scales pt_clust_5="13000.00000" pt_clust_6="13000.00000" pt_clust_7="13000.00000" pt_clust_8="13000.00000" pt_clust_9="23.38510" pt_clust_10="43.20866"></scales>
<clustering>
<clus scale="   23.385">  2  9  1 -1</clus>
<clus scale="   43.209">  1 10  2 -1</clus>
<clus scale="   91.622">  5  6 -1 -1</clus>
<clus scale="   91.914">  7  8 -1 -1</clus>
<clus scale="  125.146">  1  5  2 -1</clus>
<clus scale="   43.209">  1  5  2 -1</clus>
</clustering>
</event>
<event>
10    2  0.3544405E-006  0.1026349E+03  0.7546771E-02  0.1275440E+00
         -1   -1    0    0    0  501 -0.00000000000E+00  0.00000000000E+00  0.15138110597E+03  0.15138110597E+03  0.00000000000E+00 0.  1.
         21   -1    0    0  503  502  0.00000000000E+00 -0.00000000000E+00 -0.37001547087E+03  0.37001547087E+03  0.00000000000E+00 0. -1.
         23    2    1    2    0    0 -0.52049160149E+02 -0.62331377990E+02  0.63185290594E+02  0.13771265177E+03  0.91531840118E+02 0.  0.
         23    2    1    2    0    0  0.17231901485E+01 -0.52359695020E+02 -0.17401702296E+03  0.20290154146E+03  0.90236379578E+02 0.  0.
        -11    1    4    4    0    0  0.28032857430E+02  0.57714017534E+01 -0.10533371287E+03  0.10915283432E+03  0.00000000000E+00 0. -1.
         11    1    4    4    0    0 -0.26309667282E+02 -0.58131096773E+02 -0.68683310092E+02  0.93748707136E+02  0.00000000000E+00 0.  1.
        -13    1    3    3    0    0  0.22655596781E+02  0.12649209565E+01  0.37321609884E+01  0.22995763005E+02  0.00000000000E+00 0.  1.
         13    1    3    3    0    0 -0.74704756931E+02 -0.63596298947E+02  0.59453129606E+02  0.11471688876E+03  0.00000000000E+00 0. -1.
         21    1    1    2  503  501  0.88322545449E+01  0.26264621998E+02  0.84233911256E+01  0.28961916496E+02  0.00000000000E+00 0.  1.
         -1    1    1    2    0  502  0.41493715456E+02  0.88426451012E+02 -0.11622602366E+03  0.15182046712E+03  0.00000000000E+00 0.  1.
<scales pt_clust_5="13000.00000" pt_clust_6="13000.00000" pt_clust_7="13000.00000" pt_clust_8="13000.00000" pt_clust_9="27.70991" pt_clust_10="101.37116"></scales>
<clustering>
<clus scale="   27.710">  1  9  2 -1</clus>
<clus scale="   90.236">  5  6 -1 -1</clus>
<clus scale="   91.532">  7  8 -1 -1</clus>
<clus scale="  101.371">  2 10  1 -1</clus>
<clus scale="  101.481">  2  5  1 -1</clus>
<clus scale="  101.371">  2  5  1 -1</clus>
</clustering>
</event>
<event>
10    2  0.3544405E-006  0.1140298E+03  0.7546771E-02  0.1257361E+00
         21   -1    0    0  501  502  0.00000000000E+00  0.00000000000E+00  0.17786773051E+03  0.17786773051E+03  0.00000000000E+00 0. -1.
          1   -1    0    0  503    0 -0.00000000000E+00 -0.00000000000E+00 -0.84501507682E+03  0.84501507682E+03  0.00000000000E+00 0. -1.
         23    2    1    2    0    0 -0.54894275426E+02 -0.17669641583E+01 -0.32581348289E+03  0.34097989919E+03  0.84239909686E+02 0.  0.
         23    2    1    2    0    0  0.45048166684E+02 -0.67646290679E+02 -0.24437428136E+03  0.27451686638E+03  0.95054524228E+02 0.  0.
        -13    1    4    4    0    0 -0.90962385095E+01 -0.63866384378E+02 -0.17447516559E+03  0.18601946139E+03  0.00000000000E+00 0. -1.
         13    1    4    4    0    0  0.54144405193E+02 -0.37799063006E+01 -0.69899115764E+02  0.88497404990E+02  0.00000000000E+00 0.  1.
        -13    1    3    3    0    0 -0.74013017860E+02  0.14529149164E+02 -0.24178098874E+03  0.25327271765E+03  0.00000000000E+00 0. -1.
         13    1    3    3    0    0  0.19118742434E+02 -0.16296113323E+02 -0.84032494152E+02  0.87707181548E+02  0.00000000000E+00 0.  1.
         21    1    1    2  503  502 -0.11230710446E+02  0.56943334803E+02 -0.24783273218E+03  0.25453827880E+03  0.00000000000E+00 0.  1.
          1    1    1    2  501    0  0.21076819188E+02  0.12469920034E+02  0.15087315012E+03  0.15284776295E+03  0.00000000000E+00 0. -1.
<scales pt_clust_5="13000.00000" pt_clust_6="13000.00000" pt_clust_7="13000.00000" pt_clust_8="13000.00000" pt_clust_9="59.16663" pt_clust_10="24.48941"></scales>
<clustering>
<clus scale="   24.489">  1 10  2 -1</clus>
<clus scale="   59.167">  2  9  1 -1</clus>
<clus scale="   84.240">  7  8 -1 -1</clus>
<clus scale="   95.055">  5  6 -1 -1</clus>
<clus scale="  105.185">  2  7  1 -1</clus>
<clus scale="   24.489">  1  5  2 -1</clus>
</clustering>
</event>
<event>
10    2  0.3544405E-006  0.1380835E+03  0.7546771E-02  0.1216403E+00
          2   -1    0    0  503    0 -0.00000000000E+00  0.00000000000E+00  0.69397004096E+03  0.69397004096E+03  0.00000000000E+00 0. -1.
         21   -1    0    0  501  502  0.00000000000E+00 -0.00000000000E+00 -0.48085461016E+02  0.48085461016E+02  0.00000000000E+00 0.  1.
         23    2    1    2    0    0 -0.92189971831E+02 -0.51948853641E+01  0.29016020606E+03  0.31776542221E+03  0.90862206857E+02 0.  0.
         23    2    1    2    0    0  0.11119959926E+03 -0.39858943229E+01  0.26401523363E+03  0.30119392656E+03  0.92911245721E+02 0.  0.
        -13    1    4    4    0    0  0.69802048215E+02 -0.14547413308E+01  0.24645757899E+03  0.25615577380E+03  0.00000000000E+00 0. -1.
         13    1    4    4    0    0  0.41397551049E+02 -0.25311529921E+01  0.17557654637E+02  0.45038152767E+02  0.00000000000E+00 0.  1.
        -13    1    3    3    0    0 -0.38793358228E+02  0.40513731348E+02  0.16426362807E+03  0.17357657266E+03  0.00000000000E+00 0. -1.
         13    1    3    3    0    0 -0.53396613603E+02 -0.45708616712E+02  0.12589657799E+03  0.14418884955E+03  0.00000000000E+00 0.  1.
         21    1    1    2  503  502 -0.22753311584E+02 -0.14015272952E+02  0.95613456891E+02  0.99277762880E+02  0.00000000000E+00 0. -1.
          2    1    1    2  501    0  0.37436841513E+01  0.23196052639E+02 -0.39043166318E+01  0.23818390319E+02  0.00000000000E+00 0. -1.
<scales pt_clust_5="13000.00000" pt_clust_6="13000.00000" pt_clust_7="13000.00000" pt_clust_8="13000.00000" pt_clust_9="25.91902" pt_clust_10="23.49621"></scales>
<clustering>
<clus scale="   23.496">  2 10  1 -1</clus>
<clus scale="   25.919">  1  9  2 -1</clus>
<clus scale="   90.862">  7  8 -1 -1</clus>
<clus scale="   92.911">  5  6 -1 -1</clus>
<clus scale="  136.713">  1  7  2 -1</clus>
<clus scale="   23.496">  2  5  1 -1</clus>
</clustering>
</event>
<event>
10    2  0.3544405E-006  0.2186107E+03  0.7546771E-02  0.1135215E+00
          2   -1    0    0  503    0 -0.00000000000E+00  0.00000000000E+00  0.15133381765E+04  0.15133381765E+04  0.00000000000E+00 0. -1.
         21   -1    0    0  501  502  0.00000000000E+00 -0.00000000000E+00 -0.46498193315E+03  0.46498193315E+03  0.00000000000E+00 0. -1.
         23    2    1    2    0    0 -0.10920474650E+03 -0.17552063791E+03  0.48339207256E+03  0.53412921546E+03  0.94302449621E+02 0.  0.
         23    2    1    2    0    0 -0.14407714929E+02  0.20165835276E+03 -0.25802362917E+03  0.34010241221E+03  0.90663024959E+02 0.  0.
        -11    1    3    3    0    0 -0.69877226249E+02 -0.33527236552E+02  0.13156992932E+03  0.15270084689E+03  0.00000000000E+00 0.  1.
         11    1    3    3    0    0 -0.39327520253E+02 -0.14199340136E+03  0.35182214324E+03  0.38142836857E+03  0.00000000000E+00 0. -1.
        -13    1    4    4    0    0  0.31161882283E+02  0.14264897255E+03 -0.18571183361E+03  0.23623860273E+03  0.00000000000E+00 0.  1.
         13    1    4    4    0    0 -0.45569597212E+02  0.59009380212E+02 -0.72311795555E+02  0.10386380948E+03  0.00000000000E+00 0. -1.
         21    1    1    2  503  502  0.15682912198E+03 -0.20001079297E+02  0.95491052989E+03  0.96790988050E+03  0.00000000000E+00 0. -1.
          2    1    1    2  501    0 -0.33216660547E+02 -0.61366355530E+01 -0.13192272992E+03  0.13617860149E+03  0.00000000000E+00 0. -1.
<scales pt_clust_5="13000.00000" pt_clust_6="13000.00000" pt_clust_7="13000.00000" pt_clust_8="13000.00000" pt_clust_9="157.46761" pt_clust_10="33.77876"></scales>
<clustering>
<clus scale="   33.779">  2 10  1 -1</clus>
<clus scale="   90.663">  7  8 -1 -1</clus>
<clus scale="   94.302">  5  6 -1 -1</clus>
<clus scale="  157.468">  1  9  2 -1</clus>
<clus scale="  217.066">  2  7  1 -1</clus>
<clus scale="   33.779">  2  5  1 -1</clus>
</clustering>
</event>
<event>
10    2  0.3544405E-006  0.1871285E+03  0.7546771E-02  0.1161089E+00
          1   -1    0    0  503    0 -0.00000000000E+00  0.00000000000E+00  0.17165456910E+03  0.17165456910E+03  0.00000000000E+00 0. -1.
         21   -1    0    0  501  502  0.00000000000E+00 -0.00000000000E+00 -0.33097187375E+03  0.33097187375E+03  0.00000000000E+00 0. -1.
         23    2    1    2    0    0 -0.13871028870E+03 -0.10822073410E+03 -0.35864134702E+02  0.20153995740E+03  0.91541503095E+02 0.  0.
         23    2    1    2    0    0  0.11444756524E+03  0.82369767155E+02 -0.12063465520E+03  0.20696638057E+03  0.91647907336E+02 0.  0.
        -11    1    3    3    0    0 -0.12915394435E+03 -0.55015693293E+02 -0.77190567478E+01  0.14059534732E+03  0.00000000000E+00 0. -1.
         11    1    3    3    0    0 -0.95563443497E+01 -0.53205040809E+02 -0.28145077954E+02  0.60944610080E+02  0.00000000000E+00 0.  1.
        -13    1    4    4    0    0  0.44163301631E+02  0.17222192712E+02 -0.97451047929E+02  0.10836838965E+03  0.00000000000E+00 0.  1.
         13    1    4    4    0    0  0.70284263608E+02  0.65147574443E+02 -0.23183607272E+02  0.98597990917E+02  0.00000000000E+00 0. -1.
         21    1    1    2  503  502 -0.26425492738E+02  0.31765155273E+01  0.20798025195E+02  0.33778021986E+02  0.00000000000E+00 0. -1.
          1    1    1    2  501    0  0.50688216202E+02  0.22674451420E+02 -0.23616539940E+02  0.60342082892E+02  0.00000000000E+00 0. -1.
<scales pt_clust_5="13000.00000" pt_clust_6="13000.00000" pt_clust_7="13000.00000" pt_clust_8="13000.00000" pt_clust_9="26.61573" pt_clust_10="52.65421"></scales>
<clustering>
<clus scale="   26.616">  1  9  2 -1</clus>
<clus scale="   52.654">  2 10  1 -1</clus>
<clus scale="   91.542">  5  6 -1 -1</clus>
<clus scale="   91.648">  7  8 -1 -1</clus>
<clus scale="  187.076">  1  5  2 -1</clus>
<clus scale="   52.654">  2  5  1 -1</clus>
</clustering>
</event>
<event>
10    2  0.3544405E-006  0.1140765E+03  0.7546771E-02  0.1254175E+00
         21   -1    0    0  501  502  0.00000000000E+00  0.00000000000E+00  0.54816509743E+02  0.54816509743E+02  0.00000000000E+00 0.  1.
          4   -1    0    0  503    0 -0.00000000000E+00 -0.00000000000E+00 -0.49523867918E+03  0.49523867918E+03  0.00000000000E+00 0. -1.
         23    2    1    2    0    0 -0.37978393294E+02  0.51307085370E+02 -0.29782242299E+03  0.31831867902E+03  0.92486812102E+02 0.  0.
         23    2    1    2    0    0  0.48934243831E+02 -0.43792230474E+02 -0.64198256785E+02  0.12842910266E+03  0.89779165551E+02 0.  0.
        -13    1    4    4    0    0 -0.58248707020E+01 -0.39708973501E+02  0.46080790095E+01  0.40397600019E+02  0.00000000000E+00 0.  1.
         13    1    4    4    0    0  0.54759114533E+02 -0.40832569732E+01 -0.68806335794E+02  0.88031502642E+02  0.00000000000E+00 0. -1.
        -13    1    3    3    0    0 -0.69150132188E+01 -0.23005037243E+02 -0.12961392443E+03  0.13182116124E+03  0.00000000000E+00 0.  1.
         13    1    3    3    0    0 -0.31063380075E+02  0.74312122612E+02 -0.16820849856E+03  0.18649751778E+03  0.00000000000E+00 0. -1.
         21    1    1    2  503  502  0.17481487740E+02  0.20213844755E+02 -0.39657434683E+02  0.47821690257E+02  0.00000000000E+00 0.  1.
          4    1    1    2  501    0 -0.28437338278E+02 -0.27728699651E+02 -0.38744054978E+02  0.55485716981E+02  0.00000000000E+00 0. -1.
<scales pt_clust_5="13000.00000" pt_clust_6="13000.00000" pt_clust_7="13000.00000" pt_clust_8="13000.00000" pt_clust_9="26.72456" pt_clust_10="36.94060"></scales>
<clustering>
<clus scale="   26.725">  2  9  1 -1</clus>
<clus scale="   36.941">  1 10  2 -1</clus>
<clus scale="   89.779">  5  6 -1 -1</clus>
<clus scale="   92.487">  7  8 -1 -1</clus>
<clus scale="  111.893">  1  5  2 -1</clus>
<clus scale="   36.941">  1  5  2 -1</clus>
</clustering>
</event>
<event>
10    2  0.3544405E-006  0.1313906E+03  0.7546771E-02  0.1241908E+00
         -1   -1    0    0    0  501 -0.00000000000E+00  0.00000000000E+00  0.25148774403E+03  0.25148774403E+03  0.00000000000E+00 0.  1.
         21   -1    0    0  503  502  0.00000000000E+00 -0.00000000000E+00 -0.32181956105E+03  0.32181956105E+03  0.00000000000E+00 0. -1.
         23    2    1    2    0    0 -0.38591093062E+01 -0.25197708946E+02  0.28811449004E+02  0.98493776460E+02  0.90670321202E+02 0.  0.
         23    2    1    2    0    0 -0.76593310062E+02  0.22193483924E+02 -0.17062889153E+03  0.20933568121E+03  0.91368062965E+02 0.  0.
        -11    1    3    3    0    0 -0.40144360765E+02  0.10688380909E+02  0.21996923419E+02  0.47007189105E+02  0.00000000000E+00 0.  1.
         11    1    3    3    0    0  0.36285251459E+02 -0.35886089854E+02  0.68145255845E+01  0.51486587354E+02  0.00000000000E+00 0. -1.
        -13    1    4    4    0    0 -0.39573070159E+02  0.44934827712E+02 -0.14945601763E+03  0.16100393731E+03  0.00000000000E+00 0. -1.
         13    1    4    4    0    0 -0.37020239903E+02 -0.22741343788E+02 -0.21172873900E+02  0.48331743906E+02  0.00000000000E+00 0.  1.
         21    1    1    2  503  501  0.94332846744E+02 -0.14418095254E+02  0.15336055191E+03  0.18062675972E+03  0.00000000000E+00 0.  1.
         -1    1    1    2    0  502 -0.13880427376E+02  0.17422320276E+02 -0.81874926409E+02  0.84851087691E+02  0.00000000000E+00 0.  1.
<scales pt_clust_5="13000.00000" pt_clust_6="13000.00000" pt_clust_7="13000.00000" pt_clust_8="13000.00000" pt_clust_9="94.42124" pt_clust_10="22.27563"></scales>
<clustering>
<clus scale="   22.276">  2 10  1 -1</clus>
<clus scale="   90.670">  5  6 -1 -1</clus>
<clus scale="   91.368">  7  8 -1 -1</clus>
<clus scale="   93.642">  1  5  2 -1</clus>
<clus scale="   94.421">  1  9  2 -1</clus>
<clus scale="   22.276">  2  5  1 -1</clus>
</clustering>
</event>
<event>
10    2  0.3544405E-006  0.9590730E+02  0.7546771E-02  0.1290610E+00
         21   -1    0    0  501  502  0.00000000000E+00  0.00000000000E+00  0.14439196305E+03  0.14439196305E+03  0.00000000000E+00 0. -1.
          3   -1    0    0  503    0 -0.00000000000E+00 -0.00000000000E+00 -0.52491834496E+03  0.52491834496E+03  0.00000000000E+00 0. -1.
         23    2    1    2    0    0  0.11575857169E+02 -0.49241388109E+02 -0.26654147309E+03  0.28595122844E+03  0.90360574349E+02 0.  0.
         23    2    1    2    0    0  0.74475314905E+01 -0.33285060799E+00 -0.16195673942E+03  0.18692718275E+03  0.93038753714E+02 0.  0.
        -11    1    4    4    0    0  0.63001602102E+01 -0.43771771285E+02 -0.49554052866E+02  0.66417348152E+02  0.00000000000E+00 0.  1.
         11    1    4    4    0    0  0.11473712804E+01  0.43438920677E+02 -0.11240268655E+03  0.12050983460E+03  0.00000000000E+00 0. -1.
        -13    1    3    3    0    0 -0.32563201481E+02 -0.49547374065E+02 -0.14578556992E+03  0.15738086531E+03  0.00000000000E+00 0.  1.
         13    1    3    3    0    0  0.44139058650E+02  0.30598595601E+00 -0.12075590317E+03  0.12857036313E+03  0.00000000000E+00 0. -1.
         21    1    1    2  503  502 -0.21568852824E+02  0.24944370760E+02 -0.69208920991E+02  0.76663627553E+02  0.00000000000E+00 0.  1.
          3    1    1    2  501    0  0.25454641649E+01  0.24629867957E+02  0.11718075158E+03  0.11976826928E+03  0.00000000000E+00 0. -1.
<scales pt_clust_5="13000.00000" pt_clust_6="13000.00000" pt_clust_7="13000.00000" pt_clust_8="13000.00000" pt_clust_9="35.51114" pt_clust_10="24.76105"></scales>
<clustering>
<clus scale="   24.761">  1 10  2 -1</clus>
<clus scale="   35.511">  2  9  1 -1</clus>
<clus scale="   90.361">  7  8 -1 -1</clus>
<clus scale="   93.039">  5  6 -1 -1</clus>
<clus scale="   93.311">  2  7  1 -1</clus>
<clus scale="   24.761">  1  5  2 -1</clus>
</clustering>
</event>
<event>
10    2  0.3544405E-006  0.9618133E+02  0.7546771E-02  0.1288848E+00
         21   -1    0    0  503  502  0.00000000000E+00  0.00000000000E+00  0.18745447219E+03  0.18745447219E+03  0.00000000000E+00 0.  1.
         -1   -1    0    0    0  501 -0.00000000000E+00 -0.00000000000E+00 -0.14022965946E+03  0.14022965946E+03  0.00000000000E+00 0.  1.
         23    2    1    2    0    0  0.14528531556E+02 -0.13710404803E+02 -0.62210312688E+01  0.93113402887E+02  0.90732304821E+02 0.  0.
         23    2    1    2    0    0 -0.39530131611E+02 -0.15794411512E+02  0.71359340729E+02  0.12346546402E+03  0.91320701681E+02 0.  0.
        -11    1    4    4    0    0 -0.40970041975E+02 -0.50762337923E+02  0.52330767595E+02  0.83629352072E+02  0.00000000000E+00 0.  1.
         11    1    4    4    0    0  0.14399103646E+01  0.34967926411E+02  0.19028573135E+02  0.39836111945E+02  0.00000000000E+00 0. -1.
        -13    1    3    3    0    0 -0.29436625187E+02  0.11246492388E+02  0.18812351211E+02  0.36700177813E+02  0.00000000000E+00 0. -1.
         13    1    3    3    0    0  0.43965156744E+02 -0.24956897190E+02 -0.25033382480E+02  0.56413225074E+02  0.00000000000E+00 0.  1.
         21    1    1    2  503  501  0.23389401989E+02  0.13741334648E+00 -0.57334143400E+02  0.61921619869E+02  0.00000000000E+00 0.  1.
         -1    1    1    2    0  502  0.16121980656E+01  0.29367402968E+02  0.39420646671E+02  0.49183644880E+02  0.00000000000E+00 0.  1.
<scales pt_clust_5="13000.00000" pt_clust_6="13000.00000" pt_clust_7="13000.00000" pt_clust_8="13000.00000" pt_clust_9="23.38981" pt_clust_10="29.53145"></scales>
<clustering>
<clus scale="   23.390">  2  9  1 -1</clus>
<clus scale="   29.531">  1 10  2 -1</clus>
<clus scale="   90.732">  7  8 -1 -1</clus>
<clus scale="   91.321">  5  6 -1 -1</clus>
<clus scale="   95.623">  2  7  1 -1</clus>
<clus scale="   29.531">  1  5  2 -1</clus>
</clustering>
</event>
<event>
10    2  0.3544405E-006  0.1154350E+03  0.7546771E-02  0.1255822E+00
         -4   -1    0    0    0  501 -0.00000000000E+00  0.00000000000E+00  0.85675949248E+02  0.85675949248E+02  0.00000000000E+00 0. -1.
         21   -1    0    0  503  502  0.00000000000E+00 -0.00000000000E+00 -0.34531074680E+03  0.34531074680E+03  0.00000000000E+00 0.  1.
         23    2    1    2    0    0  0.51513780590E+02 -0.11167805791E+02  0.42454282006E+01  0.11038202713E+03  0.96890550499E+02 0.  0.
         23    2    1    2    0    0 -0.47874150550E+02 -0.10791105730E+02 -0.23239143368E+03  0.25179623896E+03  0.83589384813E+02 0.  0.
        -11    1    4    4    0    0 -0.42822422275E+01 -0.36845975156E+02 -0.15390735133E+03  0.15831435904E+03  0.00000000000E+00 0.  1.
         11    1    4    4    0    0 -0.43591908322E+02  0.26054869426E+02 -0.78484082354E+02  0.93481879928E+02  0.00000000000E+00 0. -1.
        -11    1    3    3    0    0  0.33920743451E+02 -0.28350540447E+02  0.44808991693E+02  0.62946133451E+02  0.00000000000E+00 0. -1.
         11    1    3    3    0    0  0.17593037139E+02  0.17182734656E+02 -0.40563563492E+02  0.47435893680E+02  0.00000000000E+00 0.  1.
         21    1    1    2  503  501  0.20376074234E+02 -0.20898906448E+01  0.26291945030E+01  0.20651021956E+02  0.00000000000E+00 0. -1.
         -4    1    1    2    0  502 -0.24015704274E+02  0.24048802165E+02 -0.34117986577E+02  0.48157408001E+02  0.00000000000E+00 0. -1.
<scales pt_clust_5="13000.00000" pt_clust_6="13000.00000" pt_clust_7="13000.00000" pt_clust_8="13000.00000" pt_clust_9="20.48297" pt_clust_10="32.50454"></scales>
<clustering>
<clus scale="   20.483">  1  9  2 -1</clus>
<clus scale="   32.505">  2 10  1 -1</clus>
<clus scale="   83.589">  5  6 -1 -1</clus>
<clus scale="   96.891">  7  8 -1 -1</clus>
<clus scale="  104.521">  2  5  1 -1</clus>
<clus scale="   32.505">  2  5  1 -1</clus>
</clustering>
</event>
<event>
10    2  0.3544405E-006  0.1140156E+03  0.7546771E-02  0.1254172E+00
          1   -1    0    0  503    0 -0.00000000000E+00  0.00000000000E+00  0.33618801118E+03  0.33618801118E+03  0.00000000000E+00 0. -1.
         21   -1    0    0  501  502  0.00000000000E+00 -0.00000000000E+00 -0.30811066184E+03  0.30811066184E+03  0.00000000000E+00 0. -1.
         23    2    1    2    0    0  0.25253564727E+02  0.88070557973E+02  0.82253604500E+02  0.15181319130E+03  0.88811169825E+02 0.  0.
         23    2    1    2    0    0 -0.18142832328E+02 -0.40221413697E+02  0.17036430245E+02  0.10277291183E+03  0.91242024127E+02 0.  0.
        -11    1    3    3    0    0  0.54920649355E+02  0.55203516509E+02  0.30312265597E+02  0.83561590496E+02  0.00000000000E+00 0.  1.
         11    1    3    3    0    0 -0.29667084629E+02  0.32867041464E+02  0.51941338903E+02  0.68251600802E+02  0.00000000000E+00 0. -1.
        -13    1    4    4    0    0  0.30245593855E+02  0.64961787410E+01  0.17437064689E+02  0.35511230771E+02  0.00000000000E+00 0.  1.
         13    1    4    4    0    0 -0.48388426182E+02 -0.46717592438E+02 -0.40063444361E+00  0.67261681064E+02  0.00000000000E+00 0. -1.
         21    1    1    2  503  502 -0.38661053742E+02 -0.28797477457E+01  0.15353236127E+03  0.15835136873E+03  0.00000000000E+00 0.  1.
          1    1    1    2  501    0  0.31550321342E+02 -0.44969396531E+02 -0.22474504667E+03  0.23136120116E+03  0.00000000000E+00 0. -1.
<scales pt_clust_5="13000.00000" pt_clust_6="13000.00000" pt_clust_7="13000.00000" pt_clust_8="13000.00000" pt_clust_9="38.76816" pt_clust_10="54.57248"></scales>
<clustering>
<clus scale="   38.768">  1  9  2 -1</clus>
<clus scale="   54.572">  2 10  1 -1</clus>
<clus scale="   88.811">  5  6 -1 -1</clus>
<clus scale="   91.242">  7  8 -1 -1</clus>
<clus scale="  112.080">  1  5  2 -1</clus>
<clus scale="   54.572">  2  5  1 -1</clus>
</clustering>
</event>
<event>
10    2  0.3544405E-006  0.9633004E+02  0.7546771E-02  0.1300747E+00
          1   -1    0    0  503    0 -0.00000000000E+00  0.00000000000E+00  0.34292962625E+03  0.34292962625E+03  0.00000000000E+00 0. -1.
         21   -1    0    0  501  502  0.00000000000E+00 -0.00000000000E+00 -0.32245841628E+03  0.32245841628E+03  0.00000000000E+00 0. -1.
         23    2    1    2    0    0 -0.14449202987E+02  0.79527670603E+01  0.13185418124E+03  0.14905663753E+03  0.67530216278E+02 0.  0.
         23    2    1    2    0    0  0.79796774211E+02 -0.43426005222E+02  0.13739681085E+03  0.18748422203E+03  0.89549465518E+02 0.  0.
        -11    1    4    4    0    0  0.30796409660E+02 -0.51142437951E+02  0.25178485852E+02  0.64791387987E+02  0.00000000000E+00 0.  1.
         11    1    4    4    0    0  0.49000364551E+02  0.77164327289E+01  0.11221832500E+03  0.12269283404E+03  0.00000000000E+00 0. -1.
        -11    1    3    3    0    0  0.14028933674E+02 -0.23293085741E+02  0.48953581411E+02  0.55998499590E+02  0.00000000000E+00 0.  1.
         11    1    3    3    0    0 -0.28478136661E+02  0.31245852801E+02  0.82900599829E+02  0.93058137940E+02  0.00000000000E+00 0. -1.
         21    1    1    2  503  502 -0.55566429433E+02  0.33235142429E+01  0.19112495911E+02  0.58855427335E+02  0.00000000000E+00 0.  1.
          1    1    1    2  501    0 -0.97811417907E+01  0.32149723919E+02 -0.26789227803E+03  0.26999175564E+03  0.00000000000E+00 0. -1.
<scales pt_clust_5="13000.00000" pt_clust_6="13000.00000" pt_clust_7="13000.00000" pt_clust_8="13000.00000" pt_clust_9="61.13383" pt_clust_10="33.60469"></scales>
<clustering>
<clus scale="   33.605">  2 10  1 -1</clus>
<clus scale="   61.134">  2  9  1 -1</clus>
<clus scale="   67.530">  7  8 -1 -1</clus>
<clus scale="   76.294">  1  7  2 -1</clus>
<clus scale="   89.549">  5  6 -1 -1</clus>
<clus scale="   33.605">  2  5  1 -1</clus>
</clustering>
</event>
<event>
10    2  0.3544405E-006  0.1803486E+03  0.7546771E-02  0.1167493E+00
         21   -1    0    0  503  502  0.00000000000E+00  0.00000000000E+00  0.23096100086E+03  0.23096100086E+03  0.00000000000E+00 0.  1.
         -3   -1    0    0    0  501 -0.00000000000E+00 -0.00000000000E+00 -0.66305864545E+03  0.66305864545E+03  0.00000000000E+00 0.  1.
         23    2    1    2    0    0 -0.17215617015E+01 -0.15901134037E+03 -0.20082859081E+03  0.27132241583E+03  0.89421251973E+02 0.  0.
         23    2    1    2    0    0 -0.11668060309E+03  0.14080248737E+03 -0.22145904974E+03  0.30073241156E+03  0.89197360183E+02 0.  0.
        -11    1    4    4    0    0 -0.82840608780E+02  0.73139180045E+02 -0.18786200949E+03  0.21795421705E+03  0.00000000000E+00 0. -1.
         11    1    4    4    0    0 -0.33839994315E+02  0.67663307322E+02 -0.33597040256E+02  0.82778194513E+02  0.00000000000E+00 0.  1.
        -13    1    3    3    0    0  0.93344261790E+00 -0.10696465868E+03 -0.19007917756E+03  0.21811098841E+03  0.00000000000E+00 0.  1.
         13    1    3    3    0    0 -0.26550043194E+01 -0.52046681692E+02 -0.10749413245E+02  0.53211427421E+02  0.00000000000E+00 0. -1.
         21    1    1    2  503  501  0.97001941448E+01  0.37402928685E+02 -0.14348985563E+03  0.14860151921E+03  0.00000000000E+00 0. -1.
         -3    1    1    2    0  502  0.10870197065E+03 -0.19194075678E+02  0.13367985159E+03  0.17336329971E+03  0.00000000000E+00 0.  1.
<scales pt_clust_5="13000.00000" pt_clust_6="13000.00000" pt_clust_7="13000.00000" pt_clust_8="13000.00000" pt_clust_9="38.64030" pt_clust_10="110.51045"></scales>
<clustering>
<clus scale="   38.640">  2  9  1 -1</clus>
<clus scale="   89.197">  5  6 -1 -1</clus>
<clus scale="   89.421">  7  8 -1 -1</clus>
<clus scale="  110.510">  1 10  2 -1</clus>
<clus scale="  180.238">  1  5  2 -1</clus>
<clus scale="  110.510">  1  5  2 -1</clus>
</clustering>
</event>
<event>
10    2  0.3544405E-006  0.3395278E+03  0.7546771E-02  0.1067028E+00
         21   -1    0    0  501  502  0.00000000000E+00  0.00000000000E+00  0.10850277098E+03  0.10850277098E+03  0.00000000000E+00 0.  1.
          2   -1    0    0  503    0 -0.00000000000E+00 -0.00000000000E+00 -0.22783979609E+04  0.22783979609E+04  0.00000000000E+00 0. -1.
         23    2    1    2    0    0 -0.10831163471E+03  0.29996303002E+03 -0.11001483741E+04  0.11491904568E+04  0.92752527119E+02 0.  0.
         23    2    1    2    0    0  0.99174862757E+02 -0.31388269886E+03 -0.86327606265E+03  0.92844608186E+03  0.91698225327E+02 0.  0.
        -11    1    3    3    0    0 -0.57397002943E+02  0.17476645369E+03 -0.47009132692E+03  0.50480053974E+03  0.00000000000E+00 0.  1.
         11    1    3    3    0    0 -0.50914631764E+02  0.12519657634E+03 -0.63005704719E+03  0.64438991703E+03  0.00000000000E+00 0. -1.
        -13    1    4    4    0    0  0.46238866328E+02 -0.65911585346E+02 -0.30211085623E+03  0.31265530428E+03  0.00000000000E+00 0.  1.
         13    1    4    4    0    0  0.52935996429E+02 -0.24797111352E+03 -0.56116520643E+03  0.61579077759E+03  0.00000000000E+00 0. -1.
         21    1    1    2  503  502 -0.28047853167E+02  0.32008806190E+02 -0.24742875203E+03  0.25106220956E+03  0.00000000000E+00 0.  1.
          2    1    1    2  501    0  0.37184625117E+02 -0.18089137352E+02  0.40957998857E+02  0.58201983691E+02  0.00000000000E+00 0. -1.
<scales pt_clust_5="13000.00000" pt_clust_6="13000.00000" pt_clust_7="13000.00000" pt_clust_8="13000.00000" pt_clust_9="41.38663" pt_clust_10="41.35110"></scales>
<clustering>
<clus scale="   41.351">  1 10  2 -1</clus>
<clus scale="   41.387">  2  9  1 -1</clus>
<clus scale="   91.698">  7  8 -1 -1</clus>
<clus scale="   92.753">  5  6 -1 -1</clus>
<clus scale="  339.241">  1  7  2 -1</clus>
<clus scale="   41.351">  1  5  2 -1</clus>
</clustering>
</event>
<event>
10    2  0.3544405E-006  0.1711738E+03  0.7546771E-02  0.1176689E+00
         21   -1    0    0  501  502  0.00000000000E+00  0.00000000000E+00  0.13119306586E+03  0.13119306586E+03  0.00000000000E+00 0. -1.
          2   -1    0    0  503    0 -0.00000000000E+00 -0.00000000000E+00 -0.58286486312E+03  0.58286486312E+03  0.00000000000E+00 0. -1.
         23    2    1    2    0    0 -0.16884571902E+03  0.11790007232E+03 -0.35537854931E+03  0.42078823547E+03  0.91430421137E+02 0.  0.
         23    2    1    2    0    0  0.65727888833E+02 -0.55942054860E+02 -0.73584101065E+02  0.14541040161E+03  0.90993934375E+02 0.  0.
        -11    1    3    3    0    0 -0.10914581796E+03  0.83446754078E+02 -0.30769101943E+03  0.33697171065E+03  0.00000000000E+00 0. -1.
         11    1    3    3    0    0 -0.59699901068E+02  0.34453318240E+02 -0.47687529885E+02  0.83816524814E+02  0.00000000000E+00 0.  1.
        -11    1    4    4    0    0  0.65841215749E+02 -0.24940007101E+02 -0.55250963731E+01  0.70622916503E+02  0.00000000000E+00 0.  1.
         11    1    4    4    0    0 -0.11332691570E+00 -0.31002047760E+02 -0.68059004692E+02  0.74787485103E+02  0.00000000000E+00 0. -1.
         21    1    1    2  503  502  0.37735024891E+02  0.48107407705E+01 -0.37300426614E+02  0.53276609838E+02  0.00000000000E+00 0. -1.
          2    1    1    2  501    0  0.65382805301E+02 -0.66768758228E+02  0.14591279726E+02  0.94582682074E+02  0.00000000000E+00 0. -1.
<scales pt_clust_5="13000.00000" pt_clust_6="13000.00000" pt_clust_7="13000.00000" pt_clust_8="13000.00000" pt_clust_9="38.04044" pt_clust_10="95.18569"></scales>
<clustering>
<clus scale="   38.040">  2  9  1 -1</clus>
<clus scale="   90.994">  7  8 -1 -1</clus>
<clus scale="   91.430">  5  6 -1 -1</clus>
<clus scale="   95.186">  1 10  2 -1</clus>
<clus scale="  170.941">  1  7  2 -1</clus>
<clus scale="   95.186">  1  5  2 -1</clus>
</clustering>
</event>
<event>
10    2  0.3544405E-006  0.1955470E+03  0.7546771E-02  0.1153573E+00
          1   -1    0    0  503    0 -0.00000000000E+00  0.00000000000E+00  0.69071432522E+03  0.69071432522E+03  0.00000000000E+00 0. -1.
         21   -1    0    0  501  502  0.00000000000E+00 -0.00000000000E+00 -0.24134278595E+03  0.24134278595E+03  0.00000000000E+00 0. -1.
         23    2    1    2    0    0 -0.50642015911E+02 -0.14665847187E+03  0.24335622785E+03  0.30225932557E+03  0.89806041641E+02 0.  0.
         23    2    1    2    0    0  0.88483809303E+02  0.23935012153E+03  0.84023077710E+02  0.28334177097E+03  0.90026753808E+02 0.  0.
        -11    1    3    3    0    0 -0.73767253312E+02 -0.12884167913E+03  0.18679480737E+03  0.23860864612E+03  0.00000000000E+00 0.  1.
         11    1    3    3    0    0  0.23125237401E+02 -0.17816792744E+02  0.56561420473E+02  0.63650679450E+02  0.00000000000E+00 0. -1.
        -13    1    4    4    0    0  0.60313511073E+02  0.11162601293E+03 -0.18240085789E+01  0.12689134481E+03  0.00000000000E+00 0.  1.
         13    1    4    4    0    0  0.28170298230E+02  0.12772410861E+03  0.85847086289E+02  0.15645042616E+03  0.00000000000E+00 0. -1.
         21    1    1    2  503  502  0.89481137014E+02 -0.18155269821E+01  0.16192380189E+03  0.18501212835E+03  0.00000000000E+00 0. -1.
          1    1    1    2  501    0 -0.12732293041E+03 -0.90876122679E+02 -0.39931568175E+02  0.16144388628E+03  0.00000000000E+00 0. -1.
<scales pt_clust_5="13000.00000" pt_clust_6="13000.00000" pt_clust_7="13000.00000" pt_clust_8="13000.00000" pt_clust_9="89.49955" pt_clust_10="148.12972"></scales>
<clustering>
<clus scale="   89.500">  1  9  2 -1</clus>
<clus scale="   89.806">  5  6 -1 -1</clus>
<clus scale="   90.027">  7  8 -1 -1</clus>
<clus scale="  148.130">  2 10  1 -1</clus>
<clus scale="  195.446">  1  5  2 -1</clus>
<clus scale="  148.130">  2  5  1 -1</clus>
</clustering>
</event>
<event>
10    2  0.3544405E-006  0.1068088E+03  0.7546771E-02  0.1269663E+00
         21   -1    0    0  501  502  0.00000000000E+00  0.00000000000E+00  0.47572641436E+02  0.47572641436E+02  0.00000000000E+00 0.  1.
          2   -1    0    0  503    0 -0.00000000000E+00 -0.00000000000E+00 -0.57165748426E+03  0.57165748426E+03  0.00000000000E+00 0. -1.
         23    2    1    2    0    0 -0.26198916656E+02  0.42547737972E+01 -0.24217274967E+03  0.26405726782E+03  0.10185339303E+03 0.  0.
         23    2    1    2    0    0 -0.52937014892E+01 -0.38657884339E+02 -0.80337584124E+02  0.13065670706E+03  0.95365572292E+02 0.  0.
        -13    1    3    3    0    0 -0.51944773260E+02  0.31599211318E+02 -0.10023005822E+03  0.11722983492E+03  0.00000000000E+00 0.  1.
         13    1    3    3    0    0  0.25745856604E+02 -0.27344437521E+02 -0.14194269145E+03  0.14682743289E+03  0.00000000000E+00 0. -1.
        -13    1    4    4    0    0  0.19660821611E+02  0.26241154256E+02 -0.18751204147E+02  0.37772393889E+02  0.00000000000E+00 0. -1.
         13    1    4    4    0    0 -0.24954523100E+02 -0.64899038595E+02 -0.61586379978E+02  0.92884313167E+02  0.00000000000E+00 0.  1.
         21    1    1    2  503  502  0.10098022949E+02  0.40239693855E+02 -0.19769705251E+03  0.20200328611E+03  0.00000000000E+00 0.  1.
          2    1    1    2  501    0  0.21394595196E+02 -0.58365833141E+01 -0.38774565213E+01  0.22512864710E+02  0.00000000000E+00 0. -1.
<scales pt_clust_5="13000.00000" pt_clust_6="13000.00000" pt_clust_7="13000.00000" pt_clust_8="13000.00000" pt_clust_9="41.48063" pt_clust_10="22.17644"></scales>
<clustering>
<clus scale="   22.176">  1 10  2 -1</clus>
<clus scale="   41.481">  2  9  1 -1</clus>
<clus scale="   95.366">  7  8 -1 -1</clus>
<clus scale="  100.641">  1  7  2 -1</clus>
<clus scale="  101.853">  5  6 -1 -1</clus>
<clus scale="   22.176">  1  5  2 -1</clus>
</clustering>
</event>
<event>
10    2  0.3544405E-006  0.9877948E+02  0.7546771E-02  0.1284452E+00
          1   -1    0    0  503    0 -0.00000000000E+00  0.00000000000E+00  0.74991377629E+02  0.74991377629E+02  0.00000000000E+00 0. -1.
         21   -1    0    0  501  502  0.00000000000E+00 -0.00000000000E+00 -0.36381461079E+03  0.36381461079E+03  0.00000000000E+00 0.  1.
         23    2    1    2    0    0  0.12246481664E+02  0.31141113766E+02 -0.60267471646E+02  0.11407499747E+03  0.90891097639E+02 0.  0.
         23    2    1    2    0    0 -0.50183436071E+02 -0.16464561964E+02 -0.79911701020E+02  0.12990079526E+03  0.87743248128E+02 0.  0.
        -11    1    3    3    0    0  0.37468878607E+02  0.16934712552E+02  0.61947046929E+01  0.41582156263E+02  0.00000000000E+00 0. -1.
         11    1    3    3    0    0 -0.25222396942E+02  0.14206401215E+02 -0.66462176339E+02  0.72492841210E+02  0.00000000000E+00 0.  1.
        -13    1    4    4    0    0  0.23177828198E+02  0.36020518250E+01 -0.33184117080E+02  0.40637078188E+02  0.00000000000E+00 0. -1.
         13    1    4    4    0    0 -0.73361264269E+02 -0.20066613789E+02 -0.46727583940E+02  0.89263717069E+02  0.00000000000E+00 0.  1.
         21    1    1    2  503  502  0.17290192995E+02 -0.16843071264E+02  0.15950251815E+02  0.28931822555E+02  0.00000000000E+00 0. -1.
          1    1    1    2  501    0  0.20646761412E+02  0.21665194616E+01 -0.16459431231E+03  0.16589837314E+03  0.00000000000E+00 0. -1.
<scales pt_clust_5="13000.00000" pt_clust_6="13000.00000" pt_clust_7="13000.00000" pt_clust_8="13000.00000" pt_clust_9="24.57749" pt_clust_10="20.76012"></scales>
<clustering>
<clus scale="   20.760">  2 10  1 -1</clus>
<clus scale="   24.577">  1  9  2 -1</clus>
<clus scale="   87.743">  7  8 -1 -1</clus>
<clus scale="   90.891">  5  6 -1 -1</clus>
<clus scale="   95.891">  2  7  1 -1</clus>
<clus scale="   20.760">  2  5  1 -1</clus>
</clustering>
</event>
<event>
10    2  0.3544405E-006  0.9630496E+02  0.7546771E-02  0.1290619E+00
         21   -1    0    0  501  502  0.00000000000E+00  0.00000000000E+00  0.49566792967E+02  0.49566792967E+02  0.00000000000E+00 0.  1.
          3   -1    0    0  503    0 -0.00000000000E+00 -0.00000000000E+00 -0.35359516373E+03  0.35359516373E+03  0.00000000000E+00 0. -1.
         23    2    1    2    0    0 -0.10927111653E+02  0.13828480054E+02 -0.13884091924E+03  0.16752809954E+03  0.92077329725E+02 0.  0.
         23    2    1    2    0    0  0.44517748351E+02 -0.68372678057E+01 -0.12272681957E+03  0.15743179284E+03  0.87717267424E+02 0.  0.
        -11    1    3    3    0    0  0.28696323949E+02  0.54898355479E+01 -0.76088338162E+01  0.30191251292E+02  0.00000000000E+00 0. -1.
         11    1    3    3    0    0 -0.39623435601E+02  0.83386445057E+01 -0.13123208543E+03  0.13733684825E+03  0.00000000000E+00 0.  1.
        -11    1    4    4    0    0  0.97680731320E+01 -0.39460466060E+02 -0.22533538104E+02  0.46479070277E+02  0.00000000000E+00 0.  1.
         11    1    4    4    0    0  0.34749675219E+02  0.32623198254E+02 -0.10019328147E+03  0.11095272256E+03  0.00000000000E+00 0. -1.
         21    1    1    2  503  502 -0.33227840699E+02 -0.27739608842E+02 -0.36476610366E+02  0.56604932647E+02  0.00000000000E+00 0.  1.
          3    1    1    2  501    0 -0.36279599951E+00  0.20748396594E+02 -0.59840215801E+01  0.21597131671E+02  0.00000000000E+00 0. -1.
<scales pt_clust_5="13000.00000" pt_clust_6="13000.00000" pt_clust_7="13000.00000" pt_clust_8="13000.00000" pt_clust_9="40.33587" pt_clust_10="20.75157"></scales>
<clustering>
<clus scale="   20.752">  1 10  2 -1</clus>
<clus scale="   40.336">  1  9  2 -1</clus>
<clus scale="   87.717">  7  8 -1 -1</clus>
<clus scale="   92.077">  5  6 -1 -1</clus>
<clus scale="   92.145">  1  7  2 -1</clus>
<clus scale="   20.752">  1  5  2 -1</clus>
</clustering>
</event>
<event>
10    2  0.3544405E-006  0.1084594E+03  0.7546771E-02  0.1265929E+00
          2   -1    0    0  503    0 -0.00000000000E+00  0.00000000000E+00  0.24545280016E+03  0.24545280016E+03  0.00000000000E+00 0. -1.
         21   -1    0    0  501  502  0.00000000000E+00 -0.00000000000E+00 -0.15234424554E+03  0.15234424554E+03  0.00000000000E+00 0.  1.
         23    2    1    2    0    0 -0.44938420171E+02  0.44848747069E+02  0.42853897032E+02  0.12532598546E+03  0.99193116792E+02 0.  0.
         23    2    1    2    0    0 -0.31347755624E+02 -0.42604840728E+02  0.25690875127E+02  0.11051075019E+03  0.93566824285E+02 0.  0.
        -11    1    3    3    0    0 -0.32684005586E+02 -0.66560895279E+01 -0.23232297380E+02  0.40648338103E+02  0.00000000000E+00 0.  1.
         11    1    3    3    0    0 -0.12254414586E+02  0.51504836597E+02  0.66086194412E+02  0.84677647355E+02  0.00000000000E+00 0. -1.
        -11    1    4    4    0    0 -0.57925478207E+02 -0.15758760098E+02 -0.71494224609E+01  0.60455055924E+02  0.00000000000E+00 0.  1.
         11    1    4    4    0    0  0.26577722582E+02 -0.26846080630E+02  0.32840297588E+02  0.50055694267E+02  0.00000000000E+00 0. -1.
         21    1    1    2  503  502  0.32877586571E+02 -0.46791627000E+01  0.82842595247E+02  0.89250915119E+02  0.00000000000E+00 0.  1.
          2    1    1    2  501    0  0.43408589225E+02  0.24352563592E+01 -0.58278812788E+02  0.72709394936E+02  0.00000000000E+00 0. -1.
<scales pt_clust_5="13000.00000" pt_clust_6="13000.00000" pt_clust_7="13000.00000" pt_clust_8="13000.00000" pt_clust_9="33.20889" pt_clust_10="44.95177"></scales>
<clustering>
<clus scale="   33.209">  1  9  2 -1</clus>
<clus scale="   44.952">  2 10  1 -1</clus>
<clus scale="   93.567">  7  8 -1 -1</clus>
<clus scale="   99.193">  5  6 -1 -1</clus>
<clus scale="  103.339">  2  7  1 -1</clus>
<clus scale="   44.952">  2  5  1 -1</clus>
</clustering>
</event>
<event>
10    2  0.3544405E-006  0.1834140E+03  0.7546771E-02  0.1164691E+00
         21   -1    0    0  503  502  0.00000000000E+00  0.00000000000E+00  0.12525404341E+03  0.12525404341E+03  0.00000000000E+00 0.  1.
         -1   -1    0    0    0  501 -0.00000000000E+00 -0.00000000000E+00 -0.13974544679E+04  0.13974544679E+04  0.00000000000E+00 0.  1.
         23    2    1    2    0    0  0.53058282091E+02  0.13651665303E+03 -0.59817820730E+03  0.62273209003E+03  0.92336939598E+02 0.  0.
         23    2    1    2    0    0 -0.11068185592E+03 -0.13856467430E+03 -0.68761267529E+03  0.71625577780E+03  0.93597573786E+02 0.  0.
        -13    1    3    3    0    0  0.79341854004E+02  0.10445396016E+03 -0.47406932831E+03  0.49188157887E+03  0.00000000000E+00 0.  1.
         13    1    3    3    0    0 -0.26283571913E+02  0.32062692874E+02 -0.12410887899E+03  0.13085051116E+03  0.00000000000E+00 0. -1.
        -13    1    4    4    0    0 -0.46953274831E+02 -0.29793778771E+02 -0.92427378492E+02  0.10786611871E+03  0.00000000000E+00 0. -1.
         13    1    4    4    0    0 -0.63728581086E+02 -0.10877089552E+03 -0.59518529680E+03  0.60838965909E+03  0.00000000000E+00 0.  1.
         21    1    1    2  503  501  0.13228514841E+02 -0.26351791569E+02 -0.75028773306E+02  0.80614684441E+02  0.00000000000E+00 0.  1.
         -1    1    1    2    0  502  0.44395058985E+02  0.28399812833E+02  0.88619231362E+02  0.10310595908E+03  0.00000000000E+00 0.  1.
<scales pt_clust_5="13000.00000" pt_clust_6="13000.00000" pt_clust_7="13000.00000" pt_clust_8="13000.00000" pt_clust_9="29.48577" pt_clust_10="52.68518"></scales>
<clustering>
<clus scale="   29.486">  2  9  1 -1</clus>
<clus scale="   52.685">  1 10  2 -1</clus>
<clus scale="   92.337">  5  6 -1 -1</clus>
<clus scale="   93.598">  7  8 -1 -1</clus>
<clus scale="  182.774">  2  5  1 -1</clus>
<clus scale="   52.685">  1  5  2 -1</clus>
</clustering>
</event>
<event>
10    2  0.3544405E-006  0.3017393E+03  0.7546771E-02  0.1105850E+00
          2   -1    0    0  503    0 -0.00000000000E+00  0.00000000000E+00  0.17736019716E+04  0.17736019716E+04  0.00000000000E+00 0. -1.
         21   -1    0    0  501  502  0.00000000000E+00 -0.00000000000E+00 -0.11940237951E+03  0.11940237951E+03  0.00000000000E+00 0. -1.
         23    2    1    2    0    0  0.13889352932E+03  0.42068085744E+02  0.58343753353E+03  0.60833895614E+03  0.92821299835E+02 0.  0.
         23    2    1    2    0    0 -0.50949170623E+02 -0.27489910281E+03  0.39705053345E+03  0.49316485881E+03  0.86006494764E+02 0.  0.
        -13    1    3    3    0    0  0.69844417886E+02  0.68970288165E+02  0.33505744179E+03  0.34913984685E+03  0.00000000000E+00 0.  1.
         13    1    3    3    0    0  0.69049111437E+02 -0.26902202422E+02  0.24838009174E+03  0.25919910929E+03  0.00000000000E+00 0. -1.
        -13    1    4    4    0    0  0.20634626022E+02 -0.26681841072E+02  0.37587268454E+02  0.50502585913E+02  0.00000000000E+00 0.  1.
         13    1    4    4    0    0 -0.71583796646E+02 -0.24821726174E+03  0.35946326499E+03  0.44266227290E+03  0.00000000000E+00 0. -1.
         21    1    1    2  503  502 -0.10091008810E+03  0.29129113495E+03  0.66231640712E+03  0.73054527192E+03  0.00000000000E+00 0. -1.
          2    1    1    2  501    0  0.12965729400E+02 -0.58460117881E+02  0.11395117974E+02  0.60955264212E+02  0.00000000000E+00 0. -1.
<scales pt_clust_5="13000.00000" pt_clust_6="13000.00000" pt_clust_7="13000.00000" pt_clust_8="13000.00000" pt_clust_9="289.22224" pt_clust_10="59.88068"></scales>
<clustering>
<clus scale="   59.881">  2 10  1 -1</clus>
<clus scale="   86.006">  7  8 -1 -1</clus>
<clus scale="   92.821">  5  6 -1 -1</clus>
<clus scale="  171.947">  1  5  2 -1</clus>
<clus scale="  289.222">  1  9  2 -1</clus>
<clus scale="   59.881">  2  5  1 -1</clus>
</clustering>
</event>
<event>
10    2  0.3544405E-006  0.9914164E+02  0.7546771E-02  0.1284253E+00
          2   -1    0    0  503    0 -0.00000000000E+00  0.00000000000E+00  0.60947422841E+03  0.60947422841E+03  0.00000000000E+00 0. -1.
         21   -1    0    0  501  502  0.00000000000E+00 -0.00000000000E+00 -0.40296399403E+02  0.40296399403E+02  0.00000000000E+00 0.  1.
         23    2    1    2    0    0 -0.30898787382E+01 -0.12854159008E+02  0.19525915488E+03  0.21696463523E+03  0.93662898842E+02 0.  0.
         23    2    1    2    0    0 -0.11449374458E+02 -0.40769254749E+02  0.15729417726E+03  0.18992941484E+03  0.97665265639E+02 0.  0.
        -11    1    3    3    0    0  0.38507521471E+02 -0.28013498604E+02  0.75272875882E+02  0.89070708751E+02  0.00000000000E+00 0.  1.
         11    1    3    3    0    0 -0.41597400210E+02  0.15159339595E+02  0.11998627900E+03  0.12789392648E+03  0.00000000000E+00 0. -1.
        -13    1    4    4    0    0 -0.13753738523E+02  0.27615255099E+02  0.84831128724E+02  0.90266760428E+02  0.00000000000E+00 0. -1.
         13    1    4    4    0    0  0.23043640655E+01 -0.68384509847E+02  0.72463048537E+02  0.99662654410E+02  0.00000000000E+00 0.  1.
         21    1    1    2  503  502  0.47455801988E+02  0.48899075455E+02  0.18433156637E+03  0.19652302431E+03  0.00000000000E+00 0. -1.
          2    1    1    2  501    0 -0.32916548792E+02  0.47243383023E+01  0.32292930497E+02  0.46353553444E+02  0.00000000000E+00 0. -1.
<scales pt_clust_5="13000.00000" pt_clust_6="13000.00000" pt_clust_7="13000.00000" pt_clust_8="13000.00000" pt_clust_9="64.74944" pt_clust_10="33.25385"></scales>
<clustering>
<clus scale="   33.254">  2 10  1 -1</clus>
<clus scale="   64.749">  1  9  2 -1</clus>
<clus scale="   93.663">  5  6 -1 -1</clus>
<clus scale="   95.201">  1  5  2 -1</clus>
<clus scale="   97.665">  7  8 -1 -1</clus>
<clus scale="   33.254">  2  5  1 -1</clus>
</clustering>
</event>
<event>
10    2  0.5898946E-006  0.9066518E+02  0.7546771E-02  0.1302111E+00
          3   -1    0    0  503    0 -0.00000000000E+00  0.00000000000E+00  0.22666109112E+03  0.22666109112E+03  0.00000000000E+00 0. -1.
         21   -1    0    0  501  502  0.00000000000E+00 -0.00000000000E+00 -0.16609274453E+03  0.16609274453E+03  0.00000000000E+00 0.  1.
         23    2    1    2    0    0 -0.20189433653E+02  0.98581772870E+01  0.15368470662E+03  0.17949421053E+03  0.89968803891E+02 0.  0.
         23    2    1    2    0    0 -0.29011707085E+01  0.39366310686E+02 -0.10918950658E+03  0.14600842403E+03  0.88532414018E+02 0.  0.
        -11    1    3    3    0    0 -0.21266625717E+02 -0.38526067544E+02  0.80768392020E+02  0.91978586634E+02  0.00000000000E+00 0. -1.
         11    1    3    3    0    0  0.10771920636E+01  0.48384244831E+02  0.72916314602E+02  0.87515623895E+02  0.00000000000E+00 0.  1.
        -11    1    4    4    0    0 -0.40111964265E+02  0.23239203201E+02 -0.25257053797E+02  0.52791561912E+02  0.00000000000E+00 0.  1.
         11    1    4    4    0    0  0.37210793556E+02  0.16127107485E+02 -0.83932452783E+02  0.93216862118E+02  0.00000000000E+00 0. -1.
         21    1    1    2  503  502  0.13663504620E+02 -0.17090493783E+02  0.24368743707E+02  0.32750755810E+02  0.00000000000E+00 0.  1.
          3    1    1    2  501    0  0.94270997411E+01 -0.32133994190E+02 -0.82955971557E+01  0.34500445277E+02  0.00000000000E+00 0. -1.
<scales pt_clust_5="13000.00000" pt_clust_6="13000.00000" pt_clust_7="13000.00000" pt_clust_8="13000.00000" pt_clust_9="21.88096" pt_clust_10="34.83164"></scales>
<clustering>
<clus scale="   21.881">  1  9  2 -1</clus>
<clus scale="   34.832">  2 10  1 -1</clus>
<clus scale="   88.532">  7  8 -1 -1</clus>
<clus scale="   89.240">  2  7  1 -1</clus>
<clus scale="   89.969">  5  6 -1 -1</clus>
<clus scale="   34.832">  2  5  1 -1</clus>
</clustering>
</event>
<event>
10    2  0.3544405E-006  0.2172521E+03  0.7546771E-02  0.1142116E+00
         21   -1    0    0  503  502  0.00000000000E+00  0.00000000000E+00  0.26019108954E+03  0.26019108954E+03  0.00000000000E+00 0.  1.
         -3   -1    0    0    0  501 -0.00000000000E+00 -0.00000000000E+00 -0.11898595412E+04  0.11898595412E+04  0.00000000000E+00 0.  1.
         23    2    1    2    0    0  0.60668966663E+02 -0.19149568272E+03 -0.89393348103E+03  0.92071316734E+03  0.90798392064E+02 0.  0.
         23    2    1    2    0    0  0.17519177691E+03  0.80776183917E+02 -0.14486632873E+01  0.21147764102E+03  0.86624150446E+02 0.  0.
        -13    1    3    3    0    0  0.49040844270E+02 -0.16582815189E+03 -0.85691776510E+03  0.87419221943E+03  0.00000000000E+00 0.  1.
         13    1    3    3    0    0  0.11628122393E+02 -0.25667530827E+02 -0.37015715923E+02  0.46520947910E+02  0.00000000000E+00 0. -1.
        -13    1    4    4    0    0  0.11046603931E+02 -0.17102460314E+02 -0.29901316144E+00  0.20361999314E+02  0.00000000000E+00 0. -1.
         13    1    4    4    0    0  0.16414517298E+03  0.97878644231E+02 -0.11496501259E+01  0.19111564170E+03  0.00000000000E+00 0.  1.
         21    1    1    2  503  501 -0.14275873995E+02  0.43356896442E+02 -0.69955993864E+02  0.83531204498E+02  0.00000000000E+00 0. -1.
         -3    1    1    2    0  502 -0.22158486958E+03  0.67362602357E+02  0.35669686527E+02  0.23432861788E+03  0.00000000000E+00 0.  1.
<scales pt_clust_5="13000.00000" pt_clust_6="13000.00000" pt_clust_7="13000.00000" pt_clust_8="13000.00000" pt_clust_9="45.64670" pt_clust_10="199.23552"></scales>
<clustering>
<clus scale="   45.647">  2  9  1 -1</clus>
<clus scale="   86.624">  7  8 -1 -1</clus>
<clus scale="   90.798">  5  6 -1 -1</clus>
<clus scale="  187.170">  2  5  1 -1</clus>
<clus scale="  199.236">  1 10  2 -1</clus>
<clus scale="  199.236">  1  5  2 -1</clus>
</clustering>
</event>
<event>
10    2  0.3544405E-006  0.1997359E+03  0.7546771E-02  0.1149978E+00
         21   -1    0    0  501  502  0.00000000000E+00  0.00000000000E+00  0.41244835763E+02  0.41244835763E+02  0.00000000000E+00 0. -1.
          1   -1    0    0  503    0 -0.00000000000E+00 -0.00000000000E+00 -0.15961788255E+04  0.15961788255E+04  0.00000000000E+00 0. -1.
         23    2    1    2    0    0  0.50378616401E+02  0.18700307656E+03 -0.79786378543E+03  0.82614606505E+03  0.91774424826E+02 0.  0.
         23    2    1    2    0    0 -0.53360626388E+02 -0.15334313223E+03 -0.40308866036E+03  0.44417903440E+03  0.91940599507E+02 0.  0.
        -13    1    4    4    0    0 -0.62081392514E+02 -0.45533551747E+02 -0.19523907266E+03  0.20987067238E+03  0.00000000000E+00 0.  1.
         13    1    4    4    0    0  0.87207661258E+01 -0.10780958048E+03 -0.20784958770E+03  0.23430836202E+03  0.00000000000E+00 0. -1.
        -13    1    3    3    0    0 -0.20061525872E+02  0.10175865135E+03 -0.39102775308E+03  0.40454912139E+03  0.00000000000E+00 0. -1.
         13    1    3    3    0    0  0.70440142273E+02  0.85244425212E+02 -0.40683603236E+03  0.42159694365E+03  0.00000000000E+00 0.  1.
         21    1    1    2  503  502 -0.33756819188E+02 -0.80263377787E+01 -0.26713323460E+03  0.26937726327E+03  0.00000000000E+00 0.  1.
          1    1    1    2  501    0  0.36738829175E+02 -0.25633606556E+02 -0.86848309366E+02  0.97721298569E+02  0.00000000000E+00 0. -1.
<scales pt_clust_5="13000.00000" pt_clust_6="13000.00000" pt_clust_7="13000.00000" pt_clust_8="13000.00000" pt_clust_9="34.69791" pt_clust_10="43.23031"></scales>
<clustering>
<clus scale="   34.698">  2  9  1 -1</clus>
<clus scale="   43.230">  1 10  2 -1</clus>
<clus scale="   91.774">  7  8 -1 -1</clus>
<clus scale="   91.941">  5  6 -1 -1</clus>
<clus scale="  199.659">  2  7  1 -1</clus>
<clus scale="   43.230">  1  5  2 -1</clus>
</clustering>
</event>
<event>
10    2  0.3544405E-006  0.9868456E+02  0.7546771E-02  0.1290047E+00
         -3   -1    0    0    0  501 -0.00000000000E+00  0.00000000000E+00  0.80663691778E+02  0.80663691778E+02  0.00000000000E+00 0.  1.
         21   -1    0    0  503  502  0.00000000000E+00 -0.00000000000E+00 -0.51697918759E+03  0.51697918759E+03  0.00000000000E+00 0. -1.
         23    2    1    2    0    0  0.17653435899E+02  0.10533333000E+01 -0.21144215712E+02  0.10141405033E+03  0.97595996003E+02 0.  0.
         23    2    1    2    0    0  0.14911562749E+02 -0.27350988976E+02 -0.60267276856E+02  0.10900375273E+03  0.85318474830E+02 0.  0.
        -13    1    4    4    0    0 -0.25549984389E+02  0.15485812873E+02 -0.31558339544E+02  0.43457345724E+02  0.00000000000E+00 0.  1.
         13    1    4    4    0    0  0.40461547137E+02 -0.42836801849E+02 -0.28708937313E+02  0.65546407003E+02  0.00000000000E+00 0. -1.
        -13    1    3    3    0    0  0.55789818075E+02 -0.46776565711E+01 -0.27424047332E+02  0.62341500174E+02  0.00000000000E+00 0. -1.
         13    1    3    3    0    0 -0.38136382176E+02  0.57309898710E+01  0.62798316197E+01  0.39072550154E+02  0.00000000000E+00 0.  1.
         21    1    1    2  503  501  0.36167341264E+02 -0.68672535979E+01 -0.16534426404E+02  0.40356201538E+02  0.00000000000E+00 0. -1.
         -3    1    1    2    0  502 -0.68732339912E+02  0.33164909274E+02 -0.33836957684E+03  0.34686887477E+03  0.00000000000E+00 0.  1.
<scales pt_clust_5="13000.00000" pt_clust_6="13000.00000" pt_clust_7="13000.00000" pt_clust_8="13000.00000" pt_clust_9="36.81353" pt_clust_10="74.11992"></scales>
<clustering>
<clus scale="   36.814">  1  9  2 -1</clus>
<clus scale="   74.120">  2 10  1 -1</clus>
<clus scale="   85.318">  5  6 -1 -1</clus>
<clus scale="   86.562">  2  5  1 -1</clus>
<clus scale="   97.596">  7  8 -1 -1</clus>
<clus scale="   74.120">  2  5  1 -1</clus>
</clustering>
</event>
<event>
10    2  0.3544405E-006  0.2045899E+03  0.7546771E-02  0.1146074E+00
         21   -1    0    0  501  502  0.00000000000E+00  0.00000000000E+00  0.13075465437E+03  0.13075465437E+03  0.00000000000E+00 0.  1.
          3   -1    0    0  503    0 -0.00000000000E+00 -0.00000000000E+00 -0.45462883920E+03  0.45462883920E+03  0.00000000000E+00 0. -1.
         23    2    1    2    0    0  0.82552002294E+02 -0.15570533547E+03 -0.23044205911E+03  0.30454241611E+03  0.92647482559E+02 0.  0.
         23    2    1    2    0    0 -0.72569212804E+02  0.16521765737E+03 -0.93670707384E+02  0.22275961564E+03  0.91019118780E+02 0.  0.
        -13    1    3    3    0    0  0.19632140086E+02 -0.51496478265E+02 -0.15047060991E+02  0.57128996512E+02  0.00000000000E+00 0. -1.
         13    1    3    3    0    0  0.62919862207E+02 -0.10420885720E+03 -0.21539499812E+03  0.24741341959E+03  0.00000000000E+00 0.  1.
        -13    1    4    4    0    0  0.62650984604E+01  0.77363564407E+02 -0.65121540775E+02  0.10131726225E+03  0.00000000000E+00 0.  1.
         13    1    4    4    0    0 -0.78834311264E+02  0.87854092967E+02 -0.28549166609E+02  0.12144235339E+03  0.00000000000E+00 0. -1.
         21    1    1    2  503  502  0.67727452210E+01 -0.20939465358E+02 -0.19775917709E+02  0.29587467086E+02  0.00000000000E+00 0. -1.
          3    1    1    2  501    0 -0.16755534711E+02  0.11427143452E+02  0.20014499377E+02  0.28493994740E+02  0.00000000000E+00 0. -1.
<scales pt_clust_5="13000.00000" pt_clust_6="13000.00000" pt_clust_7="13000.00000" pt_clust_8="13000.00000" pt_clust_9="21.27688" pt_clust_10="20.28121"></scales>
<clustering>
<clus scale="   20.281">  1 10  2 -1</clus>
<clus scale="   21.277">  2  9  1 -1</clus>
<clus scale="   91.019">  7  8 -1 -1</clus>
<clus scale="   92.647">  5  6 -1 -1</clus>
<clus scale="  203.858">  1  7  2 -1</clus>
<clus scale="   20.281">  1  5  2 -1</clus>
</clustering>
</event>
<event>
10    2  0.3544405E-006  0.2637511E+03  0.7546771E-02  0.1104997E+00
          2   -1    0    0  502    0 -0.00000000000E+00  0.00000000000E+00  0.11536890642E+04  0.11536890642E+04  0.00000000000E+00 0. -1.
         21   -1    0    0  503  502  0.00000000000E+00 -0.00000000000E+00 -0.12882595340E+03  0.12882595340E+03  0.00000000000E+00 0.  1.
         23    2    1    2    0    0 -0.11984940336E+03  0.16298599906E+03  0.33806980539E+03  0.40409076382E+03  0.89832269889E+02 0.  0.
         23    2    1    2    0    0  0.28118584164E+03 -0.18364047042E+03  0.47626948023E+03  0.58991643177E+03  0.91539492884E+02 0.  0.
        -11    1    3    3    0    0 -0.84200949771E+02  0.10960617567E+03  0.29781208579E+03  0.32832202504E+03  0.00000000000E+00 0. -1.
         11    1    3    3    0    0 -0.35648453587E+02  0.53379823387E+02  0.40257719600E+02  0.75768738774E+02  0.00000000000E+00 0.  1.
        -11    1    4    4    0    0  0.23066186549E+03 -0.10886922247E+03  0.31716933417E+03  0.40700588488E+03  0.00000000000E+00 0.  1.
         11    1    4    4    0    0  0.50523976157E+02 -0.74771247949E+02  0.15910014606E+03  0.18291054689E+03  0.00000000000E+00 0. -1.
         21    1    1    2  503  501 -0.72660984893E+02 -0.36310309463E+02  0.46662080819E+02  0.93677142811E+02  0.00000000000E+00 0.  1.
          2    1    1    2  501    0 -0.88675453390E+02  0.56964780822E+02  0.16386174435E+03  0.19483067918E+03  0.00000000000E+00 0. -1.
<scales pt_clust_5="13000.00000" pt_clust_6="13000.00000" pt_clust_7="13000.00000" pt_clust_8="13000.00000" pt_clust_9="81.22843" pt_clust_10="111.97046"></scales>
<clustering>
<clus scale="   81.228">  2  9  1 -1</clus>
<clus scale="   89.832">  5  6 -1 -1</clus>
<clus scale="   91.539">  7  8 -1 -1</clus>
<clus scale="  111.970">  2 10  1 -1</clus>
<clus scale="  263.163">  1  5  2 -1</clus>
<clus scale="   81.228">  2  5  1 -1</clus>
</clustering>
</event>
<event>
10    2  0.3544405E-006  0.2408574E+03  0.7546771E-02  0.1154656E+00
         21   -1    0    0  501  502  0.00000000000E+00  0.00000000000E+00  0.17692456271E+03  0.17692456271E+03  0.00000000000E+00 0.  1.
          2   -1    0    0  503    0 -0.00000000000E+00 -0.00000000000E+00 -0.79200513965E+03  0.79200513965E+03  0.00000000000E+00 0. -1.
         23    2    1    2    0    0  0.18188685754E+03  0.15495641956E+03 -0.32453297431E+03  0.41329512558E+03  0.91634537714E+02 0.  0.
         23    2    1    2    0    0 -0.42523356927E+02 -0.93669592047E+01  0.14898305145E+02  0.10248443850E+03  0.91570327232E+02 0.  0.
        -11    1    4    4    0    0 -0.44911109965E+02 -0.46111700118E+02  0.12603673527E+02  0.65590771244E+02  0.00000000000E+00 0. -1.
         11    1    4    4    0    0  0.23877530385E+01  0.36744740913E+02  0.22946316184E+01  0.36893667256E+02  0.00000000000E+00 0.  1.
        -13    1    3    3    0    0  0.15813959840E+03  0.14142584341E+03 -0.22155052469E+03  0.30674751304E+03  0.00000000000E+00 0.  1.
         13    1    3    3    0    0  0.23747259139E+02  0.13530576155E+02 -0.10298244962E+03  0.10654761254E+03  0.00000000000E+00 0. -1.
         21    1    1    2  503  502 -0.13409475533E+03 -0.16589008086E+03 -0.34658865768E+03  0.40697004800E+03  0.00000000000E+00 0. -1.
          2    1    1    2  501    0 -0.52687452864E+01  0.20300620500E+02  0.41142749902E+02  0.46180090289E+02  0.00000000000E+00 0. -1.
<scales pt_clust_5="13000.00000" pt_clust_6="13000.00000" pt_clust_7="13000.00000" pt_clust_8="13000.00000" pt_clust_9="222.74517" pt_clust_10="20.97319"></scales>
<clustering>
<clus scale="   20.973">  1 10  2 -1</clus>
<clus scale="   91.570">  5  6 -1 -1</clus>
<clus scale="   91.635">  7  8 -1 -1</clus>
<clus scale="  101.962">  1  5  2 -1</clus>
<clus scale="  222.745">  2  9  1 -1</clus>
<clus scale="   20.973">  1  5  2 -1</clus>
</clustering>
</event>
<event>
10    2  0.3544405E-006  0.1071795E+03  0.7546771E-02  0.1266844E+00
         21   -1    0    0  501  502  0.00000000000E+00  0.00000000000E+00  0.17324810397E+03  0.17324810397E+03  0.00000000000E+00 0. -1.
          1   -1    0    0  503    0 -0.00000000000E+00 -0.00000000000E+00 -0.60286211087E+03  0.60286211087E+03  0.00000000000E+00 0. -1.
         23    2    1    2    0    0  0.12843277634E+02 -0.60409534274E+02 -0.16055448449E+03  0.19450463947E+03  0.90774724856E+02 0.  0.
         23    2    1    2    0    0  0.40648977796E+02  0.29652839577E+02 -0.55686454207E+02  0.11955688818E+03  0.93065772642E+02 0.  0.
        -11    1    3    3    0    0  0.47480771299E+02 -0.57263643157E+02 -0.99414196985E+02  0.12416412941E+03  0.00000000000E+00 0.  1.
         11    1    3    3    0    0 -0.34637493665E+02 -0.31458911165E+01 -0.61140287507E+02  0.70340510055E+02  0.00000000000E+00 0. -1.
        -13    1    4    4    0    0 -0.71390955359E+01 -0.28258415197E+02 -0.66979572244E+01  0.29905975080E+02  0.00000000000E+00 0. -1.
         13    1    4    4    0    0  0.47788073332E+02  0.57911254775E+02 -0.48988496983E+02  0.89650913096E+02  0.00000000000E+00 0.  1.
         21    1    1    2  503  502 -0.43111606140E+02 -0.31255411753E+01 -0.33376369432E+03  0.33655101135E+03  0.00000000000E+00 0. -1.
          1    1    1    2  501    0 -0.10380649289E+02  0.33882235872E+02  0.12039062612E+03  0.12549767585E+03  0.00000000000E+00 0. -1.
<scales pt_clust_5="13000.00000" pt_clust_6="13000.00000" pt_clust_7="13000.00000" pt_clust_8="13000.00000" pt_clust_9="43.45426" pt_clust_10="35.43676"></scales>
<clustering>
<clus scale="   35.437">  1 10  2 -1</clus>
<clus scale="   43.454">  2  9  1 -1</clus>
<clus scale="   90.775">  5  6 -1 -1</clus>
<clus scale="   93.066">  7  8 -1 -1</clus>
<clus scale="  105.196">  2  5  1 -1</clus>
<clus scale="   35.437">  1  5  2 -1</clus>
</clustering>
</event>
<event>
10    2  0.3544405E-006  0.9707529E+02  0.7546771E-02  0.1287127E+00
         21   -1    0    0  501  502  0.00000000000E+00  0.00000000000E+00  0.10871725944E+03  0.10871725944E+03  0.00000000000E+00 0. -1.
          2   -1    0    0  503    0 -0.00000000000E+00 -0.00000000000E+00 -0.28085244696E+03  0.28085244696E+03  0.00000000000E+00 0. -1.
         23    2    1    2    0    0 -0.35871873879E+02 -0.49537786901E+02 -0.14482935393E+03  0.18139683010E+03  0.90490245570E+02 0.  0.
         23    2    1    2    0    0 -0.34065221150E+01  0.45911262741E+02  0.29082690566E+02  0.10467941915E+03  0.89400947776E+02 0.  0.
        -13    1    4    4    0    0 -0.31595954331E+02  0.60858752311E+02  0.21774168593E+02  0.71945857983E+02  0.00000000000E+00 0. -1.
         13    1    4    4    0    0  0.28189432216E+02 -0.14947489571E+02  0.73085219731E+01  0.32733561165E+02  0.00000000000E+00 0.  1.
        -13    1    3    3    0    0 -0.22783345193E+02  0.24834979324E+02 -0.44068638250E+02  0.55478841854E+02  0.00000000000E+00 0.  1.
         13    1    3    3    0    0 -0.13088528686E+02 -0.74372766226E+02 -0.10076071568E+03  0.12591798824E+03  0.00000000000E+00 0. -1.
         21    1    1    2  503  502  0.28447814758E+02  0.27184287088E+02 -0.65162438772E+02  0.76121002724E+02  0.00000000000E+00 0.  1.
          2    1    1    2  501    0  0.10830581235E+02 -0.23557762928E+02  0.87739146117E+01  0.27372454433E+02  0.00000000000E+00 0. -1.
<scales pt_clust_5="13000.00000" pt_clust_6="13000.00000" pt_clust_7="13000.00000" pt_clust_8="13000.00000" pt_clust_9="38.86575" pt_clust_10="25.92816"></scales>
<clustering>
<clus scale="   25.928">  1 10  2 -1</clus>
<clus scale="   38.866">  2  9  1 -1</clus>
<clus scale="   89.401">  5  6 -1 -1</clus>
<clus scale="   90.490">  7  8 -1 -1</clus>
<clus scale="   96.061">  1  5  2 -1</clus>
<clus scale="   25.928">  1  5  2 -1</clus>
</clustering>
</event>
<event>
10    2  0.3544405E-006  0.9298738E+02  0.7546771E-02  0.1296637E+00
          2   -1    0    0  503    0 -0.00000000000E+00  0.00000000000E+00  0.57384674452E+03  0.57384674452E+03  0.00000000000E+00 0. -1.
         21   -1    0    0  501  502  0.00000000000E+00 -0.00000000000E+00 -0.33314103625E+02  0.33314103625E+02  0.00000000000E+00 0. -1.
         23    2    1    2    0    0 -0.75433931621E+01 -0.30220565122E+01  0.19015034157E+03  0.21045813241E+03  0.89830047825E+02 0.  0.
         23    2    1    2    0    0  0.29053162020E+02  0.79635271234E+01  0.17878311981E+03  0.20300865300E+03  0.91332388971E+02 0.  0.
        -13    1    3    3    0    0 -0.39117918113E+02  0.29926970188E+01  0.16512728016E+03  0.16972385338E+03  0.00000000000E+00 0.  1.
         13    1    3    3    0    0  0.31574524951E+02 -0.60147535310E+01  0.25023061414E+02  0.40734279034E+02  0.00000000000E+00 0. -1.
        -13    1    4    4    0    0 -0.30171509673E+02  0.11404539725E+02  0.35692173064E+02  0.48107325225E+02  0.00000000000E+00 0.  1.
         13    1    4    4    0    0  0.59224671692E+02 -0.34410126019E+01  0.14309094675E+03  0.15490132778E+03  0.00000000000E+00 0. -1.
         21    1    1    2  503  502  0.16796333228E+02 -0.17215048396E+02  0.14130679401E+03  0.14333905516E+03  0.00000000000E+00 0. -1.
          2    1    1    2  501    0 -0.38306102085E+02  0.12273577785E+02  0.30292385507E+02  0.50355007579E+02  0.00000000000E+00 0. -1.
<scales pt_clust_5="13000.00000" pt_clust_6="13000.00000" pt_clust_7="13000.00000" pt_clust_8="13000.00000" pt_clust_9="24.05150" pt_clust_10="38.25332"></scales>
<clustering>
<clus scale="   24.052">  1  9  2 -1</clus>
<clus scale="   38.253">  2 10  1 -1</clus>
<clus scale="   89.830">  5  6 -1 -1</clus>
<clus scale="   91.332">  7  8 -1 -1</clus>
<clus scale="   91.512">  1  5  2 -1</clus>
<clus scale="   38.253">  2  5  1 -1</clus>
</clustering>
</event>
<event>
10    2  0.3544405E-006  0.1206300E+03  0.7546771E-02  0.1243969E+00
          2   -1    0    0  503    0 -0.00000000000E+00  0.00000000000E+00  0.15670636695E+04  0.15670636695E+04  0.00000000000E+00 0. -1.
         21   -1    0    0  501  502  0.00000000000E+00 -0.00000000000E+00 -0.21963165791E+02  0.21963165791E+02  0.00000000000E+00 0. -1.
         23    2    1    2    0    0 -0.74963406557E+01 -0.71915154815E+02  0.63193253473E+03  0.64332901292E+03  0.96465049657E+02 0.  0.
         23    2    1    2    0    0  0.56169037441E+02  0.47989781002E+02  0.39365368391E+03  0.41066653860E+03  0.90696213939E+02 0.  0.
        -13    1    4    4    0    0  0.68495836712E+02  0.65682433995E+02  0.30468266233E+03  0.31911970561E+03  0.00000000000E+00 0. -1.
         13    1    4    4    0    0 -0.12326799271E+02 -0.17692652993E+02  0.88971021578E+02  0.91546832992E+02  0.00000000000E+00 0.  1.
        -13    1    3    3    0    0 -0.10400243067E+02 -0.93746080034E+02  0.56626969935E+03  0.57407130652E+03  0.00000000000E+00 0. -1.
         13    1    3    3    0    0  0.29039024114E+01  0.21830925219E+02  0.65662835383E+02  0.69257706399E+02  0.00000000000E+00 0.  1.
         21    1    1    2  503  502 -0.27192275370E+02 -0.45895476305E+02  0.26088608105E+03  0.26628436280E+03  0.00000000000E+00 0. -1.
          2    1    1    2  501    0 -0.21480421416E+02  0.69820850118E+02  0.25862820403E+03  0.26874692098E+03  0.00000000000E+00 0. -1.
<scales pt_clust_5="13000.00000" pt_clust_6="13000.00000" pt_clust_7="13000.00000" pt_clust_8="13000.00000" pt_clust_9="53.34618" pt_clust_10="66.27705"></scales>
<clustering>
<clus scale="   53.346">  1  9  2 -1</clus>
<clus scale="   66.277">  2 10  1 -1</clus>
<clus scale="   90.696">  5  6 -1 -1</clus>
<clus scale="   96.465">  7  8 -1 -1</clus>
<clus scale="  116.068">  2  5  1 -1</clus>
<clus scale="   66.277">  2  5  1 -1</clus>
</clustering>
</event>
<event>
10    2  0.3544405E-006  0.1069451E+03  0.7546771E-02  0.1266845E+00
         21   -1    0    0  503  502  0.00000000000E+00  0.00000000000E+00  0.26298220535E+03  0.26298220535E+03  0.00000000000E+00 0.  1.
         -1   -1    0    0    0  501 -0.00000000000E+00 -0.00000000000E+00 -0.24393086630E+03  0.24393086630E+03  0.00000000000E+00 0.  1.
         23    2    1    2    0    0  0.41128172636E+02  0.23785827018E+02 -0.52695339998E+02  0.11995315916E+03  0.96719539825E+02 0.  0.
         23    2    1    2    0    0  0.33616932634E+02 -0.44486759215E+02  0.10300411850E+03  0.15115790255E+03  0.95549427893E+02 0.  0.
        -13    1    4    4    0    0  0.12077431696E+02  0.29411367659E+02  0.18220747861E+02  0.36645443871E+02  0.00000000000E+00 0. -1.
         13    1    4    4    0    0  0.21539500939E+02 -0.73898126874E+02  0.84783370642E+02  0.11451245868E+03  0.00000000000E+00 0.  1.
        -13    1    3    3    0    0  0.39985763202E+02 -0.32276862875E+02 -0.20757966043E+02  0.55421568817E+02  0.00000000000E+00 0.  1.
         13    1    3    3    0    0  0.11424094343E+01  0.56062689892E+02 -0.31937373955E+02  0.64531590345E+02  0.00000000000E+00 0. -1.
         21    1    1    2  503  501  0.32872926343E+02 -0.56593739243E+01 -0.99995611863E+02  0.10541242902E+03  0.00000000000E+00 0.  1.
         -1    1    1    2    0  502 -0.10761803161E+03  0.26360306122E+02  0.68738172404E+02  0.13038958092E+03  0.00000000000E+00 0.  1.
<scales pt_clust_5="13000.00000" pt_clust_6="13000.00000" pt_clust_7="13000.00000" pt_clust_8="13000.00000" pt_clust_9="33.35653" pt_clust_10="103.53757"></scales>
<clustering>
<clus scale="   33.357">  2  9  1 -1</clus>
<clus scale="   95.549">  5  6 -1 -1</clus>
<clus scale="   96.720">  7  8 -1 -1</clus>
<clus scale="  103.538">  1 10  2 -1</clus>
<clus scale="  105.888">  1  5  2 -1</clus>
<clus scale="  103.538">  1  5  2 -1</clus>
</clustering>
</event>
<event>
10    2  0.3544405E-006  0.1096080E+03  0.7546771E-02  0.1262379E+00
         21   -1    0    0  503  502  0.00000000000E+00  0.00000000000E+00  0.54755685006E+03  0.54755685006E+03  0.00000000000E+00 0.  1.
         -2   -1    0    0    0  501 -0.00000000000E+00 -0.00000000000E+00 -0.74920689515E+02  0.74920689515E+02  0.00000000000E+00 0.  1.
         23    2    1    2    0    0  0.72755603230E+02  0.20421515071E+01  0.28399259065E+01  0.11601440510E+03  0.90298000133E+02 0.  0.
         23    2    1    2    0    0 -0.10909763153E+02 -0.30347755546E+01  0.17693222593E+03  0.20021343470E+03  0.93017063314E+02 0.  0.
        -13    1    3    3    0    0  0.58838612983E+02 -0.35942306697E+02  0.20416429027E+02  0.71907317866E+02  0.00000000000E+00 0.  1.
         13    1    3    3    0    0  0.13916990247E+02  0.37984458204E+02 -0.17576503120E+02  0.44107087237E+02  0.00000000000E+00 0. -1.
        -13    1    4    4    0    0 -0.43568163963E+02 -0.17491204727E+02  0.14462438896E+03  0.15205374391E+03  0.00000000000E+00 0. -1.
         13    1    4    4    0    0  0.32658400810E+02  0.14456429172E+02  0.32307836974E+02  0.48159690799E+02  0.00000000000E+00 0.  1.
         21    1    1    2  503  501 -0.15051495949E+02 -0.23593762339E+02  0.46446344548E+02  0.54226156728E+02  0.00000000000E+00 0.  1.
         -2    1    1    2    0  502 -0.46794344128E+02  0.24586386386E+02  0.24641766415E+03  0.25202354304E+03  0.00000000000E+00 0.  1.
<scales pt_clust_5="13000.00000" pt_clust_6="13000.00000" pt_clust_7="13000.00000" pt_clust_8="13000.00000" pt_clust_9="27.98595" pt_clust_10="55.81677"></scales>
<clustering>
<clus scale="   27.986">  1  9  2 -1</clus>
<clus scale="   55.817">  1 10  2 -1</clus>
<clus scale="   90.298">  5  6 -1 -1</clus>
<clus scale="   93.017">  7  8 -1 -1</clus>
<clus scale="  107.310">  2  5  1 -1</clus>
<clus scale="   27.986">  1  5  2 -1</clus>
</clustering>
</event>
<event>
10    2  0.3544405E-006  0.1123887E+03  0.7546771E-02  0.1257121E+00
         21   -1    0    0  501  502  0.00000000000E+00  0.00000000000E+00  0.25326968360E+03  0.25326968360E+03  0.00000000000E+00 0. -1.
          1   -1    0    0  503    0 -0.00000000000E+00 -0.00000000000E+00 -0.10887364980E+03  0.10887364980E+03  0.00000000000E+00 0. -1.
         23    2    1    2    0    0  0.44003860926E+02 -0.29714277892E+02 -0.13745574503E+02  0.10748329080E+03  0.92436134143E+02 0.  0.
         23    2    1    2    0    0 -0.77155307613E+02  0.42885047932E+02  0.86244021578E+02  0.15273344217E+03  0.89985578122E+02 0.  0.
        -11    1    3    3    0    0  0.52219548410E+02 -0.28186837809E+00 -0.41112811729E+02  0.66462199589E+02  0.00000000000E+00 0.  1.
         11    1    3    3    0    0 -0.82156874838E+01 -0.29432409514E+02  0.27367237226E+02  0.41021091209E+02  0.00000000000E+00 0. -1.
        -13    1    4    4    0    0 -0.97248483513E+02  0.36348886513E+02  0.78774781213E+02  0.13032258151E+03  0.00000000000E+00 0. -1.
         13    1    4    4    0    0  0.20093175900E+02  0.65361614187E+01  0.74692403641E+01  0.22410860659E+02  0.00000000000E+00 0.  1.
         21    1    1    2  503  502 -0.11584894434E+02 -0.16445175982E+02  0.39372767325E+01  0.20497700852E+02  0.00000000000E+00 0. -1.
          1    1    1    2  501    0  0.44736341121E+02  0.32744059420E+01  0.67960309994E+02  0.81428899573E+02  0.00000000000E+00 0. -1.
<scales pt_clust_5="13000.00000" pt_clust_6="13000.00000" pt_clust_7="13000.00000" pt_clust_8="13000.00000" pt_clust_9="20.11600" pt_clust_10="44.01448"></scales>
<clustering>
<clus scale="   20.116">  2  9  1 -1</clus>
<clus scale="   44.014">  1 10  2 -1</clus>
<clus scale="   89.986">  7  8 -1 -1</clus>
<clus scale="   92.436">  5  6 -1 -1</clus>
<clus scale="  110.382">  1  7  2 -1</clus>
<clus scale="   44.014">  1  5  2 -1</clus>
</clustering>
</event>
<event>
10    2  0.3544405E-006  0.4042195E+03  0.7546771E-02  0.1083489E+00
          3   -1    0    0  503    0 -0.00000000000E+00  0.00000000000E+00  0.10831300199E+04  0.10831300199E+04  0.00000000000E+00 0. -1.
         21   -1    0    0  501  502  0.00000000000E+00 -0.00000000000E+00 -0.41810012711E+03  0.41810012711E+03  0.00000000000E+00 0.  1.
         23    2    1    2    0    0 -0.40818720484E+03 -0.11462740602E+03  0.57849695608E+03  0.72286016839E+03  0.90065856184E+02 0.  0.
         23    2    1    2    0    0  0.85509884315E+02  0.25334490624E+02 -0.52827351115E+02  0.14244811380E+03  0.97708542973E+02 0.  0.
        -11    1    3    3    0    0 -0.29690126071E+03 -0.12218476827E+03  0.44843179745E+03  0.55151659374E+03  0.00000000000E+00 0.  1.
         11    1    3    3    0    0 -0.11128594413E+03  0.75573622482E+01  0.13006515863E+03  0.17134357465E+03  0.00000000000E+00 0. -1.
        -13    1    4    4    0    0  0.41108254073E+02  0.34450848415E+02  0.19517444990E+02  0.57076091040E+02  0.00000000000E+00 0. -1.
         13    1    4    4    0    0  0.44401630242E+02 -0.91163577902E+01 -0.72344796105E+02  0.85372022765E+02  0.00000000000E+00 0.  1.
         21    1    1    2  503  502  0.32802432458E+03  0.15136733940E+03  0.29619461022E+03  0.46716514862E+03  0.00000000000E+00 0. -1.
          3    1    1    2  501    0 -0.53470040568E+01 -0.62074424009E+02 -0.15683432242E+03  0.16875671618E+03  0.00000000000E+00 0. -1.
<scales pt_clust_5="13000.00000" pt_clust_6="13000.00000" pt_clust_7="13000.00000" pt_clust_8="13000.00000" pt_clust_9="394.05782" pt_clust_10="62.30429"></scales>
<clustering>
<clus scale="   62.304">  2 10  1 -1</clus>
<clus scale="   90.066">  5  6 -1 -1</clus>
<clus scale="   97.709">  7  8 -1 -1</clus>
<clus scale="  128.514">  2  7  1 -1</clus>
<clus scale="  394.058">  2  9  1 -1</clus>
<clus scale="   62.304">  2  5  1 -1</clus>
</clustering>
</event>
<event>
10    2  0.3544405E-006  0.1652496E+03  0.7546771E-02  0.1194680E+00
         21   -1    0    0  501  502  0.00000000000E+00  0.00000000000E+00  0.12288196300E+04  0.12288196300E+04  0.00000000000E+00 0. -1.
          2   -1    0    0  503    0 -0.00000000000E+00 -0.00000000000E+00 -0.13829387534E+03  0.13829387534E+03  0.00000000000E+00 0. -1.
         23    2    1    2    0    0  0.22697563837E+02  0.76765499480E+02  0.58965422276E+01  0.12144133039E+03  0.91132355409E+02 0.  0.
         23    2    1    2    0    0 -0.12613749568E+03  0.22282019662E+02  0.26210151376E+02  0.15909045691E+03  0.90640196532E+02 0.  0.
        -11    1    4    4    0    0 -0.29885138681E+02 -0.34019569803E+02  0.10456736529E+02  0.46473605222E+02  0.00000000000E+00 0.  1.
         11    1    4    4    0    0 -0.96252357002E+02  0.56301589464E+02  0.15753414848E+02  0.11261685169E+03  0.00000000000E+00 0. -1.
        -13    1    3    3    0    0 -0.31173082937E+02  0.25541331268E+02 -0.16881052710E+02  0.43693141834E+02  0.00000000000E+00 0.  1.
         13    1    3    3    0    0  0.53870646773E+02  0.51224168212E+02  0.22777594938E+02  0.77748188557E+02  0.00000000000E+00 0. -1.
         21    1    1    2  503  502  0.19198484559E+02  0.14319852750E+02  0.59512998357E+01  0.24679099697E+02  0.00000000000E+00 0. -1.
          2    1    1    2  501    0  0.84241447288E+02 -0.11336737189E+03  0.10524677612E+04  0.10619026184E+04  0.00000000000E+00 0. -1.
<scales pt_clust_5="13000.00000" pt_clust_6="13000.00000" pt_clust_7="13000.00000" pt_clust_8="13000.00000" pt_clust_9="23.95078" pt_clust_10="138.17300"></scales>
<clustering>
<clus scale="   23.951">  2  9  1 -1</clus>
<clus scale="   90.640">  5  6 -1 -1</clus>
<clus scale="   91.132">  7  8 -1 -1</clus>
<clus scale="  127.295">  2  7  1 -1</clus>
<clus scale="  138.173">  1 10  2 -1</clus>
<clus scale="  138.173">  1  5  2 -1</clus>
</clustering>
</event>
<event>
10    2  0.3544405E-006  0.9772992E+02  0.7546771E-02  0.1286091E+00
         21   -1    0    0  501  502  0.00000000000E+00  0.00000000000E+00  0.46355058839E+02  0.46355058839E+02  0.00000000000E+00 0.  1.
          2   -1    0    0  503    0 -0.00000000000E+00 -0.00000000000E+00 -0.72315154695E+03  0.72315154695E+03  0.00000000000E+00 0. -1.
         23    2    1    2    0    0  0.23728078758E+02  0.67141217040E+01 -0.51620826334E+03  0.52485145106E+03  0.91596797916E+02 0.  0.
         23    2    1    2    0    0 -0.38653208558E+00 -0.13883543747E+02 -0.89508181829E+02  0.12751155643E+03  0.89747313134E+02 0.  0.
        -11    1    3    3    0    0 -0.26872622249E+02  0.29010726142E+02 -0.21014706186E+03  0.21383532839E+03  0.00000000000E+00 0. -1.
         11    1    3    3    0    0  0.50600701008E+02 -0.22296604438E+02 -0.30606120147E+03  0.31101612267E+03  0.00000000000E+00 0.  1.
        -13    1    4    4    0    0  0.52019702372E+01  0.37400535407E+02 -0.26768459702E+02  0.46286185606E+02  0.00000000000E+00 0.  1.
         13    1    4    4    0    0 -0.55885023228E+01 -0.51284079154E+02 -0.62739722127E+02  0.81225370824E+02  0.00000000000E+00 0. -1.
         21    1    1    2  503  502  0.18688108138E+02  0.23692312353E+02 -0.64886637245E+02  0.71560091835E+02  0.00000000000E+00 0.  1.
          2    1    1    2  501    0 -0.42029654810E+02 -0.16522890309E+02 -0.61934056986E+01  0.45583506467E+02  0.00000000000E+00 0. -1.
<scales pt_clust_5="13000.00000" pt_clust_6="13000.00000" pt_clust_7="13000.00000" pt_clust_8="13000.00000" pt_clust_9="30.17567" pt_clust_10="44.13475"></scales>
<clustering>
<clus scale="   30.176">  2  9  1 -1</clus>
<clus scale="   44.135">  1 10  2 -1</clus>
<clus scale="   89.747">  7  8 -1 -1</clus>
<clus scale="   91.597">  5  6 -1 -1</clus>
<clus scale="   95.999">  1  7  2 -1</clus>
<clus scale="   44.135">  1  5  2 -1</clus>
</clustering>
</event>
<event>
10    2  0.3544405E-006  0.1120873E+03  0.7546771E-02  0.1267596E+00
         21   -1    0    0  503  502  0.00000000000E+00  0.00000000000E+00  0.44497242909E+03  0.44497242909E+03  0.00000000000E+00 0. -1.
         -3   -1    0    0    0  501 -0.00000000000E+00 -0.00000000000E+00 -0.70191914522E+02  0.70191914522E+02  0.00000000000E+00 0.  1.
         23    2    1    2    0    0  0.17415494330E+02 -0.26429837942E+02  0.43154782017E+02  0.10485936873E+03  0.90173811187E+02 0.  0.
         23    2    1    2    0    0  0.15020105720E+02 -0.21240380786E+02  0.18030129316E+03  0.21369280209E+03  0.11171078729E+03 0.  0.
        -13    1    3    3    0    0 -0.36989006198E+02 -0.76862847326E+01  0.13451499099E+02  0.40102473497E+02  0.00000000000E+00 0.  1.
         13    1    3    3    0    0  0.54404500528E+02 -0.18743553209E+02  0.29703282918E+02  0.64756895237E+02  0.00000000000E+00 0. -1.
        -13    1    4    4    0    0 -0.44049037683E+01  0.36618274144E+02  0.12834849326E+03  0.13354264076E+03  0.00000000000E+00 0.  1.
         13    1    4    4    0    0  0.19425009488E+02 -0.57858654930E+02  0.51952799901E+02  0.80150161331E+02  0.00000000000E+00 0. -1.
         21    1    1    2  503  501 -0.51011493344E+02  0.39096287802E+02  0.25514732247E+02  0.69149792008E+02  0.00000000000E+00 0.  1.
         -3    1    1    2    0  502  0.18575893294E+02  0.85739309262E+01  0.12580970715E+03  0.12746238079E+03  0.00000000000E+00 0.  1.
<scales pt_clust_5="13000.00000" pt_clust_6="13000.00000" pt_clust_7="13000.00000" pt_clust_8="13000.00000" pt_clust_9="62.91138" pt_clust_10="20.45913"></scales>
<clustering>
<clus scale="   20.459">  1 10  2 -1</clus>
<clus scale="   62.911">  2  9  1 -1</clus>
<clus scale="   90.174">  5  6 -1 -1</clus>
<clus scale="   90.640">  2  5  1 -1</clus>
<clus scale="  111.711">  7  8 -1 -1</clus>
<clus scale="   20.459">  1  5  2 -1</clus>
</clustering>
</event>
<event>
10    2  0.3544405E-006  0.3096109E+03  0.7546771E-02  0.1080545E+00
          3   -1    0    0  503    0 -0.00000000000E+00  0.00000000000E+00  0.23729222026E+03  0.23729222026E+03  0.00000000000E+00 0. -1.
         21   -1    0    0  501  502  0.00000000000E+00 -0.00000000000E+00 -0.52180417195E+03  0.52180417195E+03  0.00000000000E+00 0.  1.
         23    2    1    2    0    0  0.30923307812E+03  0.39551152884E+02 -0.64576098044E+02  0.33127194684E+03  0.91551297243E+02 0.  0.
         23    2    1    2    0    0 -0.28118042660E+03 -0.29745558134E+02 -0.18534792908E+03  0.35016701744E+03  0.91191308547E+02 0.  0.
        -11    1    4    4    0    0 -0.11984714111E+03 -0.57956840318E+02 -0.89253875452E+02  0.16027659485E+03  0.00000000000E+00 0.  1.
         11    1    4    4    0    0 -0.16133328549E+03  0.28211282183E+02 -0.96094053629E+02  0.18989042259E+03  0.00000000000E+00 0. -1.
        -13    1    3    3    0    0  0.17044181548E+03 -0.23862886495E+02 -0.28133377510E+02  0.17438846506E+03  0.00000000000E+00 0.  1.
         13    1    3    3    0    0  0.13879126264E+03  0.63414039378E+02 -0.36442720534E+02  0.15688348178E+03  0.00000000000E+00 0. -1.
         21    1    1    2  503  502 -0.21704776141E+02  0.10094236397E+02  0.11870858100E+02  0.26719060384E+02  0.00000000000E+00 0. -1.
          3    1    1    2  501    0 -0.63478753727E+01 -0.19899831146E+02 -0.46458782672E+02  0.50938367551E+02  0.00000000000E+00 0. -1.
<scales pt_clust_5="13000.00000" pt_clust_6="13000.00000" pt_clust_7="13000.00000" pt_clust_8="13000.00000" pt_clust_9="23.89808" pt_clust_10="20.88777"></scales>
<clustering>
<clus scale="   20.888">  2 10  1 -1</clus>
<clus scale="   23.898">  1  9  2 -1</clus>
<clus scale="   91.191">  5  6 -1 -1</clus>
<clus scale="   91.551">  7  8 -1 -1</clus>
<clus scale="  309.505">  2  5  1 -1</clus>
<clus scale="   20.888">  2  5  1 -1</clus>
</clustering>
</event>
<event>
10    2  0.3544405E-006  0.1435492E+03  0.7546771E-02  0.1221734E+00
         -1   -1    0    0    0  501 -0.00000000000E+00  0.00000000000E+00  0.48808946322E+03  0.48808946322E+03  0.00000000000E+00 0.  1.
         21   -1    0    0  503  502  0.00000000000E+00 -0.00000000000E+00 -0.76861600249E+03  0.76861600249E+03  0.00000000000E+00 0.  1.
         23    2    1    2    0    0  0.83682922330E+02  0.52923038279E+02  0.32979721786E+03  0.35622512448E+03  0.91249410579E+02 0.  0.
         23    2    1    2    0    0 -0.73557909720E+02  0.11377941006E+02  0.40245845190E+02  0.12346036526E+03  0.89902781446E+02 0.  0.
        -11    1    3    3    0    0 -0.64744290681E+01  0.42995842208E+02  0.12112367247E+03  0.12869150987E+03  0.00000000000E+00 0.  1.
         11    1    3    3    0    0  0.90157351398E+02  0.99271960707E+01  0.20867354539E+03  0.22753361462E+03  0.00000000000E+00 0. -1.
        -13    1    4    4    0    0 -0.31772446840E+02  0.40916244692E+02  0.49277803576E+02  0.71497757890E+02  0.00000000000E+00 0. -1.
         13    1    4    4    0    0 -0.41785462880E+02 -0.29538303686E+02 -0.90319583859E+01  0.51962607373E+02  0.00000000000E+00 0.  1.
         21    1    1    2  503  501 -0.10861768006E+03 -0.59420573868E+01  0.75264888233E+01  0.10904016004E+03  0.00000000000E+00 0.  1.
         -1    1    1    2    0  502  0.98492667450E+02 -0.58358921898E+02 -0.65809609115E+03  0.66797981593E+03  0.00000000000E+00 0.  1.
<scales pt_clust_5="13000.00000" pt_clust_6="13000.00000" pt_clust_7="13000.00000" pt_clust_8="13000.00000" pt_clust_9="108.78009" pt_clust_10="111.91006"></scales>
<clustering>
<clus scale="   89.903">  7  8 -1 -1</clus>
<clus scale="   91.249">  5  6 -1 -1</clus>
<clus scale="  108.780">  1  9  2 -1</clus>
<clus scale="  108.780">  1  5  2 -1</clus>
<clus scale="  111.910">  2 10  1 -1</clus>
<clus scale="  111.910">  2  5  1 -1</clus>
</clustering>
</event>
<event>
10    2  0.3544405E-006  0.9925343E+02  0.7546771E-02  0.1282714E+00
          2   -1    0    0  503    0 -0.00000000000E+00  0.00000000000E+00  0.76609709501E+03  0.76609709501E+03  0.00000000000E+00 0. -1.
         21   -1    0    0  501  502  0.00000000000E+00 -0.00000000000E+00 -0.62366663963E+03  0.62366663963E+03  0.00000000000E+00 0. -1.
         23    2    1    2    0    0  0.46858623059E+02 -0.53604260474E+02  0.29261875643E+03  0.31410676732E+03  0.89264647894E+02 0.  0.
         23    2    1    2    0    0 -0.70752269471E+02  0.14482979155E+02 -0.49848896746E+03  0.51184369750E+03  0.90978457161E+02 0.  0.
        -11    1    4    4    0    0 -0.39354952684E+02 -0.37402174394E+02 -0.27269238078E+03  0.27804472569E+03  0.00000000000E+00 0.  1.
         11    1    4    4    0    0 -0.31397316787E+02  0.51885153549E+02 -0.22579658669E+03  0.23379897181E+03  0.00000000000E+00 0. -1.
        -13    1    3    3    0    0  0.29617878596E+02 -0.75051026521E+02  0.25525761301E+03  0.26770566732E+03  0.00000000000E+00 0. -1.
         13    1    3    3    0    0  0.17240744463E+02  0.21446766047E+02  0.37361143421E+02  0.46401100000E+02  0.00000000000E+00 0.  1.
         21    1    1    2  503  502 -0.10117210154E+02  0.68183302732E+02  0.44866547348E+03  0.45392954058E+03  0.00000000000E+00 0. -1.
          2    1    1    2  501    0  0.34010856565E+02 -0.29062021413E+02 -0.10036480708E+03  0.10988372924E+03  0.00000000000E+00 0. -1.
<scales pt_clust_5="13000.00000" pt_clust_6="13000.00000" pt_clust_7="13000.00000" pt_clust_8="13000.00000" pt_clust_9="68.75873" pt_clust_10="44.73633"></scales>
<clustering>
<clus scale="   44.736">  2 10  1 -1</clus>
<clus scale="   68.759">  1  9  2 -1</clus>
<clus scale="   89.265">  7  8 -1 -1</clus>
<clus scale="   90.978">  5  6 -1 -1</clus>
<clus scale="   97.685">  1  7  2 -1</clus>
<clus scale="   44.736">  2  5  1 -1</clus>
</clustering>
</event>
<event>
10    2  0.3544405E-006  0.1437837E+03  0.7546771E-02  0.1209683E+00
          1   -1    0    0  503    0 -0.00000000000E+00  0.00000000000E+00  0.43663773940E+03  0.43663773940E+03  0.00000000000E+00 0. -1.
         21   -1    0    0  501  502  0.00000000000E+00 -0.00000000000E+00 -0.14502694686E+03  0.14502694686E+03  0.00000000000E+00 0.  1.
         23    2    1    2    0    0  0.68005513969E+02  0.75095604696E+02  0.29427518643E+03  0.32235820958E+03  0.83981129811E+02 0.  0.
         23    2    1    2    0    0 -0.51488938979E+02 -0.11976950003E+03  0.41360419952E+02  0.16408803698E+03  0.90655146389E+02 0.  0.
        -11    1    4    4    0    0 -0.23484505965E+01 -0.10013154870E+03  0.57920749540E+01  0.10032641924E+03  0.00000000000E+00 0.  1.
         11    1    4    4    0    0 -0.49140488383E+02 -0.19637951331E+02  0.35568344998E+02  0.63761617741E+02  0.00000000000E+00 0. -1.
        -13    1    3    3    0    0  0.14029386254E+02  0.56154182539E+02  0.22596452754E+03  0.23325969134E+03  0.00000000000E+00 0. -1.
         13    1    3    3    0    0  0.53976127715E+02  0.18941422157E+02  0.68310658885E+02  0.89098518246E+02  0.00000000000E+00 0.  1.
         21    1    1    2  503  502 -0.97692675083E+01  0.17658663165E+02  0.18119080625E+02  0.27121357914E+02  0.00000000000E+00 0. -1.
          1    1    1    2  501    0 -0.67473074813E+01  0.27015232171E+02 -0.62143894467E+02  0.68097081780E+02  0.00000000000E+00 0. -1.
<scales pt_clust_5="13000.00000" pt_clust_6="13000.00000" pt_clust_7="13000.00000" pt_clust_8="13000.00000" pt_clust_9="20.18086" pt_clust_10="27.98531"></scales>
<clustering>
<clus scale="   20.181">  1  9  2 -1</clus>
<clus scale="   27.985">  2 10  1 -1</clus>
<clus scale="   83.981">  7  8 -1 -1</clus>
<clus scale="   90.655">  5  6 -1 -1</clus>
<clus scale="  139.672">  1  7  2 -1</clus>
<clus scale="   27.985">  2  5  1 -1</clus>
</clustering>
</event>
<event>
10    2  0.3544405E-006  0.5448189E+03  0.7546771E-02  0.1002708E+00
         21   -1    0    0  501  502  0.00000000000E+00  0.00000000000E+00  0.50088264518E+03  0.50088264518E+03  0.00000000000E+00 0. -1.
          1   -1    0    0  503    0 -0.00000000000E+00 -0.00000000000E+00 -0.15542706098E+04  0.15542706098E+04  0.00000000000E+00 0. -1.
         23    2    1    2    0    0 -0.46368723185E+02 -0.57720563089E+03 -0.79998173194E+03  0.99209258584E+03  0.94660068752E+02 0.  0.
         23    2    1    2    0    0  0.21766869877E+03  0.44625686367E+03 -0.37148080957E+03  0.62717232182E+03  0.93926985317E+02 0.  0.
        -13    1    4    4    0    0  0.19096134533E+03  0.34981712541E+03 -0.25291451364E+03  0.47202119428E+03  0.00000000000E+00 0.  1.
         13    1    4    4    0    0  0.26707353439E+02  0.96439738264E+02 -0.11856629593E+03  0.15515112754E+03  0.00000000000E+00 0. -1.
        -13    1    3    3    0    0  0.24098317934E+02 -0.10545715245E+03 -0.12084419516E+03  0.16218896213E+03  0.00000000000E+00 0.  1.
         13    1    3    3    0    0 -0.70467041118E+02 -0.47174847843E+03 -0.67913753678E+03  0.82990362371E+03  0.00000000000E+00 0. -1.
         21    1    1    2  503  502  0.29093600661E+02 -0.24872804302E+02 -0.96302353387E+02  0.10363029123E+03  0.00000000000E+00 0.  1.
          1    1    1    2  501    0 -0.20039357624E+03  0.15582157151E+03  0.21437693033E+03  0.33225805604E+03  0.00000000000E+00 0. -1.
<scales pt_clust_5="13000.00000" pt_clust_6="13000.00000" pt_clust_7="13000.00000" pt_clust_8="13000.00000" pt_clust_9="38.27655" pt_clust_10="252.29670"></scales>
<clustering>
<clus scale="   38.277">  2  9  1 -1</clus>
<clus scale="   93.927">  5  6 -1 -1</clus>
<clus scale="   94.660">  7  8 -1 -1</clus>
<clus scale="  252.297">  1 10  2 -1</clus>
<clus scale="  544.692">  1  5  2 -1</clus>
<clus scale="  252.297">  1  5  2 -1</clus>
</clustering>
</event>
<event>
10    2  0.3544405E-006  0.1144748E+03  0.7546771E-02  0.1253756E+00
          3   -1    0    0  503    0 -0.00000000000E+00  0.00000000000E+00  0.61846061498E+03  0.61846061498E+03  0.00000000000E+00 0. -1.
         21   -1    0    0  501  502  0.00000000000E+00 -0.00000000000E+00 -0.12630276528E+03  0.12630276528E+03  0.00000000000E+00 0.  1.
         23    2    1    2    0    0  0.32913242224E+01 -0.69356595059E+02  0.50471018008E+03  0.51764564625E+03  0.91670492022E+02 0.  0.
         23    2    1    2    0    0 -0.71065475661E+02  0.21956832340E+01 -0.48763246614E+01  0.11882896133E+03  0.95086385213E+02 0.  0.
        -11    1    3    3    0    0  0.31573130622E+02  0.76992522907E+01  0.16383836315E+03  0.16703038736E+03  0.00000000000E+00 0.  1.
         11    1    3    3    0    0 -0.28281806400E+02 -0.77055847350E+02  0.34087181693E+03  0.35061525889E+03  0.00000000000E+00 0. -1.
        -13    1    4    4    0    0 -0.46448534610E+00  0.26659919370E+02 -0.29870314389E+02  0.40040014100E+02  0.00000000000E+00 0.  1.
         13    1    4    4    0    0 -0.70600990314E+02 -0.24464236136E+02  0.24993989728E+02  0.78788947230E+02  0.00000000000E+00 0. -1.
         21    1    1    2  503  502  0.21379878871E+02  0.25582278103E+02  0.21318123973E+02  0.39572902132E+02  0.00000000000E+00 0.  1.
          3    1    1    2  501    0  0.46394272567E+02  0.41578633722E+02 -0.28994129690E+02  0.68715870552E+02  0.00000000000E+00 0. -1.
<scales pt_clust_5="13000.00000" pt_clust_6="13000.00000" pt_clust_7="13000.00000" pt_clust_8="13000.00000" pt_clust_9="33.33995" pt_clust_10="76.08249"></scales>
<clustering>
<clus scale="   33.340">  2  9  1 -1</clus>
<clus scale="   76.082">  2 10  1 -1</clus>
<clus scale="   91.670">  5  6 -1 -1</clus>
<clus scale="   95.086">  7  8 -1 -1</clus>
<clus scale="  111.654">  1  5  2 -1</clus>
<clus scale="   33.340">  2  5  1 -1</clus>
</clustering>
</event>
<event>
10    2  0.3544405E-006  0.1039286E+03  0.7546771E-02  0.1272680E+00
          2   -1    0    0  503    0 -0.00000000000E+00  0.00000000000E+00  0.42745032960E+03  0.42745032960E+03  0.00000000000E+00 0. -1.
         21   -1    0    0  501  502  0.00000000000E+00 -0.00000000000E+00 -0.15218946269E+03  0.15218946269E+03  0.00000000000E+00 0.  1.
         23    2    1    2    0    0  0.21909932330E+02  0.64897980072E+02  0.39579774816E+02  0.12107271536E+03  0.91652882537E+02 0.  0.
         23    2    1    2    0    0 -0.18260576712E+02 -0.34934516528E+02  0.14528889154E+02  0.99927515433E+02  0.90667252156E+02 0.  0.
        -11    1    4    4    0    0  0.32767270977E+02 -0.40628763383E+01 -0.11350783031E+02  0.34914771757E+02  0.00000000000E+00 0. -1.
         11    1    4    4    0    0 -0.51027847689E+02 -0.30871640190E+02  0.25879672185E+02  0.65012743675E+02  0.00000000000E+00 0.  1.
        -13    1    3    3    0    0 -0.28333815632E+02  0.42281276336E+02 -0.36658580822E+01  0.51028912906E+02  0.00000000000E+00 0.  1.
         13    1    3    3    0    0  0.50243747962E+02  0.22616703736E+02  0.43245632898E+02  0.70043802452E+02  0.00000000000E+00 0. -1.
         21    1    1    2  503  502 -0.27735014264E+02 -0.35703784455E+02  0.28583045666E+03  0.28938389934E+03  0.00000000000E+00 0. -1.
          2    1    1    2  501    0  0.24085658646E+02  0.57403209109E+01 -0.64678253724E+02  0.69255662161E+02  0.00000000000E+00 0. -1.
<scales pt_clust_5="13000.00000" pt_clust_6="13000.00000" pt_clust_7="13000.00000" pt_clust_8="13000.00000" pt_clust_9="44.80913" pt_clust_10="24.76026"></scales>
<clustering>
<clus scale="   24.760">  2 10  1 -1</clus>
<clus scale="   44.809">  1  9  2 -1</clus>
<clus scale="   90.667">  5  6 -1 -1</clus>
<clus scale="   91.653">  7  8 -1 -1</clus>
<clus scale="  103.060">  2  5  1 -1</clus>
<clus scale="   24.760">  2  5  1 -1</clus>
</clustering>
</event>
<event>
10    2  0.3544405E-006  0.1505614E+03  0.7546771E-02  0.1221052E+00
         21   -1    0    0  501  502  0.00000000000E+00  0.00000000000E+00  0.87350826304E+02  0.87350826304E+02  0.00000000000E+00 0.  1.
          1   -1    0    0  503    0 -0.00000000000E+00 -0.00000000000E+00 -0.54323973273E+03  0.54323973273E+03  0.00000000000E+00 0. -1.
         23    2    1    2    0    0  0.11382028242E+02 -0.21659815688E+02 -0.17993447699E+03  0.20118740332E+03  0.86609797741E+02 0.  0.
         23    2    1    2    0    0 -0.11416060160E+03 -0.60922547650E+02 -0.96213629240E+02  0.18501267783E+03  0.90710687003E+02 0.  0.
        -11    1    3    3    0    0  0.82934219125E+01 -0.55159566852E+02 -0.10091866499E+03  0.11530800321E+03  0.00000000000E+00 0. -1.
         11    1    3    3    0    0  0.30886063295E+01  0.33499751164E+02 -0.79015811999E+02  0.85879400109E+02  0.00000000000E+00 0.  1.
        -13    1    4    4    0    0 -0.93552434170E+02 -0.42219551584E+02 -0.11288624367E+03  0.15257081138E+03  0.00000000000E+00 0. -1.
         13    1    4    4    0    0 -0.20608167429E+02 -0.18702996066E+02  0.16672614433E+02  0.32441866448E+02  0.00000000000E+00 0.  1.
         21    1    1    2  503  502  0.41122798840E+02 -0.19952854426E+02 -0.55647871647E+02  0.72013100218E+02  0.00000000000E+00 0. -1.
          1    1    1    2  501    0  0.61655774516E+02  0.10253521776E+03 -0.12409292855E+03  0.17237737766E+03  0.00000000000E+00 0. -1.
<scales pt_clust_5="13000.00000" pt_clust_6="13000.00000" pt_clust_7="13000.00000" pt_clust_8="13000.00000" pt_clust_9="45.70778" pt_clust_10="120.16783"></scales>
<clustering>
<clus scale="   45.708">  2  9  1 -1</clus>
<clus scale="   86.610">  5  6 -1 -1</clus>
<clus scale="   90.711">  7  8 -1 -1</clus>
<clus scale="   95.633">  2  5  1 -1</clus>
<clus scale="  120.168">  1 10  2 -1</clus>
<clus scale="  120.168">  1  5  2 -1</clus>
</clustering>
</event>
<event>
10    2  0.3544405E-006  0.1496280E+03  0.7546771E-02  0.1220386E+00
          1   -1    0    0  503    0 -0.00000000000E+00  0.00000000000E+00  0.67269638918E+02  0.67269638918E+02  0.00000000000E+00 0. -1.
         21   -1    0    0  501  502  0.00000000000E+00 -0.00000000000E+00 -0.97311969363E+03  0.97311969363E+03  0.00000000000E+00 0. -1.
         23    2    1    2    0    0 -0.11068655868E+01  0.23493182521E+02 -0.24567368554E+02  0.99243403032E+02  0.93233806482E+02 0.  0.
         23    2    1    2    0    0  0.96656904712E+02  0.62509837459E+02 -0.36627836139E+03  0.39481106135E+03  0.92010320802E+02 0.  0.
        -11    1    3    3    0    0  0.22993007554E+01 -0.35603224644E+02 -0.14867569826E+01  0.35708358060E+02  0.00000000000E+00 0.  1.
         11    1    3    3    0    0 -0.34061663422E+01  0.59096407166E+02 -0.23080611572E+02  0.63535044972E+02  0.00000000000E+00 0. -1.
        -13    1    4    4    0    0  0.81950570101E+02  0.78604119084E+02 -0.34895186465E+03  0.36696308713E+03  0.00000000000E+00 0. -1.
         13    1    4    4    0    0  0.14706334611E+02 -0.16094281624E+02 -0.17326496746E+02  0.27847974221E+02  0.00000000000E+00 0.  1.
         21    1    1    2  503  502 -0.20360887622E+02  0.95236951144E+01 -0.63541196549E+01  0.23358967228E+02  0.00000000000E+00 0.  1.
          1    1    1    2  501    0 -0.75189151504E+02 -0.95526715095E+02 -0.50865020511E+03  0.52297590093E+03  0.00000000000E+00 0. -1.
<scales pt_clust_5="13000.00000" pt_clust_6="13000.00000" pt_clust_7="13000.00000" pt_clust_8="13000.00000" pt_clust_9="22.47813" pt_clust_10="117.99423"></scales>
<clustering>
<clus scale="   22.478">  1  9  2 -1</clus>
<clus scale="   92.010">  7  8 -1 -1</clus>
<clus scale="   93.234">  5  6 -1 -1</clus>
<clus scale="   98.806">  1  5  2 -1</clus>
<clus scale="  117.994">  2 10  1 -1</clus>
<clus scale="  117.994">  2  5  1 -1</clus>
</clustering>
</event>
<event>
10    2  0.3544405E-006  0.1137985E+03  0.7546771E-02  0.1255467E+00
          1   -1    0    0  503    0 -0.00000000000E+00  0.00000000000E+00  0.11656185962E+03  0.11656185962E+03  0.00000000000E+00 0. -1.
         21   -1    0    0  501  502  0.00000000000E+00 -0.00000000000E+00 -0.21479409134E+03  0.21479409134E+03  0.00000000000E+00 0.  1.
         23    2    1    2    0    0 -0.61985604230E+02  0.19045741809E+02 -0.39269488616E+02  0.11878951595E+03  0.91454365399E+02 0.  0.
         23    2    1    2    0    0  0.65466313116E+02 -0.14767299384E+02 -0.74281173834E+02  0.13230849003E+03  0.86509724670E+02 0.  0.
        -11    1    4    4    0    0  0.61941099511E+02 -0.40980017517E+02 -0.75400414214E+02  0.10583611911E+03  0.00000000000E+00 0.  1.
         11    1    4    4    0    0  0.35252136049E+01  0.26212718133E+02  0.11192403803E+01  0.26472370916E+02  0.00000000000E+00 0. -1.
        -13    1    3    3    0    0 -0.45116039005E+02  0.44522316783E+02 -0.55448147329E+02  0.84215145369E+02  0.00000000000E+00 0. -1.
         13    1    3    3    0    0 -0.16869565224E+02 -0.25476574974E+02  0.16178658714E+02  0.34574370580E+02  0.00000000000E+00 0.  1.
         21    1    1    2  503  502 -0.23728659199E+02 -0.63056326495E+01  0.40818547809E+02  0.47633644787E+02  0.00000000000E+00 0. -1.
          1    1    1    2  501    0  0.20247950312E+02  0.20271902247E+01 -0.25500117085E+02  0.32624300198E+02  0.00000000000E+00 0. -1.
<scales pt_clust_5="13000.00000" pt_clust_6="13000.00000" pt_clust_7="13000.00000" pt_clust_8="13000.00000" pt_clust_9="24.18370" pt_clust_10="20.34918"></scales>
<clustering>
<clus scale="   20.349">  2 10  1 -1</clus>
<clus scale="   24.184">  1  9  2 -1</clus>
<clus scale="   86.510">  5  6 -1 -1</clus>
<clus scale="   91.454">  7  8 -1 -1</clus>
<clus scale="  109.864">  2  5  1 -1</clus>
<clus scale="   20.349">  2  5  1 -1</clus>
</clustering>
</event>
<event>
10    2  0.3544405E-006  0.1344335E+03  0.7546771E-02  0.1238978E+00
          1   -1    0    0  503    0 -0.00000000000E+00  0.00000000000E+00  0.37885685758E+03  0.37885685758E+03  0.00000000000E+00 0. -1.
         21   -1    0    0  501  502  0.00000000000E+00 -0.00000000000E+00 -0.90083742458E+02  0.90083742458E+02  0.00000000000E+00 0. -1.
         23    2    1    2    0    0  0.24202699160E+01  0.15166416499E+02  0.51419881159E+02  0.10713937895E+03  0.92730601456E+02 0.  0.
         23    2    1    2    0    0 -0.52623785270E+02 -0.69561884306E+02  0.14202023091E+03  0.19206728639E+03  0.95456681218E+02 0.  0.
        -11    1    4    4    0    0  0.23094994001E+00  0.21401039377E+02  0.11082889914E+02  0.24101623869E+02  0.00000000000E+00 0.  1.
         11    1    4    4    0    0 -0.52854735210E+02 -0.90962923683E+02  0.13093734099E+03  0.16796566252E+03  0.00000000000E+00 0. -1.
        -11    1    3    3    0    0  0.25646112865E+02  0.40555532574E+02  0.54474130059E+02  0.72594112524E+02  0.00000000000E+00 0.  1.
         11    1    3    3    0    0 -0.23225842949E+02 -0.25389116076E+02 -0.30542488998E+01  0.34545266421E+02  0.00000000000E+00 0. -1.
         21    1    1    2  503  502 -0.22769695382E+01 -0.35887037668E+02  0.22549064732E+02  0.42444368097E+02  0.00000000000E+00 0. -1.
          1    1    1    2  501    0  0.52480484892E+02  0.90282505475E+02  0.72783938322E+02  0.12728956661E+03  0.00000000000E+00 0. -1.
<scales pt_clust_5="13000.00000" pt_clust_6="13000.00000" pt_clust_7="13000.00000" pt_clust_8="13000.00000" pt_clust_9="35.95920" pt_clust_10="94.65927"></scales>
<clustering>
<clus scale="   35.959">  2  9  1 -1</clus>
<clus scale="   92.731">  7  8 -1 -1</clus>
<clus scale="   92.784">  1  7  2 -1</clus>
<clus scale="   94.659">  2 10  1 -1</clus>
<clus scale="   95.457">  5  6 -1 -1</clus>
<clus scale="   35.959">  2  5  1 -1</clus>
</clustering>
</event>
<event>
10    2  0.3544405E-006  0.1308088E+03  0.7546771E-02  0.1227303E+00
         21   -1    0    0  501  502  0.00000000000E+00  0.00000000000E+00  0.35536696407E+03  0.35536696407E+03  0.00000000000E+00 0.  1.
          2   -1    0    0  503    0 -0.00000000000E+00 -0.00000000000E+00 -0.13459662347E+03  0.13459662347E+03  0.00000000000E+00 0. -1.
         23    2    1    2    0    0 -0.80020183543E+02 -0.16734692490E+02  0.56275942032E+02  0.13453286980E+03  0.90823079109E+02 0.  0.
         23    2    1    2    0    0  0.10443825263E+03 -0.53604724227E+02  0.13468764082E+03  0.20222535262E+03  0.94728652376E+02 0.  0.
        -13    1    3    3    0    0 -0.37131433522E+02 -0.22169515748E+02  0.75665456169E+02  0.87152120119E+02  0.00000000000E+00 0.  1.
         13    1    3    3    0    0 -0.42888750021E+02  0.54348232581E+01 -0.19389514137E+02  0.47380749685E+02  0.00000000000E+00 0. -1.
        -13    1    4    4    0    0  0.62974326033E+02 -0.14423084421E+02  0.10354773526E+02  0.65429446263E+02  0.00000000000E+00 0.  1.
         13    1    4    4    0    0  0.41463926598E+02 -0.39181639806E+02  0.12433286729E+03  0.13679590636E+03  0.00000000000E+00 0. -1.
         21    1    1    2  503  502  0.42969337059E+01  0.44982667027E+02 -0.48341665516E+02  0.66172657473E+02  0.00000000000E+00 0.  1.
          2    1    1    2  501    0 -0.28715002793E+02  0.25356749690E+02  0.78148423264E+02  0.87032707639E+02  0.00000000000E+00 0. -1.
<scales pt_clust_5="13000.00000" pt_clust_6="13000.00000" pt_clust_7="13000.00000" pt_clust_8="13000.00000" pt_clust_9="45.93437" pt_clust_10="38.30817"></scales>
<clustering>
<clus scale="   38.308">  1 10  2 -1</clus>
<clus scale="   45.934">  2  9  1 -1</clus>
<clus scale="   90.823">  5  6 -1 -1</clus>
<clus scale="   94.729">  7  8 -1 -1</clus>
<clus scale="  128.009">  2  5  1 -1</clus>
<clus scale="   38.308">  1  5  2 -1</clus>
</clustering>
</event>
<event>
10    2  0.4480634E-006  0.1366552E+03  0.7546771E-02  0.1218030E+00
         21   -1    0    0  501  502  0.00000000000E+00  0.00000000000E+00  0.30926132975E+03  0.30926132975E+03  0.00000000000E+00 0. -1.
          1   -1    0    0  503    0 -0.00000000000E+00 -0.00000000000E+00 -0.60201242987E+03  0.60201242987E+03  0.00000000000E+00 0. -1.
         23    2    1    2    0    0  0.13819145748E+02 -0.10803530282E+03 -0.45760796750E+03  0.47935350082E+03  0.92261212739E+02 0.  0.
         23    2    1    2    0    0 -0.70401858927E+01  0.63776786495E+02 -0.14547602921E+02  0.11287389670E+03  0.91716089605E+02 0.  0.
        -11    1    4    4    0    0  0.26325610587E+02  0.72041786915E+02 -0.16456852139E+02  0.78446700485E+02  0.00000000000E+00 0.  1.
         11    1    4    4    0    0 -0.33365796479E+02 -0.82650004201E+01  0.19092492174E+01  0.34427196215E+02  0.00000000000E+00 0. -1.
        -11    1    3    3    0    0 -0.24502920390E+02 -0.76978167461E+01 -0.35637621121E+02  0.43928231577E+02  0.00000000000E+00 0.  1.
         11    1    3    3    0    0  0.38322066138E+02 -0.10033748607E+03 -0.42197034638E+03  0.43542526924E+03  0.00000000000E+00 0. -1.
         21    1    1    2  503  502 -0.48764404824E+02  0.36161897782E+02 -0.54307408070E+02  0.81455169267E+02  0.00000000000E+00 0.  1.
          1    1    1    2  501    0  0.41985444969E+02  0.80966185394E+01  0.23371187838E+03  0.23759119284E+03  0.00000000000E+00 0. -1.
<scales pt_clust_5="13000.00000" pt_clust_6="13000.00000" pt_clust_7="13000.00000" pt_clust_8="13000.00000" pt_clust_9="55.68403" pt_clust_10="42.75901"></scales>
<clustering>
<clus scale="   42.759">  1 10  2 -1</clus>
<clus scale="   55.684">  1  9  2 -1</clus>
<clus scale="   91.716">  5  6 -1 -1</clus>
<clus scale="   92.261">  7  8 -1 -1</clus>
<clus scale="  136.288">  1  5  2 -1</clus>
<clus scale="   42.759">  1  5  2 -1</clus>
</clustering>
</event>
<event>
10    2  0.3544405E-006  0.9506360E+02  0.7546771E-02  0.1292643E+00
         21   -1    0    0  501  502  0.00000000000E+00  0.00000000000E+00  0.62106158076E+02  0.62106158076E+02  0.00000000000E+00 0.  1.
          1   -1    0    0  503    0 -0.00000000000E+00 -0.00000000000E+00 -0.60387430062E+03  0.60387430062E+03  0.00000000000E+00 0. -1.
         23    2    1    2    0    0  0.40063479911E+02 -0.13675270083E+02 -0.21807083062E+03  0.23997397576E+03  0.90777345409E+02 0.  0.
         23    2    1    2    0    0  0.93062512696E+01  0.36802122122E+02 -0.20727575561E+03  0.22829223691E+03  0.87824279460E+02 0.  0.
        -13    1    4    4    0    0  0.20758551588E+02  0.61642863816E+02 -0.11583298552E+03  0.13284592827E+03  0.00000000000E+00 0.  1.
         13    1    4    4    0    0 -0.11452300319E+02 -0.24840741694E+02 -0.91442770095E+02  0.95446308641E+02  0.00000000000E+00 0. -1.
        -13    1    3    3    0    0  0.67989099317E+02 -0.14780799004E+02 -0.17804171709E+03  0.19115397634E+03  0.00000000000E+00 0.  1.
         13    1    3    3    0    0 -0.27925619406E+02  0.11055289204E+01 -0.40029113523E+02  0.48819999415E+02  0.00000000000E+00 0. -1.
         21    1    1    2  503  502 -0.27005164516E+02  0.26460312380E+02 -0.13502927545E+03  0.14022243854E+03  0.00000000000E+00 0. -1.
          1    1    1    2  501    0 -0.22364566664E+02 -0.49587164419E+02  0.18607719135E+02  0.57491807491E+02  0.00000000000E+00 0. -1.
<scales pt_clust_5="13000.00000" pt_clust_6="13000.00000" pt_clust_7="13000.00000" pt_clust_8="13000.00000" pt_clust_9="37.80776" pt_clust_10="53.87476"></scales>
<clustering>
<clus scale="   37.808">  2  9  1 -1</clus>
<clus scale="   53.875">  1 10  2 -1</clus>
<clus scale="   87.824">  5  6 -1 -1</clus>
<clus scale="   90.777">  7  8 -1 -1</clus>
<clus scale="   92.248">  1  5  2 -1</clus>
<clus scale="   53.875">  1  5  2 -1</clus>
</clustering>
</event>
<event>
10    2  0.3544405E-006  0.1197764E+03  0.7546771E-02  0.1245805E+00
          3   -1    0    0  503    0 -0.00000000000E+00  0.00000000000E+00  0.34578004059E+03  0.34578004059E+03  0.00000000000E+00 0. -1.
         21   -1    0    0  501  502  0.00000000000E+00 -0.00000000000E+00 -0.13873048455E+03  0.13873048455E+03  0.00000000000E+00 0.  1.
         23    2    1    2    0    0  0.28691233259E+02 -0.25879737436E+02  0.36735544156E+02  0.10643094787E+03  0.92114595932E+02 0.  0.
         23    2    1    2    0    0 -0.24781945152E+02  0.10530934507E+03  0.29800177268E+02  0.14955982415E+03  0.98873087692E+02 0.  0.
        -11    1    4    4    0    0 -0.42227533199E+02  0.11610906243E+03  0.34965130388E+02  0.12840186635E+03  0.00000000000E+00 0. -1.
         11    1    4    4    0    0  0.17445588048E+02 -0.10799717364E+02 -0.51649531198E+01  0.21157957798E+02  0.00000000000E+00 0.  1.
        -11    1    3    3    0    0  0.28806501274E+02  0.15462638199E+02  0.52778788129E+02  0.62084685487E+02  0.00000000000E+00 0.  1.
         11    1    3    3    0    0 -0.11526801519E+00 -0.41342375635E+02 -0.16043243973E+02  0.44346262379E+02  0.00000000000E+00 0. -1.
         21    1    1    2  503  502 -0.24876026359E+02 -0.64511871262E+02  0.17345020685E+03  0.18672325103E+03  0.00000000000E+00 0. -1.
          3    1    1    2  501    0  0.20966738252E+02 -0.14917736371E+02 -0.32936372227E+02  0.41796502089E+02  0.00000000000E+00 0. -1.
<scales pt_clust_5="13000.00000" pt_clust_6="13000.00000" pt_clust_7="13000.00000" pt_clust_8="13000.00000" pt_clust_9="69.57842" pt_clust_10="25.73214"></scales>
<clustering>
<clus scale="   25.732">  2 10  1 -1</clus>
<clus scale="   69.578">  1  9  2 -1</clus>
<clus scale="   92.115">  7  8 -1 -1</clus>
<clus scale="   98.873">  5  6 -1 -1</clus>
<clus scale="  114.261">  1  7  2 -1</clus>
<clus scale="   25.732">  2  5  1 -1</clus>
</clustering>
</event>
<event>
10    2  0.3544405E-006  0.1070485E+03  0.7546771E-02  0.1269800E+00
          3   -1    0    0  503    0 -0.00000000000E+00  0.00000000000E+00  0.28482998691E+03  0.28482998691E+03  0.00000000000E+00 0. -1.
         21   -1    0    0  501  502  0.00000000000E+00 -0.00000000000E+00 -0.22055009594E+03  0.22055009594E+03  0.00000000000E+00 0.  1.
         23    2    1    2    0    0  0.25499217489E+01 -0.64188927624E+02  0.15374249727E+03  0.18562699699E+03  0.81816294311E+02 0.  0.
         23    2    1    2    0    0 -0.10604499608E+02  0.42656234758E+02  0.54340352852E+02  0.11444621106E+03  0.90625887597E+02 0.  0.
        -11    1    3    3    0    0  0.36532277742E+02 -0.10648014679E+02  0.38761451972E+02  0.54317931594E+02  0.00000000000E+00 0. -1.
         11    1    3    3    0    0 -0.33982355993E+02 -0.53540912945E+02  0.11498104530E+03  0.13130906540E+03  0.00000000000E+00 0.  1.
        -11    1    4    4    0    0  0.39682223743E+02  0.21370575792E+02  0.32811963641E+02  0.55749487431E+02  0.00000000000E+00 0.  1.
         11    1    4    4    0    0 -0.50286723351E+02  0.21285658967E+02  0.21528389211E+02  0.58696723631E+02  0.00000000000E+00 0. -1.
         21    1    1    2  503  502  0.55806586185E+02 -0.38758665433E+02 -0.52103050253E+02  0.85623227301E+02  0.00000000000E+00 0.  1.
          3    1    1    2  501    0 -0.47752008326E+02  0.60291358299E+02 -0.91699908904E+02  0.11968364750E+03  0.00000000000E+00 0. -1.
<scales pt_clust_5="13000.00000" pt_clust_6="13000.00000" pt_clust_7="13000.00000" pt_clust_8="13000.00000" pt_clust_9="67.94563" pt_clust_10="34.44617"></scales>
<clustering>
<clus scale="   67.946">  2  9  1 -1</clus>
<clus scale="   34.446">  2 10  1 -1</clus>
<clus scale="   81.816">  5  6 -1 -1</clus>
<clus scale="   90.626">  7  8 -1 -1</clus>
<clus scale="   99.701">  1  5  2 -1</clus>
<clus scale="   67.946">  2  5  1 -1</clus>
</clustering>
</event>
<event>
10    2  0.3544405E-006  0.9791273E+02  0.7546771E-02  0.1284968E+00
         21   -1    0    0  501  502  0.00000000000E+00  0.00000000000E+00  0.30784470728E+03  0.30784470728E+03  0.00000000000E+00 0. -1.
          3   -1    0    0  503    0 -0.00000000000E+00 -0.00000000000E+00 -0.93498072870E+02  0.93498072870E+02  0.00000000000E+00 0. -1.
         23    2    1    2    0    0  0.29269779429E+02  0.63328606604E+02  0.33129367878E+02  0.11983075019E+03  0.91622165845E+02 0.  0.
         23    2    1    2    0    0  0.32249803792E+02  0.33004833674E+01  0.76420752806E+02  0.12331336435E+03  0.91187232294E+02 0.  0.
        -11    1    4    4    0    0  0.59254212017E+02 -0.13067155437E+01  0.23567443355E+02  0.63782392033E+02  0.00000000000E+00 0.  1.
         11    1    4    4    0    0 -0.27004408224E+02  0.46071989111E+01  0.52853309451E+02  0.59530972320E+02  0.00000000000E+00 0. -1.
        -11    1    3    3    0    0  0.57441147411E+02  0.30674458318E+02 -0.53485700619E+00  0.65120610263E+02  0.00000000000E+00 0. -1.
         11    1    3    3    0    0 -0.28171367982E+02  0.32654148286E+02  0.33664224884E+02  0.54710139932E+02  0.00000000000E+00 0.  1.
         21    1    1    2  503  502 -0.10119894308E+02 -0.36039111846E+02  0.88672398643E+02  0.96249800646E+02  0.00000000000E+00 0.  1.
          3    1    1    2  501    0 -0.51399688914E+02 -0.30589978126E+02  0.16124115083E+02  0.61948864956E+02  0.00000000000E+00 0. -1.
<scales pt_clust_5="13000.00000" pt_clust_6="13000.00000" pt_clust_7="13000.00000" pt_clust_8="13000.00000" pt_clust_9="37.43300" pt_clust_10="64.89893"></scales>
<clustering>
<clus scale="   37.433">  1  9  2 -1</clus>
<clus scale="   64.899">  1 10  2 -1</clus>
<clus scale="   91.187">  5  6 -1 -1</clus>
<clus scale="   91.622">  7  8 -1 -1</clus>
<clus scale="   97.506">  1  5  2 -1</clus>
<clus scale="   37.433">  1  5  2 -1</clus>
</clustering>
</event>
<event>
10    2  0.3544405E-006  0.1138724E+03  0.7546771E-02  0.1256989E+00
          2   -1    0    0  503    0 -0.00000000000E+00  0.00000000000E+00  0.22350085057E+03  0.22350085057E+03  0.00000000000E+00 0. -1.
         21   -1    0    0  501  502  0.00000000000E+00 -0.00000000000E+00 -0.22599266105E+03  0.22599266105E+03  0.00000000000E+00 0.  1.
         23    2    1    2    0    0  0.53616719652E+02  0.56920789492E+02  0.62306698927E+02  0.13492095417E+03  0.90591446836E+02 0.  0.
         23    2    1    2    0    0  0.16451108162E+02 -0.48049964355E+02  0.16245815574E+02  0.11267628777E+03  0.99260169592E+02 0.  0.
        -11    1    3    3    0    0  0.64865166182E+02  0.73899083490E+02  0.44755069095E+02  0.10803508937E+03  0.00000000000E+00 0. -1.
         11    1    3    3    0    0 -0.11248446530E+02 -0.16978293999E+02  0.17551629832E+02  0.26885864803E+02  0.00000000000E+00 0.  1.
        -13    1    4    4    0    0 -0.22994465259E+02 -0.60605227574E+02  0.26501869440E+02  0.70029194809E+02  0.00000000000E+00 0.  1.
         13    1    4    4    0    0  0.39445573421E+02  0.12555263219E+02 -0.10256053866E+02  0.42647092960E+02  0.00000000000E+00 0. -1.
         21    1    1    2  503  502  0.29649182688E+02 -0.33511919886E+02  0.27448228711E+02  0.52493124006E+02  0.00000000000E+00 0. -1.
          2    1    1    2  501    0 -0.99717010503E+02  0.24641094750E+02 -0.10849255369E+03  0.14940314568E+03  0.00000000000E+00 0. -1.
<scales pt_clust_5="13000.00000" pt_clust_6="13000.00000" pt_clust_7="13000.00000" pt_clust_8="13000.00000" pt_clust_9="44.74509" pt_clust_10="98.65306"></scales>
<clustering>
<clus scale="   44.745">  1  9  2 -1</clus>
<clus scale="   90.591">  5  6 -1 -1</clus>
<clus scale="   98.653">  2 10  1 -1</clus>
<clus scale="   99.260">  7  8 -1 -1</clus>
<clus scale="  106.401">  1  5  2 -1</clus>
<clus scale="   98.653">  2  5  1 -1</clus>
</clustering>
</event>
<event>
10    2  0.3544405E-006  0.1224147E+03  0.7546771E-02  0.1239614E+00
          1   -1    0    0  503    0 -0.00000000000E+00  0.00000000000E+00  0.52254686303E+03  0.52254686303E+03  0.00000000000E+00 0. -1.
         21   -1    0    0  501  502  0.00000000000E+00 -0.00000000000E+00 -0.57107408164E+02  0.57107408164E+02  0.00000000000E+00 0. -1.
         23    2    1    2    0    0  0.10990366224E+02  0.77295867147E+02  0.27892081075E+03  0.30450258031E+03  0.93965757151E+02 0.  0.
         23    2    1    2    0    0 -0.15303078610E+02 -0.68799974567E+02  0.13595075815E+03  0.17891111699E+03  0.92514638980E+02 0.  0.
        -11    1    4    4    0    0 -0.14812710802E+02  0.20724824021E+02  0.19811340419E+02  0.32271100713E+02  0.00000000000E+00 0.  1.
         11    1    4    4    0    0 -0.49036780717E+00 -0.89524798588E+02  0.11613941773E+03  0.14664001628E+03  0.00000000000E+00 0. -1.
        -13    1    3    3    0    0 -0.10644276481E+02  0.61911320244E+02  0.26887881477E+03  0.27611977334E+03  0.00000000000E+00 0. -1.
         13    1    3    3    0    0  0.21634642705E+02  0.15384546903E+02  0.10041995984E+02  0.28382806974E+02  0.00000000000E+00 0.  1.
         21    1    1    2  503  502  0.21726355511E+02  0.12967891220E+02  0.61512642743E+02  0.66513201274E+02  0.00000000000E+00 0.  1.
          1    1    1    2  501    0 -0.17413643126E+02 -0.21463783800E+02 -0.10944756780E+02  0.29727372620E+02  0.00000000000E+00 0. -1.
<scales pt_clust_5="13000.00000" pt_clust_6="13000.00000" pt_clust_7="13000.00000" pt_clust_8="13000.00000" pt_clust_9="25.30219" pt_clust_10="27.15324"></scales>
<clustering>
<clus scale="   25.302">  1  9  2 -1</clus>
<clus scale="   27.153">  2 10  1 -1</clus>
<clus scale="   92.515">  5  6 -1 -1</clus>
<clus scale="   93.966">  7  8 -1 -1</clus>
<clus scale="  121.304">  2  5  1 -1</clus>
<clus scale="   27.153">  2  5  1 -1</clus>
</clustering>
</event>
<event>
10    2  0.3544405E-006  0.1050272E+03  0.7546771E-02  0.1273815E+00
         21   -1    0    0  501  502  0.00000000000E+00  0.00000000000E+00  0.25410838898E+03  0.25410838898E+03  0.00000000000E+00 0.  1.
          1   -1    0    0  503    0 -0.00000000000E+00 -0.00000000000E+00 -0.23362626533E+03  0.23362626533E+03  0.00000000000E+00 0. -1.
         23    2    1    2    0    0 -0.75484823857E+02  0.49017185130E+02 -0.14032897831E+03  0.18605534576E+03  0.82605850054E+02 0.  0.
         23    2    1    2    0    0 -0.30964604994E+01  0.24608794567E+02  0.11576215173E+03  0.14941370156E+03  0.91150411981E+02 0.  0.
        -11    1    3    3    0    0 -0.67581239173E+02  0.69918773899E+02 -0.12729124527E+03  0.16018401904E+03  0.00000000000E+00 0. -1.
         11    1    3    3    0    0 -0.79035846842E+01 -0.20901588769E+02 -0.13037733038E+02  0.25871326728E+02  0.00000000000E+00 0.  1.
        -13    1    4    4    0    0  0.39387306232E+02 -0.37928701284E+01  0.71895598947E+02  0.82065357514E+02  0.00000000000E+00 0.  1.
         13    1    4    4    0    0 -0.42483766731E+02  0.28401664696E+02  0.43866552782E+02  0.67348344049E+02  0.00000000000E+00 0. -1.
         21    1    1    2  503  502  0.12895294718E+02 -0.46509888569E+02 -0.23365204832E+02  0.53622673911E+02  0.00000000000E+00 0. -1.
          1    1    1    2  501    0  0.65685989639E+02 -0.27116091128E+02  0.68414155059E+02  0.98642933073E+02  0.00000000000E+00 0. -1.
<scales pt_clust_5="13000.00000" pt_clust_6="13000.00000" pt_clust_7="13000.00000" pt_clust_8="13000.00000" pt_clust_9="48.26446" pt_clust_10="73.42002"></scales>
<clustering>
<clus scale="   48.264">  2  9  1 -1</clus>
<clus scale="   73.420">  1 10  2 -1</clus>
<clus scale="   82.606">  5  6 -1 -1</clus>
<clus scale="   91.150">  7  8 -1 -1</clus>
<clus scale="   97.704">  2  5  1 -1</clus>
<clus scale="   73.420">  1  5  2 -1</clus>
</clustering>
</event>
<event>
10    2  0.3544405E-006  0.1136839E+03  0.7546771E-02  0.1254177E+00
          1   -1    0    0  503    0 -0.00000000000E+00  0.00000000000E+00  0.41808374735E+03  0.41808374735E+03  0.00000000000E+00 0. -1.
         21   -1    0    0  501  502  0.00000000000E+00 -0.00000000000E+00 -0.91726653527E+02  0.91726653527E+02  0.00000000000E+00 0. -1.
         23    2    1    2    0    0  0.79335275385E+02 -0.47267164676E+02  0.10251443360E+03  0.16510009352E+03  0.90667309465E+02 0.  0.
         23    2    1    2    0    0 -0.54697923667E+02 -0.18678687743E+02  0.59125381260E+02  0.12212226388E+03  0.89873691346E+02 0.  0.
        -11    1    3    3    0    0  0.82420644633E+02 -0.10061876551E+01  0.73264169064E+02  0.11028061273E+03  0.00000000000E+00 0.  1.
         11    1    3    3    0    0 -0.30853692476E+01 -0.46260977021E+02  0.29250264541E+02  0.54819480789E+02  0.00000000000E+00 0. -1.
        -11    1    4    4    0    0 -0.57574740879E+02  0.59905226909E+01 -0.11560354400E+00  0.57885667601E+02  0.00000000000E+00 0.  1.
         11    1    4    4    0    0  0.28768172122E+01 -0.24669210434E+02  0.59240984804E+02  0.64236596277E+02  0.00000000000E+00 0. -1.
         21    1    1    2  503  502  0.23508559725E+02  0.81754007931E+02  0.14520199123E+03  0.16828543742E+03  0.00000000000E+00 0. -1.
          1    1    1    2  501    0 -0.48145911443E+02 -0.15808155512E+02  0.19515287734E+02  0.54302606058E+02  0.00000000000E+00 0. -1.
<scales pt_clust_5="13000.00000" pt_clust_6="13000.00000" pt_clust_7="13000.00000" pt_clust_8="13000.00000" pt_clust_9="80.90402" pt_clust_10="50.67471"></scales>
<clustering>
<clus scale="   50.675">  2 10  1 -1</clus>
<clus scale="   80.904">  1  9  2 -1</clus>
<clus scale="   89.874">  7  8 -1 -1</clus>
<clus scale="   90.667">  5  6 -1 -1</clus>
<clus scale="  113.052">  2  7  1 -1</clus>
<clus scale="   50.675">  2  5  1 -1</clus>
</clustering>
</event>
<event>
10    2  0.3544405E-006  0.1559565E+03  0.7546771E-02  0.1193588E+00
          1   -1    0    0  503    0 -0.00000000000E+00  0.00000000000E+00  0.84257529405E+03  0.84257529405E+03  0.00000000000E+00 0. -1.
         21   -1    0    0  501  502  0.00000000000E+00 -0.00000000000E+00 -0.61585168313E+02  0.61585168313E+02  0.00000000000E+00 0. -1.
         23    2    1    2    0    0 -0.12950990848E+02  0.10872734500E+03  0.30406082919E+03  0.33597692060E+03  0.91859346897E+02 0.  0.
         23    2    1    2    0    0  0.42803183116E+02 -0.13246149977E+03  0.13111809205E+03  0.21277494929E+03  0.93290211587E+02 0.  0.
        -11    1    3    3    0    0 -0.40190720322E+02  0.26846510921E+02  0.59611106876E+02  0.76743163941E+02  0.00000000000E+00 0. -1.
         11    1    3    3    0    0  0.27239729474E+02  0.81880834076E+02  0.24444972232E+03  0.25923375666E+03  0.00000000000E+00 0.  1.
        -13    1    4    4    0    0  0.70811273925E+02 -0.81994268395E+02  0.71566009333E+02  0.12984217441E+03  0.00000000000E+00 0.  1.
         13    1    4    4    0    0 -0.28008090810E+02 -0.50467231375E+02  0.59552082718E+02  0.82932774881E+02  0.00000000000E+00 0. -1.
         21    1    1    2  503  502  0.83902981044E+01  0.31763350679E+02  0.76201031316E+02  0.82981351654E+02  0.00000000000E+00 0. -1.
          1    1    1    2  501    0 -0.38242490372E+02 -0.80291959070E+01  0.26961017318E+03  0.27242724082E+03  0.00000000000E+00 0. -1.
<scales pt_clust_5="13000.00000" pt_clust_6="13000.00000" pt_clust_7="13000.00000" pt_clust_8="13000.00000" pt_clust_9="32.85282" pt_clust_10="35.41197"></scales>
<clustering>
<clus scale="   32.853">  1  9  2 -1</clus>
<clus scale="   35.412">  2 10  1 -1</clus>
<clus scale="   91.859">  5  6 -1 -1</clus>
<clus scale="   93.290">  7  8 -1 -1</clus>
<clus scale="  155.105">  1  5  2 -1</clus>
<clus scale="   35.412">  2  5  1 -1</clus>
</clustering>
</event>
<event>
10    2  0.3544405E-006  0.1036850E+03  0.7546771E-02  0.1276322E+00
          1   -1    0    0  503    0 -0.00000000000E+00  0.00000000000E+00  0.71270032025E+03  0.71270032025E+03  0.00000000000E+00 0. -1.
         21   -1    0    0  501  502  0.00000000000E+00 -0.00000000000E+00 -0.51957882577E+02  0.51957882577E+02  0.00000000000E+00 0.  1.
         23    2    1    2    0    0 -0.44246320475E+02  0.13731653541E+02  0.32232659777E+03  0.33932777974E+03  0.95407606025E+02 0.  0.
         23    2    1    2    0    0  0.66069619641E+02  0.22320824153E+02  0.13412514613E+03  0.17484622109E+03  0.87853471057E+02 0.  0.
        -13    1    3    3    0    0 -0.69384010606E+02 -0.10433833255E+02  0.19206058186E+03  0.20447560468E+03  0.00000000000E+00 0. -1.
         13    1    3    3    0    0  0.25137690131E+02  0.24165486796E+02  0.13026601591E+03  0.13485217506E+03  0.00000000000E+00 0.  1.
        -13    1    4    4    0    0  0.75077639770E+02  0.43054169898E+02  0.12080705948E+03  0.14860908169E+03  0.00000000000E+00 0.  1.
         13    1    4    4    0    0 -0.90080201289E+01 -0.20733345745E+02  0.13318086647E+02  0.26237139409E+02  0.00000000000E+00 0. -1.
         21    1    1    2  503  502  0.26499441925E+02  0.22269565762E+01  0.18351258381E+03  0.18542936168E+03  0.00000000000E+00 0.  1.
          1    1    1    2  501    0 -0.48322741091E+02 -0.38279434270E+02  0.20778109969E+02  0.65054840315E+02  0.00000000000E+00 0. -1.
<scales pt_clust_5="13000.00000" pt_clust_6="13000.00000" pt_clust_7="13000.00000" pt_clust_8="13000.00000" pt_clust_9="26.59285" pt_clust_10="59.85937"></scales>
<clustering>
<clus scale="   26.593">  1  9  2 -1</clus>
<clus scale="   59.859">  2 10  1 -1</clus>
<clus scale="   87.853">  7  8 -1 -1</clus>
<clus scale="   95.408">  5  6 -1 -1</clus>
<clus scale="   96.779">  2  7  1 -1</clus>
<clus scale="   59.859">  2  5  1 -1</clus>
</clustering>
</event>
<event>
10    2  0.3544405E-006  0.1522832E+03  0.7546771E-02  0.1198067E+00
          1   -1    0    0  503    0 -0.00000000000E+00  0.00000000000E+00  0.84084817021E+02  0.84084817021E+02  0.00000000000E+00 0. -1.
         21   -1    0    0  501  502  0.00000000000E+00 -0.00000000000E+00 -0.42077091799E+03  0.42077091799E+03  0.00000000000E+00 0.  1.
         23    2    1    2    0    0 -0.26468050646E+02 -0.11085280872E+03 -0.79303286217E+02  0.16621269628E+03  0.91371474184E+02 0.  0.
         23    2    1    2    0    0  0.38870593593E+02  0.11935651485E+03 -0.20941906715E+03  0.26140937193E+03  0.93389578438E+02 0.  0.
        -11    1    4    4    0    0  0.55779070177E+02  0.25929586762E+02 -0.82198403195E+02  0.10266560099E+03  0.00000000000E+00 0. -1.
         11    1    4    4    0    0 -0.16908476584E+02  0.93426928092E+02 -0.12722066396E+03  0.15874377093E+03  0.00000000000E+00 0.  1.
        -11    1    3    3    0    0  0.15614822517E+02 -0.24942538962E+02  0.13995405836E+02  0.32585645868E+02  0.00000000000E+00 0. -1.
         11    1    3    3    0    0 -0.42082873163E+02 -0.85910269758E+02 -0.93298692053E+02  0.13362705041E+03  0.00000000000E+00 0.  1.
         21    1    1    2  503  502 -0.33335607337E+02  0.12511858451E+01 -0.14035950765E+02  0.36191657830E+02  0.00000000000E+00 0. -1.
          1    1    1    2  501    0  0.20933064391E+02 -0.97548919793E+01 -0.33927796832E+02  0.41042008969E+02  0.00000000000E+00 0. -1.
<scales pt_clust_5="13000.00000" pt_clust_6="13000.00000" pt_clust_7="13000.00000" pt_clust_8="13000.00000" pt_clust_9="31.96988" pt_clust_10="23.09440"></scales>
<clustering>
<clus scale="   23.094">  2 10  1 -1</clus>
<clus scale="   31.970">  1  9  2 -1</clus>
<clus scale="   91.371">  7  8 -1 -1</clus>
<clus scale="   93.390">  5  6 -1 -1</clus>
<clus scale="  151.054">  1  7  2 -1</clus>
<clus scale="   23.094">  2  5  1 -1</clus>
</clustering>
</event>
<event>
10    2  0.3544405E-006  0.9666801E+02  0.7546771E-02  0.1287883E+00
         -3   -1    0    0    0  501 -0.00000000000E+00  0.00000000000E+00  0.22780267180E+03  0.22780267180E+03  0.00000000000E+00 0.  1.
         21   -1    0    0  503  502  0.00000000000E+00 -0.00000000000E+00 -0.11812469236E+03  0.11812469236E+03  0.00000000000E+00 0. -1.
         23    2    1    2    0    0 -0.15936626040E+02 -0.11351958715E+02  0.93833689574E+02  0.13138996721E+03  0.89865005247E+02 0.  0.
         23    2    1    2    0    0  0.32068409950E+02  0.77019402818E+01 -0.79254486478E+01  0.95287303289E+02  0.89045800748E+02 0.  0.
        -13    1    3    3    0    0  0.69932366790E+00  0.31014895999E+02  0.47938596679E+01  0.31390984660E+02  0.00000000000E+00 0.  1.
         13    1    3    3    0    0 -0.16635949708E+02 -0.42366854715E+02  0.89039829906E+02  0.99998982549E+02  0.00000000000E+00 0. -1.
        -13    1    4    4    0    0 -0.30951993832E+02 -0.86076748743E+00  0.14636265633E+01  0.30998532958E+02  0.00000000000E+00 0.  1.
         13    1    4    4    0    0  0.63020403783E+02  0.85627077692E+01 -0.93890752111E+01  0.64288770330E+02  0.00000000000E+00 0. -1.
         21    1    1    2  503  501 -0.29559571671E+02 -0.11274596533E+02  0.65611846809E+02  0.72840917389E+02  0.00000000000E+00 0.  1.
         -3    1    1    2    0  502  0.13427787760E+02  0.14924614967E+02 -0.41842108298E+02  0.46409176278E+02  0.00000000000E+00 0.  1.
<scales pt_clust_5="13000.00000" pt_clust_6="13000.00000" pt_clust_7="13000.00000" pt_clust_8="13000.00000" pt_clust_9="30.76739" pt_clust_10="20.07610"></scales>
<clustering>
<clus scale="   20.076">  2 10  1 -1</clus>
<clus scale="   30.767">  1  9  2 -1</clus>
<clus scale="   89.046">  7  8 -1 -1</clus>
<clus scale="   89.865">  5  6 -1 -1</clus>
<clus scale="   95.907">  2  7  1 -1</clus>
<clus scale="   20.076">  2  5  1 -1</clus>
</clustering>
</event>
<event>
10    2  0.3544405E-006  0.1095233E+03  0.7546771E-02  0.1262552E+00
         21   -1    0    0  501  502  0.00000000000E+00  0.00000000000E+00  0.23839249102E+03  0.23839249102E+03  0.00000000000E+00 0.  1.
          1   -1    0    0  503    0 -0.00000000000E+00 -0.00000000000E+00 -0.15689242042E+03  0.15689242042E+03  0.00000000000E+00 0. -1.
         23    2    1    2    0    0  0.13996154949E+02 -0.70475552036E+02 -0.51963636418E+02  0.12946907898E+03  0.94336244963E+02 0.  0.
         23    2    1    2    0    0 -0.15959207149E+01  0.31159068453E+02  0.19374196635E+02  0.98708919140E+02  0.91622359240E+02 0.  0.
        -11    1    3    3    0    0  0.21664688476E+01 -0.92986802372E+02 -0.43365682816E+02  0.10262466297E+03  0.00000000000E+00 0.  1.
         11    1    3    3    0    0  0.11829686102E+02  0.22511250336E+02 -0.85979536024E+01  0.26844416014E+02  0.00000000000E+00 0. -1.
        -13    1    4    4    0    0 -0.33958502161E+02  0.43179302497E+02  0.29995962048E+02  0.62589054732E+02  0.00000000000E+00 0. -1.
         13    1    4    4    0    0  0.32362581446E+02 -0.12020234043E+02 -0.10621765414E+02  0.36119864407E+02  0.00000000000E+00 0.  1.
         21    1    1    2  503  502 -0.40040613155E+02  0.18589874807E+02 -0.37526422664E+01  0.44304813182E+02  0.00000000000E+00 0. -1.
          1    1    1    2  501    0  0.27640378921E+02  0.20726608776E+02  0.11784215265E+03  0.12280210015E+03  0.00000000000E+00 0. -1.
<scales pt_clust_5="13000.00000" pt_clust_6="13000.00000" pt_clust_7="13000.00000" pt_clust_8="13000.00000" pt_clust_9="41.66836" pt_clust_10="34.54827"></scales>
<clustering>
<clus scale="   34.548">  1 10  2 -1</clus>
<clus scale="   41.668">  1  9  2 -1</clus>
<clus scale="   91.622">  7  8 -1 -1</clus>
<clus scale="   94.336">  5  6 -1 -1</clus>
<clus scale="  107.195">  1  7  2 -1</clus>
<clus scale="   34.548">  1  5  2 -1</clus>
</clustering>
</event>
<event>
10    2  0.3544405E-006  0.1264015E+03  0.7546771E-02  0.1242495E+00
         21   -1    0    0  503  502  0.00000000000E+00  0.00000000000E+00  0.21468478337E+03  0.21468478337E+03  0.00000000000E+00 0.  1.
         -2   -1    0    0    0  501 -0.00000000000E+00 -0.00000000000E+00 -0.24921349669E+03  0.24921349669E+03  0.00000000000E+00 0.  1.
         23    2    1    2    0    0 -0.30800696023E+02  0.35215785507E+02 -0.10815220466E+03  0.14743210539E+03  0.88603001656E+02 0.  0.
         23    2    1    2    0    0  0.10854788014E+03 -0.35723632530E+02 -0.66463113366E+01  0.16164427915E+03  0.11413097443E+03 0.  0.
        -13    1    4    4    0    0  0.18125664817E+02  0.39254034984E+02 -0.89686478933E+01  0.44157169663E+02  0.00000000000E+00 0. -1.
         13    1    4    4    0    0  0.90422215318E+02 -0.74977667514E+02  0.23223365568E+01  0.11748710949E+03  0.00000000000E+00 0.  1.
        -13    1    3    3    0    0 -0.59210122189E+02  0.26103127164E+02 -0.94719065361E+02  0.11471230605E+03  0.00000000000E+00 0.  1.
         13    1    3    3    0    0  0.28409426166E+02  0.91126583426E+01 -0.13433139300E+02  0.32719799336E+02  0.00000000000E+00 0. -1.
         21    1    1    2  503  501  0.11418801685E+01 -0.24013921631E+02 -0.15298973065E+02  0.28496155868E+02  0.00000000000E+00 0.  1.
         -2    1    1    2    0  502 -0.78889064281E+02  0.24521768654E+02  0.95568775741E+02  0.12632573965E+03  0.00000000000E+00 0.  1.
<scales pt_clust_5="13000.00000" pt_clust_6="13000.00000" pt_clust_7="13000.00000" pt_clust_8="13000.00000" pt_clust_9="24.04105" pt_clust_10="82.07059"></scales>
<clustering>
<clus scale="   24.041">  2  9  1 -1</clus>
<clus scale="   82.071">  1 10  2 -1</clus>
<clus scale="   88.603">  7  8 -1 -1</clus>
<clus scale="  103.932">  2  7  1 -1</clus>
<clus scale="  114.131">  5  6 -1 -1</clus>
<clus scale="   82.071">  1  5  2 -1</clus>
</clustering>
</event>
<event>
10    2  0.3544405E-006  0.3932018E+03  0.7546771E-02  0.1046817E+00
          1   -1    0    0  503    0 -0.00000000000E+00  0.00000000000E+00  0.20705628320E+03  0.20705628320E+03  0.00000000000E+00 0. -1.
         21   -1    0    0  501  502  0.00000000000E+00 -0.00000000000E+00 -0.11351361233E+04  0.11351361233E+04  0.00000000000E+00 0.  1.
         23    2    1    2    0    0  0.19164275395E+03 -0.31023122442E+03 -0.12543654725E+03  0.39597676140E+03  0.89960604902E+02 0.  0.
         23    2    1    2    0    0 -0.17775991835E+03  0.35191813798E+03 -0.61780739011E+03  0.74226472306E+03  0.11758394201E+03 0.  0.
        -11    1    3    3    0    0  0.75405523860E+02 -0.19564204282E+03 -0.46946326383E+02  0.21486218724E+03  0.00000000000E+00 0.  1.
         11    1    3    3    0    0  0.11623723009E+03 -0.11458918160E+03 -0.78490220862E+02  0.18111457415E+03  0.00000000000E+00 0. -1.
        -13    1    4    4    0    0 -0.69870142722E+01  0.13509233189E+03 -0.19382970826E+03  0.23636563267E+03  0.00000000000E+00 0. -1.
         13    1    4    4    0    0 -0.17077290408E+03  0.21682580609E+03 -0.42397768185E+03  0.50589909039E+03  0.00000000000E+00 0.  1.
         21    1    1    2  503  502 -0.17588771510E+02 -0.16512772538E+02 -0.81839285604E+01  0.25475738003E+02  0.00000000000E+00 0.  1.
          1    1    1    2  501    0  0.37059359094E+01 -0.25174141020E+02 -0.17665197416E+03  0.17847518402E+03  0.00000000000E+00 0. -1.
<scales pt_clust_5="13000.00000" pt_clust_6="13000.00000" pt_clust_7="13000.00000" pt_clust_8="13000.00000" pt_clust_9="24.12543" pt_clust_10="25.50891"></scales>
<clustering>
<clus scale="   24.125">  1  9  2 -1</clus>
<clus scale="   25.509">  2 10  1 -1</clus>
<clus scale="   89.961">  5  6 -1 -1</clus>
<clus scale="  117.584">  7  8 -1 -1</clus>
<clus scale="  385.843">  1  5  2 -1</clus>
<clus scale="   25.509">  2  5  1 -1</clus>
</clustering>
</event>
<event>
10    2  0.3544405E-006  0.1332561E+03  0.7546771E-02  0.1234397E+00
          2   -1    0    0  503    0 -0.00000000000E+00  0.00000000000E+00  0.11598986031E+04  0.11598986031E+04  0.00000000000E+00 0. -1.
         21   -1    0    0  501  502  0.00000000000E+00 -0.00000000000E+00 -0.59466374631E+02  0.59466374631E+02  0.00000000000E+00 0. -1.
         23    2    1    2    0    0 -0.23957182123E+02 -0.12521165775E+02  0.42852598143E+03  0.43859289484E+03  0.89434246676E+02 0.  0.
         23    2    1    2    0    0 -0.29419211550E+02 -0.18083599784E+02  0.31895315660E+03  0.33380476616E+03  0.92206286231E+02 0.  0.
        -11    1    3    3    0    0  0.11569248116E+02 -0.43470809937E+02  0.24629222627E+03  0.25036657034E+03  0.00000000000E+00 0.  1.
         11    1    3    3    0    0 -0.35526430239E+02  0.30949644162E+02  0.18223375515E+03  0.18822632451E+03  0.00000000000E+00 0. -1.
        -13    1    4    4    0    0  0.32576243781E+02 -0.32670337447E+01  0.78666542610E+02  0.85207453281E+02  0.00000000000E+00 0.  1.
         13    1    4    4    0    0 -0.61995455331E+02 -0.14816566040E+02  0.24028661399E+03  0.24859731288E+03  0.00000000000E+00 0. -1.
         21    1    1    2  503  502 -0.57244236645E+02  0.36851498769E+02  0.32587365039E+03  0.33290925431E+03  0.00000000000E+00 0. -1.
          2    1    1    2  501    0  0.11062063032E+03 -0.62467332096E+01  0.27079440056E+02  0.11405806241E+03  0.00000000000E+00 0. -1.
<scales pt_clust_5="13000.00000" pt_clust_6="13000.00000" pt_clust_7="13000.00000" pt_clust_8="13000.00000" pt_clust_9="68.08036" pt_clust_10="96.20396"></scales>
<clustering>
<clus scale="   68.080">  1  9  2 -1</clus>
<clus scale="   89.434">  5  6 -1 -1</clus>
<clus scale="   92.206">  7  8 -1 -1</clus>
<clus scale="  104.606">  1  5  2 -1</clus>
<clus scale="   96.204">  2 10  1 -1</clus>
<clus scale="   96.204">  2  5  1 -1</clus>
</clustering>
</event>
<event>
10    2  0.3544405E-006  0.9351243E+02  0.7546771E-02  0.1294982E+00
         21   -1    0    0  501  502  0.00000000000E+00  0.00000000000E+00  0.91438563979E+02  0.91438563979E+02  0.00000000000E+00 0.  1.
          2   -1    0    0  503    0 -0.00000000000E+00 -0.00000000000E+00 -0.37763344138E+03  0.37763344138E+03  0.00000000000E+00 0. -1.
         23    2    1    2    0    0  0.78797526111E+01 -0.27023002875E+02 -0.15791357565E+03  0.18409799573E+03  0.90349551576E+02 0.  0.
         23    2    1    2    0    0  0.43173361045E+02  0.27938144831E+01  0.43586353506E+01  0.10094236928E+03  0.91096760150E+02 0.  0.
        -13    1    4    4    0    0  0.10544979618E+02  0.43532787667E+02 -0.11770528138E+02  0.46312477043E+02  0.00000000000E+00 0. -1.
         13    1    4    4    0    0  0.32628381428E+02 -0.40738973184E+02  0.16129163489E+02  0.54629892234E+02  0.00000000000E+00 0.  1.
        -13    1    3    3    0    0  0.20539820549E+02  0.28801659081E+02 -0.42716991903E+02  0.55463151653E+02  0.00000000000E+00 0.  1.
         13    1    3    3    0    0 -0.12660067938E+02 -0.55824661956E+02 -0.11519658375E+03  0.12863484407E+03  0.00000000000E+00 0. -1.
         21    1    1    2  503  502 -0.20839988770E+02  0.11567760048E+02 -0.14652544536E+03  0.14845142082E+03  0.00000000000E+00 0. -1.
          2    1    1    2  501    0 -0.30213124886E+02  0.12661428344E+02  0.13885508257E+02  0.35580219542E+02  0.00000000000E+00 0. -1.
<scales pt_clust_5="13000.00000" pt_clust_6="13000.00000" pt_clust_7="13000.00000" pt_clust_8="13000.00000" pt_clust_9="23.83523" pt_clust_10="33.87575"></scales>
<clustering>
<clus scale="   23.835">  2  9  1 -1</clus>
<clus scale="   33.876">  1 10  2 -1</clus>
<clus scale="   90.350">  7  8 -1 -1</clus>
<clus scale="   91.097">  5  6 -1 -1</clus>
<clus scale="   92.785">  2  7  1 -1</clus>
<clus scale="   33.876">  1  5  2 -1</clus>
</clustering>
</event>
<event>
10    2  0.3544405E-006  0.1645719E+03  0.7546771E-02  0.1183674E+00
         21   -1    0    0  503  502  0.00000000000E+00  0.00000000000E+00  0.13136308000E+03  0.13136308000E+03  0.00000000000E+00 0.  1.
         -1   -1    0    0    0  501 -0.00000000000E+00 -0.00000000000E+00 -0.10560287791E+04  0.10560287791E+04  0.00000000000E+00 0.  1.
         23    2    1    2    0    0  0.12955742408E+03 -0.11319477830E+03 -0.83748599924E+03  0.85974493730E+03  0.90445421788E+02 0.  0.
         23    2    1    2    0    0 -0.77718990323E+02 -0.32531555331E+01  0.39225977749E+02  0.12578907091E+03  0.90738021537E+02 0.  0.
        -11    1    4    4    0    0 -0.39292059050E+02 -0.33839616576E+02  0.53636667047E+02  0.74604809539E+02  0.00000000000E+00 0.  1.
         11    1    4    4    0    0 -0.38426931273E+02  0.30586461043E+02 -0.14410689298E+02  0.51184261372E+02  0.00000000000E+00 0. -1.
        -13    1    3    3    0    0  0.58759882327E+01 -0.58592727632E+02 -0.27588573334E+03  0.28210028861E+03  0.00000000000E+00 0. -1.
         13    1    3    3    0    0  0.12368143585E+03 -0.54602050664E+02 -0.56160026590E+03  0.57764464870E+03  0.00000000000E+00 0.  1.
         21    1    1    2  503  501 -0.17758961351E+02  0.22587156443E+02 -0.91774134044E+02  0.96166792730E+02  0.00000000000E+00 0.  1.
         -1    1    1    2    0  502 -0.34079472407E+02  0.93860777386E+02 -0.34631543615E+02  0.10569105820E+03  0.00000000000E+00 0.  1.
<scales pt_clust_5="13000.00000" pt_clust_6="13000.00000" pt_clust_7="13000.00000" pt_clust_8="13000.00000" pt_clust_9="28.73257" pt_clust_10="101.84864"></scales>
<clustering>
<clus scale="   28.733">  2  9  1 -1</clus>
<clus scale="   90.445">  7  8 -1 -1</clus>
<clus scale="   90.738">  5  6 -1 -1</clus>
<clus scale="  101.849">  1 10  2 -1</clus>
<clus scale="  164.411">  2  7  1 -1</clus>
<clus scale="  101.849">  1  5  2 -1</clus>
</clustering>
</event>
<event>
10    2  0.3544405E-006  0.1244273E+03  0.7546771E-02  0.1236355E+00
          1   -1    0    0  503    0 -0.00000000000E+00  0.00000000000E+00  0.53025528587E+03  0.53025528587E+03  0.00000000000E+00 0. -1.
         21   -1    0    0  501  502  0.00000000000E+00 -0.00000000000E+00 -0.53429541538E+03  0.53429541538E+03  0.00000000000E+00 0. -1.
         23    2    1    2    0    0  0.11438917576E+03 -0.10328226077E+03  0.65723343002E+02  0.19042604410E+03  0.90500892455E+02 0.  0.
         23    2    1    2    0    0 -0.90564512946E+01  0.39293903217E+02 -0.15901857204E+03  0.18800731465E+03  0.91835798965E+02 0.  0.
        -11    1    3    3    0    0  0.35500084424E+02  0.33150275647E+01  0.43033541309E+02  0.55884980804E+02  0.00000000000E+00 0. -1.
         11    1    3    3    0    0  0.78889091338E+02 -0.10659728833E+03  0.22689801694E+02  0.13454106329E+03  0.00000000000E+00 0.  1.
        -13    1    4    4    0    0  0.40461869096E+02  0.25765782877E+02 -0.63657459939E+02  0.79707657248E+02  0.00000000000E+00 0. -1.
         13    1    4    4    0    0 -0.49518320391E+02  0.13528120339E+02 -0.95361112097E+02  0.10829965741E+03  0.00000000000E+00 0.  1.
         21    1    1    2  503  502 -0.56951421348E+02  0.39637772497E+02  0.38207788233E+03  0.38832734332E+03  0.00000000000E+00 0. -1.
          1    1    1    2  501    0 -0.48381303121E+02  0.24350585052E+02 -0.29282278281E+03  0.29778999919E+03  0.00000000000E+00 0. -1.
<scales pt_clust_5="13000.00000" pt_clust_6="13000.00000" pt_clust_7="13000.00000" pt_clust_8="13000.00000" pt_clust_9="70.08859" pt_clust_10="54.16365"></scales>
<clustering>
<clus scale="   54.164">  2 10  1 -1</clus>
<clus scale="   70.089">  1  9  2 -1</clus>
<clus scale="   90.501">  5  6 -1 -1</clus>
<clus scale="   91.836">  7  8 -1 -1</clus>
<clus scale="  123.445">  1  5  2 -1</clus>
<clus scale="   54.164">  2  5  1 -1</clus>
</clustering>
</event>
<event>
10    2  0.3544405E-006  0.9538579E+02  0.7546771E-02  0.1291086E+00
         21   -1    0    0  501  502  0.00000000000E+00  0.00000000000E+00  0.24784674412E+03  0.24784674412E+03  0.00000000000E+00 0. -1.
          1   -1    0    0  503    0 -0.00000000000E+00 -0.00000000000E+00 -0.11332270086E+03  0.11332270086E+03  0.00000000000E+00 0. -1.
         23    2    1    2    0    0 -0.36022894119E+02  0.66900990057E+01  0.25417829176E+02  0.10094895371E+03  0.90566102321E+02 0.  0.
         23    2    1    2    0    0  0.84443785090E+01  0.40507011897E+02  0.72215972175E+02  0.12405689958E+03  0.91993707142E+02 0.  0.
        -11    1    3    3    0    0 -0.29373541378E+02 -0.37219229886E+02 -0.41518784018E+01  0.47595315953E+02  0.00000000000E+00 0.  1.
         11    1    3    3    0    0 -0.66493527410E+01  0.43909328892E+02  0.29569707578E+02  0.53353637756E+02  0.00000000000E+00 0. -1.
        -13    1    4    4    0    0  0.26074210433E+02  0.64763691602E+02  0.41939579619E+02  0.81444020886E+02  0.00000000000E+00 0. -1.
         13    1    4    4    0    0 -0.17629831923E+02 -0.24256679704E+02  0.30276392556E+02  0.42612878689E+02  0.00000000000E+00 0.  1.
         21    1    1    2  503  502  0.54799145235E+02 -0.41136446663E+02 -0.21200360470E+02  0.71725928691E+02  0.00000000000E+00 0. -1.
          1    1    1    2  501    0 -0.27220629625E+02 -0.60606642397E+01  0.58090602383E+02  0.64437663004E+02  0.00000000000E+00 0. -1.
<scales pt_clust_5="13000.00000" pt_clust_6="13000.00000" pt_clust_7="13000.00000" pt_clust_8="13000.00000" pt_clust_9="66.12857" pt_clust_10="27.88717"></scales>
<clustering>
<clus scale="   27.887">  1 10  2 -1</clus>
<clus scale="   66.129">  2  9  1 -1</clus>
<clus scale="   90.566">  5  6 -1 -1</clus>
<clus scale="   91.994">  7  8 -1 -1</clus>
<clus scale="   94.010">  2  5  1 -1</clus>
<clus scale="   27.887">  1  5  2 -1</clus>
</clustering>
</event>
<event>
10    2  0.3544405E-006  0.2834018E+03  0.7546771E-02  0.1093959E+00
         21   -1    0    0  501  502  0.00000000000E+00  0.00000000000E+00  0.19395495407E+03  0.19395495407E+03  0.00000000000E+00 0.  1.
          2   -1    0    0  503    0 -0.00000000000E+00 -0.00000000000E+00 -0.54242412450E+03  0.54242412450E+03  0.00000000000E+00 0.  1.
         23    2    1    2    0    0  0.22485390868E+03 -0.10625575637E+03 -0.20183503346E+03  0.33341388631E+03  0.92616806478E+02 0.  0.
         23    2    1    2    0    0 -0.24153425457E+03  0.15618190754E+03 -0.12880486832E+03  0.32920716931E+03  0.95158193788E+02 0.  0.
        -13    1    3    3    0    0  0.13020659999E+03 -0.17601214919E+02 -0.71642560125E+02  0.14965365972E+03  0.00000000000E+00 0. -1.
         13    1    3    3    0    0  0.94647308690E+02 -0.88654541449E+02 -0.13019247334E+03  0.18376022659E+03  0.00000000000E+00 0.  1.
        -13    1    4    4    0    0 -0.17128729606E+03  0.68519008410E+02 -0.11145933413E+03  0.21553973061E+03  0.00000000000E+00 0.  1.
         13    1    4    4    0    0 -0.70246958512E+02  0.87662899131E+02 -0.17345534189E+02  0.11366743870E+03  0.00000000000E+00 0. -1.
         21    1    1    2  503  502 -0.11731443005E+01 -0.40027974460E+02 -0.29959812790E+02  0.50012052441E+02  0.00000000000E+00 0. -1.
          2    1    1    2  501    0  0.17853490194E+02 -0.98981767137E+01  0.12130544153E+02  0.23745970517E+02  0.00000000000E+00 0.  1.
<scales pt_clust_5="13000.00000" pt_clust_6="13000.00000" pt_clust_7="13000.00000" pt_clust_8="13000.00000" pt_clust_9="40.59209" pt_clust_10="20.41375"></scales>
<clustering>
<clus scale="   20.414">  1 10  2 -1</clus>
<clus scale="   40.592">  2  9  1 -1</clus>
<clus scale="   92.617">  5  6 -1 -1</clus>
<clus scale="   95.158">  7  8 -1 -1</clus>
<clus scale="  282.559">  2  5  1 -1</clus>
<clus scale="   20.414">  1  5  2 -1</clus>
</clustering>
</event>
<event>
10    2  0.3544405E-006  0.3468849E+03  0.7546771E-02  0.1080952E+00
          2   -1    0    0  502    0 -0.00000000000E+00  0.00000000000E+00  0.25234377482E+04  0.25234377482E+04  0.00000000000E+00 0. -1.
         21   -1    0    0  503  502  0.00000000000E+00 -0.00000000000E+00 -0.96770880627E+02  0.96770880627E+02  0.00000000000E+00 0. -1.
         23    2    1    2    0    0  0.13669295825E+03  0.14093272826E+03  0.79854197803E+03  0.82767906851E+03  0.94001867251E+02 0.  0.
         23    2    1    2    0    0 -0.37609094955E+03 -0.24702564422E+03  0.10726370521E+04  0.11669282206E+04  0.93301421854E+02 0.  0.
        -13    1    4    4    0    0 -0.51995371542E+02 -0.78828918142E+01  0.18210933233E+03  0.18955069920E+03  0.00000000000E+00 0.  1.
         13    1    4    4    0    0 -0.32409557801E+03 -0.23914275240E+03  0.89052771979E+03  0.97737752144E+03  0.00000000000E+00 0. -1.
        -13    1    3    3    0    0  0.64106616932E+02  0.19357841207E+02  0.15678811172E+03  0.17049016490E+03  0.00000000000E+00 0.  1.
         13    1    3    3    0    0  0.72586341323E+02  0.12157488706E+03  0.64175386631E+03  0.65718890362E+03  0.00000000000E+00 0. -1.
         21    1    1    2  503  501  0.26115598812E+02  0.63717195243E+02  0.16195812931E+03  0.17598960515E+03  0.00000000000E+00 0. -1.
          2    1    1    2  501    0  0.21328239248E+03  0.42375720713E+02  0.39352970810E+03  0.44961173451E+03  0.00000000000E+00 0. -1.
<scales pt_clust_5="13000.00000" pt_clust_6="13000.00000" pt_clust_7="13000.00000" pt_clust_8="13000.00000" pt_clust_9="67.16003" pt_clust_10="67.16003"></scales>
<clustering>
<clus scale="   67.160">  9 10 -1 -1</clus>
<clus scale="   93.301">  5  6 -1 -1</clus>
<clus scale="   94.002">  7  8 -1 -1</clus>
<clus scale="  217.677">  1  7  2 -1</clus>
<clus scale="  338.808">  1  5  2 -1</clus>
<clus scale="  346.885">  2  5  1 -1</clus>
</clustering>
</event>
<event>
10    2  0.3544405E-006  0.1456566E+03  0.7546771E-02  0.1206193E+00
          1   -1    0    0  503    0 -0.00000000000E+00  0.00000000000E+00  0.60003262190E+03  0.60003262190E+03  0.00000000000E+00 0. -1.
         21   -1    0    0  501  502  0.00000000000E+00 -0.00000000000E+00 -0.15157787026E+03  0.15157787026E+03  0.00000000000E+00 0. -1.
         23    2    1    2    0    0 -0.10397130069E+03 -0.68855974644E+02  0.13955822967E+03  0.20918088652E+03  0.93428942008E+02 0.  0.
         23    2    1    2    0    0 -0.98182707306E+01  0.13723156707E+03  0.15008654135E+03  0.22345235501E+03  0.92065648467E+02 0.  0.
        -11    1    4    4    0    0 -0.17916411370E+02  0.15483368683E+02 -0.68613852470E+01  0.24653825457E+02  0.00000000000E+00 0.  1.
         11    1    4    4    0    0  0.80981406396E+01  0.12174819839E+03  0.15694792659E+03  0.19879852956E+03  0.00000000000E+00 0. -1.
        -11    1    3    3    0    0 -0.76486967387E+02 -0.90923461772E+02  0.12000108652E+03  0.16887152763E+03  0.00000000000E+00 0. -1.
         11    1    3    3    0    0 -0.27484333304E+02  0.22067487128E+02  0.19557143155E+02  0.40309358884E+02  0.00000000000E+00 0.  1.
         21    1    1    2  503  502  0.20285481702E+02  0.17684798229E+02  0.18690151839E+03  0.18882910377E+03  0.00000000000E+00 0. -1.
          1    1    1    2  501    0  0.93504089720E+02 -0.86060390653E+02 -0.28091537762E+02  0.13014814685E+03  0.00000000000E+00 0. -1.
<scales pt_clust_5="13000.00000" pt_clust_6="13000.00000" pt_clust_7="13000.00000" pt_clust_8="13000.00000" pt_clust_9="26.91195" pt_clust_10="127.48849"></scales>
<clustering>
<clus scale="   26.912">  1  9  2 -1</clus>
<clus scale="   92.066">  5  6 -1 -1</clus>
<clus scale="   93.429">  7  8 -1 -1</clus>
<clus scale="  127.488">  2 10  1 -1</clus>
<clus scale="  144.786">  2  5  1 -1</clus>
<clus scale="  127.488">  2  5  1 -1</clus>
</clustering>
</event>
<event>
10    2  0.3544405E-006  0.1833170E+03  0.7546771E-02  0.1179783E+00
         21   -1    0    0  501  502  0.00000000000E+00  0.00000000000E+00  0.47914185225E+03  0.47914185225E+03  0.00000000000E+00 0. -1.
          2   -1    0    0  503    0 -0.00000000000E+00 -0.00000000000E+00 -0.39051988196E+03  0.39051988196E+03  0.00000000000E+00 0. -1.
         23    2    1    2    0    0  0.61537906018E+02 -0.91251905709E+02 -0.16275681816E+03  0.21494493178E+03  0.87164887806E+02 0.  0.
         23    2    1    2    0    0  0.85306262278E+02  0.12458588642E+03 -0.10417119022E+03  0.20524383716E+03  0.92057559954E+02 0.  0.
        -11    1    4    4    0    0  0.26507053472E+02  0.86277603890E+02 -0.14561394526E+02  0.91424739690E+02  0.00000000000E+00 0.  1.
         11    1    4    4    0    0  0.58799208806E+02  0.38308282527E+02 -0.89609795689E+02  0.11381909747E+03  0.00000000000E+00 0. -1.
        -11    1    3    3    0    0 -0.13656366392E+02 -0.47783639402E+02 -0.36336843826E+02  0.61564102826E+02  0.00000000000E+00 0.  1.
         11    1    3    3    0    0  0.75194272410E+02 -0.43468266307E+02 -0.12641997433E+03  0.15338082895E+03  0.00000000000E+00 0. -1.
         21    1    1    2  503  502  0.25045770682E+00  0.33283355121E+02 -0.21278166744E+02  0.39504491354E+02  0.00000000000E+00 0. -1.
          2    1    1    2  501    0 -0.14709462600E+03 -0.66617335828E+02  0.37682814541E+03  0.40996847391E+03  0.00000000000E+00 0. -1.
<scales pt_clust_5="13000.00000" pt_clust_6="13000.00000" pt_clust_7="13000.00000" pt_clust_8="13000.00000" pt_clust_9="33.28430" pt_clust_10="158.52606"></scales>
<clustering>
<clus scale="   33.284">  2  9  1 -1</clus>
<clus scale="   87.165">  7  8 -1 -1</clus>
<clus scale="   92.058">  5  6 -1 -1</clus>
<clus scale="  129.796">  2  7  1 -1</clus>
<clus scale="  158.526">  1 10  2 -1</clus>
<clus scale="  158.526">  1  5  2 -1</clus>
</clustering>
</event>
<event>
10    2  0.3544405E-006  0.1558092E+03  0.7546771E-02  0.1193683E+00
         21   -1    0    0  503  502  0.00000000000E+00  0.00000000000E+00  0.22253286470E+03  0.22253286470E+03  0.00000000000E+00 0.  1.
         -3   -1    0    0    0  501 -0.00000000000E+00 -0.00000000000E+00 -0.34290521277E+03  0.34290521277E+03  0.00000000000E+00 0.  1.
         23    2    1    2    0    0  0.11498269038E+03 -0.51874304040E+02 -0.12583589116E+03  0.20079396821E+03  0.92582847539E+02 0.  0.
         23    2    1    2    0    0 -0.40567092706E+02  0.14033655517E+03  0.81666308584E+02  0.19078337466E+03  0.91590787541E+02 0.  0.
        -11    1    4    4    0    0 -0.83281166484E+01  0.27249229975E+02  0.66334505164E+02  0.72195184303E+02  0.00000000000E+00 0.  1.
         11    1    4    4    0    0 -0.32238976058E+02  0.11308732519E+03  0.15331803420E+02  0.11858819036E+03  0.00000000000E+00 0. -1.
        -13    1    3    3    0    0  0.53941460914E+01 -0.44092586179E+02 -0.52162419932E+02  0.68514020618E+02  0.00000000000E+00 0. -1.
         13    1    3    3    0    0  0.10958854429E+03 -0.77817178606E+01 -0.73673471232E+02  0.13227994759E+03  0.00000000000E+00 0.  1.
         21    1    1    2  503  501 -0.10702447366E+02 -0.26629905690E+02 -0.80003269846E+02  0.84995396597E+02  0.00000000000E+00 0. -1.
         -3    1    1    2    0  502 -0.63713150306E+02 -0.61832345437E+02  0.38005043579E+01  0.88865337999E+02  0.00000000000E+00 0.  1.
<scales pt_clust_5="13000.00000" pt_clust_6="13000.00000" pt_clust_7="13000.00000" pt_clust_8="13000.00000" pt_clust_9="28.70007" pt_clust_10="93.08708"></scales>
<clustering>
<clus scale="   28.700">  2  9  1 -1</clus>
<clus scale="   91.591">  5  6 -1 -1</clus>
<clus scale="   92.583">  7  8 -1 -1</clus>
<clus scale="   93.087">  1 10  2 -1</clus>
<clus scale="  155.222">  1  5  2 -1</clus>
<clus scale="   93.087">  1  5  2 -1</clus>
</clustering>
</event>
<event>
10    2  0.3544405E-006  0.1173049E+03  0.7546771E-02  0.1248110E+00
         21   -1    0    0  501  502  0.00000000000E+00  0.00000000000E+00  0.10874469406E+03  0.10874469406E+03  0.00000000000E+00 0. -1.
          2   -1    0    0  503    0 -0.00000000000E+00 -0.00000000000E+00 -0.58535709788E+03  0.58535709788E+03  0.00000000000E+00 0. -1.
         23    2    1    2    0    0  0.82903457192E+02  0.12226321748E+02 -0.22319872919E+03  0.25503405816E+03  0.90566174418E+02 0.  0.
         23    2    1    2    0    0 -0.72759431062E+02 -0.14549160948E+02 -0.17180877706E+03  0.20725102232E+03  0.89045592169E+02 0.  0.
        -11    1    4    4    0    0 -0.72864272400E+02 -0.41187228546E+02 -0.15378880110E+03  0.17509022054E+03  0.00000000000E+00 0.  1.
         11    1    4    4    0    0  0.10484133838E+00  0.26638067598E+02 -0.18019975965E+02  0.32160801775E+02  0.00000000000E+00 0. -1.
        -13    1    3    3    0    0 -0.68270905266E+01 -0.25044590705E+02 -0.40493002624E+02  0.48099105503E+02  0.00000000000E+00 0.  1.
         13    1    3    3    0    0  0.89730547719E+02  0.37270912452E+02 -0.18270572657E+03  0.20693495265E+03  0.00000000000E+00 0. -1.
         21    1    1    2  503  502 -0.38439560638E+02  0.15101427109E+02 -0.15059877298E+03  0.15615903223E+03  0.00000000000E+00 0. -1.
          2    1    1    2  501    0  0.28295534508E+02 -0.12778587909E+02  0.68993875420E+02  0.75657679237E+02  0.00000000000E+00 0. -1.
<scales pt_clust_5="13000.00000" pt_clust_6="13000.00000" pt_clust_7="13000.00000" pt_clust_8="13000.00000" pt_clust_9="38.93261" pt_clust_10="31.04722"></scales>
<clustering>
<clus scale="   31.047">  1 10  2 -1</clus>
<clus scale="   38.933">  2  9  1 -1</clus>
<clus scale="   89.046">  5  6 -1 -1</clus>
<clus scale="   90.566">  7  8 -1 -1</clus>
<clus scale="  116.135">  1  5  2 -1</clus>
<clus scale="   31.047">  1  5  2 -1</clus>
</clustering>
</event>
<event>
10    2  0.3544405E-006  0.9321387E+02  0.7546771E-02  0.1296968E+00
         -1   -1    0    0    0  501 -0.00000000000E+00  0.00000000000E+00  0.21135113936E+03  0.21135113936E+03  0.00000000000E+00 0.  1.
         21   -1    0    0  503  502  0.00000000000E+00 -0.00000000000E+00 -0.14538660599E+03  0.14538660599E+03  0.00000000000E+00 0.  1.
         23    2    1    2    0    0  0.20446147559E+01 -0.20103363454E+02  0.74135734216E+02  0.12012835352E+03  0.92338445733E+02 0.  0.
         23    2    1    2    0    0 -0.63673337725E+01  0.25281743704E+01  0.53177498276E+02  0.10423362394E+03  0.89386058377E+02 0.  0.
        -11    1    3    3    0    0  0.39621803000E+02  0.30189330390E+01  0.63229522675E+02  0.74679138769E+02  0.00000000000E+00 0.  1.
         11    1    3    3    0    0 -0.37577188244E+02 -0.23122296493E+02  0.10906211541E+02  0.45449214752E+02  0.00000000000E+00 0. -1.
        -11    1    4    4    0    0 -0.27746021819E+02 -0.33366813686E+02  0.43299078088E+02  0.61302497058E+02  0.00000000000E+00 0.  1.
         11    1    4    4    0    0  0.21378688046E+02  0.35894988056E+02  0.98784201876E+01  0.42931126884E+02  0.00000000000E+00 0. -1.
         21    1    1    2  503  501 -0.23865822988E+02 -0.14405462597E+02  0.24121568400E+02  0.36863870139E+02  0.00000000000E+00 0. -1.
         -1    1    1    2    0  502  0.28188542005E+02  0.31980651681E+02 -0.85470267515E+02  0.95511897747E+02  0.00000000000E+00 0.  1.
<scales pt_clust_5="13000.00000" pt_clust_6="13000.00000" pt_clust_7="13000.00000" pt_clust_8="13000.00000" pt_clust_9="27.87642" pt_clust_10="41.89301"></scales>
<clustering>
<clus scale="   27.876">  1  9  2 -1</clus>
<clus scale="   41.893">  2 10  1 -1</clus>
<clus scale="   89.386">  7  8 -1 -1</clus>
<clus scale="   90.290">  2  7  1 -1</clus>
<clus scale="   92.338">  5  6 -1 -1</clus>
<clus scale="   41.893">  2  5  1 -1</clus>
</clustering>
</event>
<event>
10    2  0.3544405E-006  0.1097611E+03  0.7546771E-02  0.1262640E+00
         21   -1    0    0  503  502  0.00000000000E+00  0.00000000000E+00  0.13619462299E+03  0.13619462299E+03  0.00000000000E+00 0. -1.
         -1   -1    0    0    0  501 -0.00000000000E+00 -0.00000000000E+00 -0.36707321878E+03  0.36707321878E+03  0.00000000000E+00 0.  1.
         23    2    1    2    0    0 -0.19536895002E+02  0.62413268923E+02 -0.89145168280E+02  0.14422061181E+03  0.92604629684E+02 0.  0.
         23    2    1    2    0    0  0.91248175468E+02  0.15013745527E+02 -0.56329747480E+02  0.13984289014E+03  0.88494922969E+02 0.  0.
        -11    1    3    3    0    0 -0.32450945618E+02  0.82801550211E+02 -0.74299331570E+02  0.11588594074E+03  0.00000000000E+00 0. -1.
         11    1    3    3    0    0  0.12914050616E+02 -0.20388281287E+02 -0.14845836710E+02  0.28334671072E+02  0.00000000000E+00 0.  1.
        -13    1    4    4    0    0  0.51919696778E+02 -0.31253804309E+02 -0.50418099381E+02  0.78831719140E+02  0.00000000000E+00 0.  1.
         13    1    4    4    0    0  0.39328478689E+02  0.46267549836E+02 -0.59116480989E+01  0.61011171002E+02  0.00000000000E+00 0. -1.
         21    1    1    2  503  501 -0.17555956122E+02 -0.11651303048E+02 -0.12392221293E+03  0.12570075304E+03  0.00000000000E+00 0.  1.
         -1    1    1    2    0  502 -0.54155324344E+02 -0.65775711402E+02  0.38518532895E+02  0.93503586785E+02  0.00000000000E+00 0.  1.
<scales pt_clust_5="13000.00000" pt_clust_6="13000.00000" pt_clust_7="13000.00000" pt_clust_8="13000.00000" pt_clust_9="21.07046" pt_clust_10="87.49107"></scales>
<clustering>
<clus scale="   21.070">  2  9  1 -1</clus>
<clus scale="   87.491">  1 10  2 -1</clus>
<clus scale="   88.495">  7  8 -1 -1</clus>
<clus scale="   92.605">  5  6 -1 -1</clus>
<clus scale="  106.317">  1  7  2 -1</clus>
<clus scale="   87.491">  1  5  2 -1</clus>
</clustering>
</event>
<event>
10    2  0.3544405E-006  0.1686044E+03  0.7546771E-02  0.1202569E+00
         21   -1    0    0  501  502  0.00000000000E+00  0.00000000000E+00  0.15545103990E+03  0.15545103990E+03  0.00000000000E+00 0. -1.
          2   -1    0    0  503    0 -0.00000000000E+00 -0.00000000000E+00 -0.50281892755E+03  0.50281892755E+03  0.00000000000E+00 0. -1.
         23    2    1    2    0    0  0.30050006704E+02  0.23437072019E+02 -0.68384052682E+02  0.12142260137E+03  0.92815786450E+02 0.  0.
         23    2    1    2    0    0 -0.12860857214E+03 -0.12061575943E+03 -0.25680483281E+03  0.32457049120E+03  0.91153471437E+02 0.  0.
        -11    1    3    3    0    0  0.47365724281E+02  0.11164697830E+02  0.11951644292E+01  0.48678442172E+02  0.00000000000E+00 0.  1.
         11    1    3    3    0    0 -0.17315717577E+02  0.12272374190E+02 -0.69579217111E+02  0.72744159197E+02  0.00000000000E+00 0. -1.
        -13    1    4    4    0    0 -0.96692072801E+02 -0.30727225922E+02 -0.15313000926E+03  0.18369082473E+03  0.00000000000E+00 0.  1.
         13    1    4    4    0    0 -0.31916499340E+02 -0.89888533513E+02 -0.10367482355E+03  0.14087966647E+03  0.00000000000E+00 0. -1.
         21    1    1    2  503  502  0.17060432636E+02 -0.12104636111E+02 -0.65877083341E+02  0.69118526363E+02  0.00000000000E+00 0.  1.
          2    1    1    2  501    0  0.81498132801E+02  0.10928332353E+03  0.43698081186E+02  0.14315834852E+03  0.00000000000E+00 0. -1.
<scales pt_clust_5="13000.00000" pt_clust_6="13000.00000" pt_clust_7="13000.00000" pt_clust_8="13000.00000" pt_clust_9="20.91843" pt_clust_10="141.83970"></scales>
<clustering>
<clus scale="   20.918">  2  9  1 -1</clus>
<clus scale="   91.153">  7  8 -1 -1</clus>
<clus scale="   92.816">  5  6 -1 -1</clus>
<clus scale="  100.934">  2  5  1 -1</clus>
<clus scale="  141.840">  1 10  2 -1</clus>
<clus scale="  141.840">  1  5  2 -1</clus>
</clustering>
</event>
<event>
10    2  0.3544405E-006  0.1338002E+03  0.7546771E-02  0.1240757E+00
         21   -1    0    0  501  502  0.00000000000E+00  0.00000000000E+00  0.10731712302E+03  0.10731712302E+03  0.00000000000E+00 0. -1.
          1   -1    0    0  503    0 -0.00000000000E+00 -0.00000000000E+00 -0.59807343737E+03  0.59807343737E+03  0.00000000000E+00 0. -1.
         23    2    1    2    0    0 -0.21933895962E+02 -0.48992256265E+01 -0.36253544825E+03  0.37420626579E+03  0.89962658449E+02 0.  0.
         23    2    1    2    0    0 -0.95455853151E+02  0.72533420416E+01 -0.10002010124E+03  0.16646963041E+03  0.92432063285E+02 0.  0.
        -13    1    4    4    0    0  0.38397324519E+01  0.30781219318E+02 -0.22592067536E+02  0.38374842326E+02  0.00000000000E+00 0.  1.
         13    1    4    4    0    0 -0.99295585603E+02 -0.23527877276E+02 -0.77428033707E+02  0.12809478808E+03  0.00000000000E+00 0. -1.
        -13    1    3    3    0    0  0.40791563710E-01 -0.45045463732E+02 -0.21771502659E+03  0.22232617540E+03  0.00000000000E+00 0.  1.
         13    1    3    3    0    0 -0.21974687525E+02  0.40146238106E+02 -0.14482042166E+03  0.15188009038E+03  0.00000000000E+00 0. -1.
         21    1    1    2  503  502  0.20318438065E+02 -0.60174101676E+01 -0.59095245417E+02  0.62779743400E+02  0.00000000000E+00 0.  1.
          1    1    1    2  501    0  0.97071311048E+02  0.36632937526E+01  0.30894480551E+02  0.10193492080E+03  0.00000000000E+00 0. -1.
<scales pt_clust_5="13000.00000" pt_clust_6="13000.00000" pt_clust_7="13000.00000" pt_clust_8="13000.00000" pt_clust_9="21.19076" pt_clust_10="96.74094"></scales>
<clustering>
<clus scale="   21.191">  2  9  1 -1</clus>
<clus scale="   89.963">  7  8 -1 -1</clus>
<clus scale="   90.767">  2  7  1 -1</clus>
<clus scale="   92.432">  5  6 -1 -1</clus>
<clus scale="   96.741">  1 10  2 -1</clus>
<clus scale="   96.741">  1  5  2 -1</clus>
</clustering>
</event>
<event>
10    2  0.3544405E-006  0.2970112E+03  0.7546771E-02  0.1086789E+00
          1   -1    0    0  503    0 -0.00000000000E+00  0.00000000000E+00  0.25259833994E+04  0.25259833994E+04  0.00000000000E+00 0. -1.
         21   -1    0    0  501  502  0.00000000000E+00 -0.00000000000E+00 -0.49607634525E+02  0.49607634525E+02  0.00000000000E+00 0.  1.
         23    2    1    2    0    0 -0.25835786006E+03  0.64536569690E+02  0.10681946764E+04  0.11046730203E+04  0.91372108870E+02 0.  0.
         23    2    1    2    0    0  0.28163746877E+03 -0.10855080718E+03  0.12059224735E+04  0.12463907060E+04  0.90209967930E+02 0.  0.
        -11    1    3    3    0    0 -0.23519787300E+02  0.26949527851E+02  0.70889261349E+02  0.79402423267E+02  0.00000000000E+00 0.  1.
         11    1    3    3    0    0 -0.23483807276E+03  0.37587041838E+02  0.99730541506E+03  0.10252705970E+04  0.00000000000E+00 0. -1.
        -11    1    4    4    0    0  0.12108012323E+03 -0.73717221497E+02  0.41372077817E+03  0.43733226188E+03  0.00000000000E+00 0.  1.
         11    1    4    4    0    0  0.16055734553E+03 -0.34833585680E+02  0.79220169536E+03  0.80905844413E+03  0.00000000000E+00 0. -1.
         21    1    1    2  503  502  0.28888550748E+01 -0.22905140365E+02  0.73940618274E+02  0.77460996440E+02  0.00000000000E+00 0.  1.
          1    1    1    2  501    0 -0.26168463781E+02  0.66919377853E+02  0.12831799665E+03  0.14706631122E+03  0.00000000000E+00 0. -1.
<scales pt_clust_5="13000.00000" pt_clust_6="13000.00000" pt_clust_7="13000.00000" pt_clust_8="13000.00000" pt_clust_9="23.08660" pt_clust_10="67.47758"></scales>
<clustering>
<clus scale="   23.087">  2  9  1 -1</clus>
<clus scale="   67.478">  2 10  1 -1</clus>
<clus scale="   90.210">  7  8 -1 -1</clus>
<clus scale="   91.372">  5  6 -1 -1</clus>
<clus scale="  296.656">  2  7  1 -1</clus>
<clus scale="   23.087">  2  5  1 -1</clus>
</clustering>
</event>
<event>
10    2  0.3544405E-006  0.1682038E+03  0.7546771E-02  0.1200043E+00
         21   -1    0    0  501  502  0.00000000000E+00  0.00000000000E+00  0.28893949110E+03  0.28893949110E+03  0.00000000000E+00 0. -1.
          2   -1    0    0  503    0 -0.00000000000E+00 -0.00000000000E+00 -0.34730662726E+03  0.34730662726E+03  0.00000000000E+00 0. -1.
         23    2    1    2    0    0  0.61425609825E+02 -0.45618753444E+01  0.25884363635E+02  0.11274238957E+03  0.90812608569E+02 0.  0.
         23    2    1    2    0    0 -0.12711317403E+03  0.94717896277E+02 -0.81279740353E+02  0.20003603603E+03  0.90987804844E+02 0.  0.
        -13    1    3    3    0    0 -0.40067954931E+01  0.31259700652E+02 -0.51768242348E+01  0.31937795856E+02  0.00000000000E+00 0. -1.
         13    1    3    3    0    0  0.65432405318E+02 -0.35821575997E+02  0.31061187870E+02  0.80804593709E+02  0.00000000000E+00 0.  1.
        -13    1    4    4    0    0  0.10818493456E+02  0.25899581600E+02 -0.18377690405E+02  0.33549480359E+02  0.00000000000E+00 0.  1.
         13    1    4    4    0    0 -0.13793166749E+03  0.68818314677E+02 -0.62902049948E+02  0.16648655567E+03  0.00000000000E+00 0. -1.
         21    1    1    2  503  502 -0.20417349462E+02  0.18613956948E+02 -0.13148890479E+03  0.13436026062E+03  0.00000000000E+00 0. -1.
          2    1    1    2  501    0  0.86104913667E+02 -0.10876997788E+03  0.12851714534E+03  0.18910743215E+03  0.00000000000E+00 0. -1.
<scales pt_clust_5="13000.00000" pt_clust_6="13000.00000" pt_clust_7="13000.00000" pt_clust_8="13000.00000" pt_clust_9="27.62875" pt_clust_10="141.46993"></scales>
<clustering>
<clus scale="   27.629">  2  9  1 -1</clus>
<clus scale="   90.813">  5  6 -1 -1</clus>
<clus scale="   90.988">  7  8 -1 -1</clus>
<clus scale="  107.376">  2  5  1 -1</clus>
<clus scale="  141.470">  1 10  2 -1</clus>
<clus scale="  141.470">  1  5  2 -1</clus>
</clustering>
</event>
<event>
10    2  0.3544405E-006  0.3143653E+03  0.7546771E-02  0.1100221E+00
          2   -1    0    0  503    0 -0.00000000000E+00  0.00000000000E+00  0.28821573007E+04  0.28821573007E+04  0.00000000000E+00 0. -1.
         21   -1    0    0  501  502  0.00000000000E+00 -0.00000000000E+00 -0.24939283778E+03  0.24939283778E+03  0.00000000000E+00 0. -1.
         23    2    1    2    0    0  0.30534610797E+03 -0.43922571162E+02  0.22764216561E+03  0.39408241862E+03  0.91184204718E+02 0.  0.
         23    2    1    2    0    0  0.31036707216E+02  0.14462425524E+03  0.38808053051E+03  0.42514326167E+03  0.90889176387E+02 0.  0.
        -13    1    4    4    0    0 -0.27079461335E+02  0.36451986321E+02  0.15734878918E+03  0.16377022315E+03  0.00000000000E+00 0.  1.
         13    1    4    4    0    0  0.58116168551E+02  0.10817226892E+03  0.23073174133E+03  0.26137303852E+03  0.00000000000E+00 0. -1.
        -13    1    3    3    0    0  0.39117657398E+02  0.18859912868E+02  0.57113132543E+02  0.71748152189E+02  0.00000000000E+00 0. -1.
         13    1    3    3    0    0  0.26622845057E+03 -0.62782484030E+02  0.17052903306E+03  0.32233426643E+03  0.00000000000E+00 0.  1.
         21    1    1    2  503  502 -0.27785254551E+03 -0.12710703343E+03  0.21463298928E+04  0.21679691519E+04  0.00000000000E+00 0. -1.
          2    1    1    2  501    0 -0.58530269680E+02  0.26405349350E+02 -0.12928812596E+03  0.14435530630E+03  0.00000000000E+00 0. -1.
<scales pt_clust_5="13000.00000" pt_clust_6="13000.00000" pt_clust_7="13000.00000" pt_clust_8="13000.00000" pt_clust_9="300.85038" pt_clust_10="64.21086"></scales>
<clustering>
<clus scale="   64.211">  2 10  1 -1</clus>
<clus scale="   90.889">  5  6 -1 -1</clus>
<clus scale="   91.184">  7  8 -1 -1</clus>
<clus scale="  175.816">  2  5  1 -1</clus>
<clus scale="  300.850">  1  9  2 -1</clus>
<clus scale="   64.211">  2  5  1 -1</clus>
</clustering>
</event>
<event>
10    2  0.3544405E-006  0.9179881E+02  0.7546771E-02  0.1301110E+00
         -2   -1    0    0    0  501 -0.00000000000E+00  0.00000000000E+00  0.51610098951E+03  0.51610098951E+03  0.00000000000E+00 0.  1.
         21   -1    0    0  503  502  0.00000000000E+00 -0.00000000000E+00 -0.12769454884E+03  0.12769454884E+03  0.00000000000E+00 0.  1.
         23    2    1    2    0    0 -0.55722501081E+01  0.26146816370E+02  0.14382727272E+03  0.17116448073E+03  0.88861066318E+02 0.  0.
         23    2    1    2    0    0 -0.50393052087E+02  0.22143541564E+02  0.12603779867E+03  0.16141017477E+03  0.84486221918E+02 0.  0.
        -11    1    3    3    0    0  0.33770807097E+02  0.28188505031E+02  0.11261840675E+03  0.12090477562E+03  0.00000000000E+00 0.  1.
         11    1    3    3    0    0 -0.39343057205E+02 -0.20416886604E+01  0.31208865970E+02  0.50259705112E+02  0.00000000000E+00 0. -1.
        -13    1    4    4    0    0 -0.26816683168E+02 -0.21360416708E+02  0.10714276085E+02  0.35919320847E+02  0.00000000000E+00 0.  1.
         13    1    4    4    0    0 -0.23576368919E+02  0.43503958272E+02  0.11532352259E+03  0.12549085393E+03  0.00000000000E+00 0. -1.
         21    1    1    2  503  501  0.37446987982E+02 -0.21366058501E+02  0.20985409024E+03  0.21423707559E+03  0.00000000000E+00 0.  1.
         -2    1    1    2    0  502  0.18518314213E+02 -0.26924299433E+02 -0.91312720969E+02  0.96983807267E+02  0.00000000000E+00 0.  1.
<scales pt_clust_5="13000.00000" pt_clust_6="13000.00000" pt_clust_7="13000.00000" pt_clust_8="13000.00000" pt_clust_9="45.04561" pt_clust_10="32.67791"></scales>
<clustering>
<clus scale="   32.678">  2 10  1 -1</clus>
<clus scale="   45.046">  1  9  2 -1</clus>
<clus scale="   84.486">  7  8 -1 -1</clus>
<clus scale="   87.571">  2  7  1 -1</clus>
<clus scale="   88.861">  5  6 -1 -1</clus>
<clus scale="   32.678">  2  5  1 -1</clus>
</clustering>
</event>
<event>
10    2  0.3544405E-006  0.1301571E+03  0.7546771E-02  0.1228926E+00
         21   -1    0    0  501  502  0.00000000000E+00  0.00000000000E+00  0.50989053108E+02  0.50989053108E+02  0.00000000000E+00 0. -1.
          2   -1    0    0  503    0 -0.00000000000E+00 -0.00000000000E+00 -0.89649144576E+03  0.89649144576E+03  0.00000000000E+00 0. -1.
         23    2    1    2    0    0 -0.75181996484E+02  0.52900222597E+02 -0.53137044298E+03  0.54610514010E+03  0.86171400274E+02 0.  0.
         23    2    1    2    0    0  0.33659724493E+02 -0.76234153374E+02 -0.23528568133E+03  0.26624005675E+03  0.92627170880E+02 0.  0.
        -11    1    4    4    0    0  0.44633674679E+02 -0.79565245252E+01 -0.14852812120E+03  0.15529350915E+03  0.00000000000E+00 0.  1.
         11    1    4    4    0    0 -0.10973950185E+02 -0.68277628849E+02 -0.86757560134E+02  0.11094654760E+03  0.00000000000E+00 0. -1.
        -11    1    3    3    0    0 -0.32221561533E+02 -0.22052227818E+02 -0.19022445035E+03  0.19419029659E+03  0.00000000000E+00 0.  1.
         11    1    3    3    0    0 -0.42960434951E+02  0.74952450415E+02 -0.34114599263E+03  0.35191484350E+03  0.00000000000E+00 0. -1.
         21    1    1    2  503  502 -0.21695100342E+02  0.85436838309E+01 -0.64582080072E+02  0.68662340323E+02  0.00000000000E+00 0. -1.
          2    1    1    2  501    0  0.63217372332E+02  0.14790246946E+02 -0.14264188267E+02  0.66472961693E+02  0.00000000000E+00 0. -1.
<scales pt_clust_5="13000.00000" pt_clust_6="13000.00000" pt_clust_7="13000.00000" pt_clust_8="13000.00000" pt_clust_9="23.31677" pt_clust_10="63.99481"></scales>
<clustering>
<clus scale="   23.317">  2  9  1 -1</clus>
<clus scale="   63.995">  1 10  2 -1</clus>
<clus scale="   86.171">  7  8 -1 -1</clus>
<clus scale="   92.627">  5  6 -1 -1</clus>
<clus scale="  125.645">  2  7  1 -1</clus>
<clus scale="   63.995">  1  5  2 -1</clus>
</clustering>
</event>
<event>
10    2  0.3544405E-006  0.1190545E+03  0.7546771E-02  0.1245234E+00
         21   -1    0    0  501  502  0.00000000000E+00  0.00000000000E+00  0.21408336651E+03  0.21408336651E+03  0.00000000000E+00 0. -1.
          3   -1    0    0  503    0 -0.00000000000E+00 -0.00000000000E+00 -0.60246887204E+03  0.60246887204E+03  0.00000000000E+00 0. -1.
         23    2    1    2    0    0 -0.45160531025E+00 -0.49294599063E+02 -0.32305219369E+03  0.33873041911E+03  0.89137060431E+02 0.  0.
         23    2    1    2    0    0  0.37570908706E+02  0.10549313211E+03 -0.17529309584E+03  0.22701194982E+03  0.90919644789E+02 0.  0.
        -11    1    4    4    0    0  0.11838074348E+02  0.36585900448E+02 -0.14045456030E+03  0.14562332102E+03  0.00000000000E+00 0. -1.
         11    1    4    4    0    0  0.25732834358E+02  0.68907231661E+02 -0.34838535540E+02  0.81388628799E+02  0.00000000000E+00 0.  1.
        -11    1    3    3    0    0  0.28250595523E+02  0.83140836609E+01 -0.48546278355E+02  0.56779937273E+02  0.00000000000E+00 0.  1.
         11    1    3    3    0    0 -0.28702200834E+02 -0.57608682724E+02 -0.27450591533E+03  0.28195048184E+03  0.00000000000E+00 0. -1.
         21    1    1    2  503  502 -0.15172005717E+02 -0.24868019450E+02 -0.65258154219E+02  0.71464920352E+02  0.00000000000E+00 0. -1.
          3    1    1    2  501    0 -0.21947297679E+02 -0.31330513595E+02  0.17521793821E+03  0.17934494926E+03  0.00000000000E+00 0. -1.
<scales pt_clust_5="13000.00000" pt_clust_6="13000.00000" pt_clust_7="13000.00000" pt_clust_8="13000.00000" pt_clust_9="29.13088" pt_clust_10="38.36523"></scales>
<clustering>
<clus scale="   29.131">  2  9  1 -1</clus>
<clus scale="   38.365">  1 10  2 -1</clus>
<clus scale="   89.137">  7  8 -1 -1</clus>
<clus scale="   90.920">  5  6 -1 -1</clus>
<clus scale="  117.699">  2  7  1 -1</clus>
<clus scale="   38.365">  1  5  2 -1</clus>
</clustering>
</event>
<event>
10    2  0.3544405E-006  0.1927990E+03  0.7546771E-02  0.1156270E+00
         21   -1    0    0  501  502  0.00000000000E+00  0.00000000000E+00  0.75688115615E+02  0.75688115615E+02  0.00000000000E+00 0.  1.
          1   -1    0    0  503    0 -0.00000000000E+00 -0.00000000000E+00 -0.14166492537E+04  0.14166492537E+04  0.00000000000E+00 0. -1.
         23    2    1    2    0    0  0.14849233093E+03 -0.47810424794E+01 -0.77204922666E+03  0.79148100447E+03  0.91155588674E+02 0.  0.
         23    2    1    2    0    0 -0.14361293140E+03  0.84606382041E+02 -0.19546366056E+03  0.27355804977E+03  0.94048126217E+02 0.  0.
        -11    1    4    4    0    0 -0.80484114241E+02  0.89138601391E+02 -0.88169160943E+02  0.14898719356E+03  0.00000000000E+00 0.  1.
         11    1    4    4    0    0 -0.63128817163E+02 -0.45322193504E+01 -0.10729449962E+03  0.12457085621E+03  0.00000000000E+00 0. -1.
        -11    1    3    3    0    0  0.21723828430E+02 -0.28854680687E+02 -0.83981462493E+02  0.91418834830E+02  0.00000000000E+00 0. -1.
         11    1    3    3    0    0  0.12676850250E+03  0.24073638208E+02 -0.68806776416E+03  0.70006216964E+03  0.00000000000E+00 0.  1.
         21    1    1    2  503  502  0.27877036529E+02 -0.50138294198E+02 -0.37848219743E+03  0.38280510901E+03  0.00000000000E+00 0. -1.
          1    1    1    2  501    0 -0.32756436059E+02 -0.29687045364E+02  0.50339465865E+01  0.44493206043E+02  0.00000000000E+00 0. -1.
<scales pt_clust_5="13000.00000" pt_clust_6="13000.00000" pt_clust_7="13000.00000" pt_clust_8="13000.00000" pt_clust_9="57.82158" pt_clust_10="44.20752"></scales>
<clustering>
<clus scale="   44.208">  1 10  2 -1</clus>
<clus scale="   57.822">  2  9  1 -1</clus>
<clus scale="   91.156">  7  8 -1 -1</clus>
<clus scale="   94.048">  5  6 -1 -1</clus>
<clus scale="  191.405">  2  7  1 -1</clus>
<clus scale="   44.208">  1  5  2 -1</clus>
</clustering>
</event>
<event>
10    2  0.3544405E-006  0.9848961E+02  0.7546771E-02  0.1284945E+00
          1   -1    0    0  503    0 -0.00000000000E+00  0.00000000000E+00  0.52992827295E+02  0.52992827295E+02  0.00000000000E+00 0. -1.
         21   -1    0    0  501  502  0.00000000000E+00 -0.00000000000E+00 -0.30987724670E+03  0.30987724670E+03  0.00000000000E+00 0.  1.
         23    2    1    2    0    0 -0.75650325430E+01 -0.19643288209E+02 -0.51225866938E+02  0.10806790499E+03  0.92798136600E+02 0.  0.
         23    2    1    2    0    0 -0.45844305558E+01  0.33996680688E+02 -0.14983324697E+03  0.17811242124E+03  0.89984673143E+02 0.  0.
        -11    1    3    3    0    0  0.37372279763E+02 -0.20000273858E+02 -0.35266898576E+01  0.42533936926E+02  0.00000000000E+00 0.  1.
         11    1    3    3    0    0 -0.44937312306E+02  0.35698564938E+00 -0.47699177081E+02  0.65533968064E+02  0.00000000000E+00 0. -1.
        -13    1    4    4    0    0 -0.31494577363E+02 -0.52266075995E+01 -0.15269897379E+02  0.35389201690E+02  0.00000000000E+00 0. -1.
         13    1    4    4    0    0  0.26910146807E+02  0.39223288288E+02 -0.13456334959E+03  0.14272321955E+03  0.00000000000E+00 0.  1.
         21    1    1    2  503  502 -0.21801584028E+01 -0.29886049760E+02 -0.23553634672E+02  0.38114338079E+02  0.00000000000E+00 0. -1.
          1    1    1    2  501    0  0.14329621502E+02  0.15532657281E+02 -0.32271670826E+02  0.38575409686E+02  0.00000000000E+00 0. -1.
<scales pt_clust_5="13000.00000" pt_clust_6="13000.00000" pt_clust_7="13000.00000" pt_clust_8="13000.00000" pt_clust_9="28.14678" pt_clust_10="21.13295"></scales>
<clustering>
<clus scale="   21.133">  2 10  1 -1</clus>
<clus scale="   28.147">  1  9  2 -1</clus>
<clus scale="   89.985">  7  8 -1 -1</clus>
<clus scale="   92.798">  5  6 -1 -1</clus>
<clus scale="   95.843">  2  7  1 -1</clus>
<clus scale="   21.133">  2  5  1 -1</clus>
</clustering>
</event>
<event>
10    2  0.3544405E-006  0.9471023E+02  0.7546771E-02  0.1292319E+00
         21   -1    0    0  503  502  0.00000000000E+00  0.00000000000E+00  0.73754087478E+02  0.73754087478E+02  0.00000000000E+00 0.  1.
         -2   -1    0    0    0  501 -0.00000000000E+00 -0.00000000000E+00 -0.46303063659E+03  0.46303063659E+03  0.00000000000E+00 0.  1.
         23    2    1    2    0    0 -0.49084273551E+02  0.87705914391E+01 -0.15067324721E+03  0.18283911201E+03  0.90782841289E+02 0.  0.
         23    2    1    2    0    0 -0.56890234954E+02 -0.13978855219E+02 -0.67129161736E+02  0.12794215160E+03  0.91820273216E+02 0.  0.
        -11    1    4    4    0    0 -0.57591019918E+02  0.21746984375E+02 -0.12739110587E+02  0.62864472026E+02  0.00000000000E+00 0.  1.
         11    1    4    4    0    0  0.70078496354E+00 -0.35725839594E+02 -0.54390051149E+02  0.65077679570E+02  0.00000000000E+00 0. -1.
        -11    1    3    3    0    0 -0.71980145696E+02 -0.92199217764E+01 -0.12213751626E+03  0.14206942391E+03  0.00000000000E+00 0. -1.
         11    1    3    3    0    0  0.22895872145E+02  0.17990513215E+02 -0.28535730943E+02  0.40769688097E+02  0.00000000000E+00 0.  1.
         21    1    1    2  503  501  0.87175231888E+02  0.33396273674E+02 -0.16767312251E+03  0.19190911433E+03  0.00000000000E+00 0. -1.
         -2    1    1    2    0  502  0.18799276617E+02 -0.28188009894E+02 -0.38010176613E+01  0.34094346135E+02  0.00000000000E+00 0.  1.
<scales pt_clust_5="13000.00000" pt_clust_6="13000.00000" pt_clust_7="13000.00000" pt_clust_8="13000.00000" pt_clust_9="95.14374" pt_clust_10="33.88180"></scales>
<clustering>
<clus scale="   33.882">  1 10  2 -1</clus>
<clus scale="   90.783">  7  8 -1 -1</clus>
<clus scale="   91.820">  5  6 -1 -1</clus>
<clus scale="   95.144">  2  9  1 -1</clus>
<clus scale="   95.144">  2  7  1 -1</clus>
<clus scale="   33.882">  1  5  2 -1</clus>
</clustering>
</event>
<event>
10    2  0.3544405E-006  0.9749536E+02  0.7546771E-02  0.1287921E+00
         21   -1    0    0  503  502  0.00000000000E+00  0.00000000000E+00  0.99620711447E+02  0.99620711447E+02  0.00000000000E+00 0. -1.
         -1   -1    0    0    0  501 -0.00000000000E+00 -0.00000000000E+00 -0.65075794299E+03  0.65075794299E+03  0.00000000000E+00 0.  1.
         23    2    1    2    0    0  0.11512594837E+02 -0.22648524347E+02 -0.22882304974E+03  0.24835483060E+03  0.93137738289E+02 0.  0.
         23    2    1    2    0    0  0.37403220927E+02  0.28449127473E+02 -0.19897394377E+03  0.22292473816E+03  0.88861998594E+02 0.  0.
        -11    1    4    4    0    0  0.24988782220E+02  0.60428545378E+02 -0.11643483978E+03  0.13354070633E+03  0.00000000000E+00 0. -1.
         11    1    4    4    0    0  0.12414438707E+02 -0.31979417905E+02 -0.82539103989E+02  0.89384031825E+02  0.00000000000E+00 0.  1.
        -11    1    3    3    0    0 -0.40207484390E+02 -0.13322042730E+02 -0.79938472739E+02  0.90466999769E+02  0.00000000000E+00 0.  1.
         11    1    3    3    0    0  0.51720079227E+02 -0.93264816164E+01 -0.14888457700E+03  0.15788783083E+03  0.00000000000E+00 0. -1.
         21    1    1    2  503  501 -0.25458066960E+02 -0.44729782304E+01 -0.19859079073E+03  0.20026588044E+03  0.00000000000E+00 0.  1.
         -1    1    1    2    0  502 -0.23457748805E+02 -0.13276248956E+01  0.75250552696E+02  0.78833205237E+02  0.00000000000E+00 0.  1.
<scales pt_clust_5="13000.00000" pt_clust_6="13000.00000" pt_clust_7="13000.00000" pt_clust_8="13000.00000" pt_clust_9="26.71377" pt_clust_10="23.49529"></scales>
<clustering>
<clus scale="   23.495">  1 10  2 -1</clus>
<clus scale="   26.714">  2  9  1 -1</clus>
<clus scale="   88.862">  5  6 -1 -1</clus>
<clus scale="   93.138">  7  8 -1 -1</clus>
<clus scale="   93.419">  1  5  2 -1</clus>
<clus scale="   23.495">  1  5  2 -1</clus>
</clustering>
</event>
<event>
10    2  0.3544405E-006  0.1117836E+03  0.7546771E-02  0.1262535E+00
         -1   -1    0    0    0  501 -0.00000000000E+00  0.00000000000E+00  0.28032500138E+03  0.28032500138E+03  0.00000000000E+00 0.  1.
         21   -1    0    0  503  502  0.00000000000E+00 -0.00000000000E+00 -0.41579333613E+03  0.41579333613E+03  0.00000000000E+00 0.  1.
         23    2    1    2    0    0 -0.34222039598E+02 -0.16853474747E+02  0.14039674383E+03  0.17584344106E+03  0.98764783612E+02 0.  0.
         23    2    1    2    0    0  0.25856218863E+02 -0.21788880029E+02 -0.70618514257E+02  0.11645228606E+03  0.86202442114E+02 0.  0.
        -13    1    4    4    0    0 -0.51707309038E+01 -0.46243492562E+02 -0.16336032849E+02  0.49315951088E+02  0.00000000000E+00 0.  1.
         13    1    4    4    0    0  0.31026949767E+02  0.24454612533E+02 -0.54282481408E+02  0.67136334974E+02  0.00000000000E+00 0. -1.
        -13    1    3    3    0    0 -0.32169359418E+02  0.20886926551E+02  0.93824777524E+01  0.39486228927E+02  0.00000000000E+00 0.  1.
         13    1    3    3    0    0 -0.20526801801E+01 -0.37740401298E+02  0.13101426608E+03  0.13635721214E+03  0.00000000000E+00 0. -1.
         21    1    1    2  503  501 -0.27983500413E+02 -0.52531171016E+01  0.94505148371E+02  0.98701036485E+02  0.00000000000E+00 0.  1.
         -1    1    1    2    0  502  0.36349321148E+02  0.43895471878E+02 -0.29975171269E+03  0.30512157390E+03  0.00000000000E+00 0.  1.
<scales pt_clust_5="13000.00000" pt_clust_6="13000.00000" pt_clust_7="13000.00000" pt_clust_8="13000.00000" pt_clust_9="28.47229" pt_clust_10="56.67264"></scales>
<clustering>
<clus scale="   28.472">  1  9  2 -1</clus>
<clus scale="   56.673">  2 10  1 -1</clus>
<clus scale="   86.202">  5  6 -1 -1</clus>
<clus scale="   98.765">  7  8 -1 -1</clus>
<clus scale="  100.856">  2  5  1 -1</clus>
<clus scale="   56.673">  2  5  1 -1</clus>
</clustering>
</event>
<event>
10    2  0.3544405E-006  0.1025737E+03  0.7546771E-02  0.1274980E+00
         21   -1    0    0  501  502  0.00000000000E+00  0.00000000000E+00  0.11245384887E+03  0.11245384887E+03  0.00000000000E+00 0.  1.
          2   -1    0    0  503    0 -0.00000000000E+00 -0.00000000000E+00 -0.52827270747E+03  0.52827270747E+03  0.00000000000E+00 0. -1.
         23    2    1    2    0    0  0.52762244325E+01 -0.69618420881E+02 -0.30265326569E+03  0.32368537206E+03  0.91096969130E+02 0.  0.
         23    2    1    2    0    0 -0.20341290393E+02  0.28854544195E+02  0.54970242726E+02  0.11209220863E+03  0.91085579734E+02 0.  0.
        -11    1    4    4    0    0 -0.43351169257E+01  0.61049879884E+02  0.28920034195E+02  0.67692314560E+02  0.00000000000E+00 0.  1.
         11    1    4    4    0    0 -0.16006173467E+02 -0.32195335690E+02  0.26050208532E+02  0.44399894074E+02  0.00000000000E+00 0. -1.
        -13    1    3    3    0    0  0.16294980921E+02  0.18954082635E+02 -0.54193151083E+02  0.59679823023E+02  0.00000000000E+00 0.  1.
         13    1    3    3    0    0 -0.11018756488E+02 -0.88572503516E+02 -0.24846011460E+03  0.26400554904E+03  0.00000000000E+00 0. -1.
         21    1    1    2  503  502  0.44703103778E+02  0.52017295766E+02 -0.15703388230E+03  0.17135870779E+03  0.00000000000E+00 0.  1.
          2    1    1    2  501    0 -0.29638037817E+02 -0.11253419080E+02 -0.11101953333E+02  0.33590267854E+02  0.00000000000E+00 0. -1.
<scales pt_clust_5="13000.00000" pt_clust_6="13000.00000" pt_clust_7="13000.00000" pt_clust_8="13000.00000" pt_clust_9="66.62451" pt_clust_10="31.70257"></scales>
<clustering>
<clus scale="   31.703">  1 10  2 -1</clus>
<clus scale="   66.625">  2  9  1 -1</clus>
<clus scale="   91.086">  5  6 -1 -1</clus>
<clus scale="   91.097">  7  8 -1 -1</clus>
<clus scale="  102.564">  1  5  2 -1</clus>
<clus scale="   31.703">  1  5  2 -1</clus>
</clustering>
</event>
<event>
10    2  0.3544405E-006  0.1509018E+03  0.7546771E-02  0.1200043E+00
         -1   -1    0    0    0  501 -0.00000000000E+00  0.00000000000E+00  0.23464339632E+03  0.23464339632E+03  0.00000000000E+00 0.  1.
         21   -1    0    0  503  502  0.00000000000E+00 -0.00000000000E+00 -0.64691525537E+03  0.64691525537E+03  0.00000000000E+00 0.  1.
         23    2    1    2    0    0 -0.71259251403E+02 -0.84919059879E+02 -0.91250304978E+02  0.17033289165E+03  0.91638137146E+02 0.  0.
         23    2    1    2    0    0  0.95772850608E+02  0.89577175896E+02 -0.30062518866E+03  0.34150588401E+03  0.95153851227E+02 0.  0.
        -11    1    3    3    0    0  0.11650418112E+02 -0.52100063766E+02 -0.23424623702E+02  0.58299758852E+02  0.00000000000E+00 0.  1.
         11    1    3    3    0    0 -0.82909669515E+02 -0.32818996113E+02 -0.67825681276E+02  0.11203313280E+03  0.00000000000E+00 0. -1.
        -13    1    4    4    0    0  0.95317538470E+02  0.59072825336E+02 -0.14704552960E+03  0.18492544338E+03  0.00000000000E+00 0.  1.
         13    1    4    4    0    0  0.45531213791E+00  0.30504350560E+02 -0.15357965906E+03  0.15658044064E+03  0.00000000000E+00 0. -1.
         21    1    1    2  503  501  0.16141548287E+02 -0.15501798067E+02  0.17165780775E+03  0.17311053777E+03  0.00000000000E+00 0.  1.
         -1    1    1    2    0  502 -0.40655147491E+02  0.10843682050E+02 -0.19205417317E+03  0.19660933825E+03  0.00000000000E+00 0.  1.
<scales pt_clust_5="13000.00000" pt_clust_6="13000.00000" pt_clust_7="13000.00000" pt_clust_8="13000.00000" pt_clust_9="22.37980" pt_clust_10="41.36163"></scales>
<clustering>
<clus scale="   22.380">  1  9  2 -1</clus>
<clus scale="   41.362">  2 10  1 -1</clus>
<clus scale="   91.638">  5  6 -1 -1</clus>
<clus scale="   95.154">  7  8 -1 -1</clus>
<clus scale="  148.710">  1  5  2 -1</clus>
<clus scale="   41.362">  2  5  1 -1</clus>
</clustering>
</event>
<event>
10    2  0.3544405E-006  0.9443054E+02  0.7546771E-02  0.1293255E+00
         21   -1    0    0  501  502  0.00000000000E+00  0.00000000000E+00  0.21183184601E+03  0.21183184601E+03  0.00000000000E+00 0. -1.
          1   -1    0    0  503    0 -0.00000000000E+00 -0.00000000000E+00 -0.39049941367E+03  0.39049941367E+03  0.00000000000E+00 0. -1.
         23    2    1    2    0    0  0.55297562310E+01 -0.26493016632E+02 -0.30208469495E+03  0.31622520421E+03  0.89502841958E+02 0.  0.
         23    2    1    2    0    0 -0.44257022450E+02  0.71975154739E+01  0.13270808852E+03  0.16700843522E+03  0.90938948814E+02 0.  0.
        -11    1    3    3    0    0 -0.34968043281E+02 -0.99182172180E+01 -0.59486128383E+02  0.69711796374E+02  0.00000000000E+00 0.  1.
         11    1    3    3    0    0  0.40497799512E+02 -0.16574799414E+02 -0.24259856657E+03  0.24651340784E+03  0.00000000000E+00 0. -1.
        -13    1    4    4    0    0  0.55478239433E-01  0.42767831477E+02  0.41799932315E+02  0.59802381463E+02  0.00000000000E+00 0.  1.
         13    1    4    4    0    0 -0.44312500690E+02 -0.35570316003E+02  0.90908156209E+02  0.10720605376E+03  0.00000000000E+00 0. -1.
         21    1    1    2  503  502  0.16011971754E+02  0.14060551424E+02 -0.59792256634E+02  0.63475950558E+02  0.00000000000E+00 0. -1.
          1    1    1    2  501    0  0.22715294465E+02  0.52349497341E+01  0.50501295404E+02  0.55621669687E+02  0.00000000000E+00 0. -1.
<scales pt_clust_5="13000.00000" pt_clust_6="13000.00000" pt_clust_7="13000.00000" pt_clust_8="13000.00000" pt_clust_9="21.30921" pt_clust_10="23.45689"></scales>
<clustering>
<clus scale="   21.309">  2  9  1 -1</clus>
<clus scale="   23.457">  1 10  2 -1</clus>
<clus scale="   89.503">  5  6 -1 -1</clus>
<clus scale="   90.939">  7  8 -1 -1</clus>
<clus scale="   93.048">  2  5  1 -1</clus>
<clus scale="   23.457">  1  5  2 -1</clus>
</clustering>
</event>
<event>
10    2  0.4554779E-006  0.1281924E+03  0.7546771E-02  0.1230851E+00
         21   -1    0    0  501  502  0.00000000000E+00  0.00000000000E+00  0.15222072495E+03  0.15222072495E+03  0.00000000000E+00 0.  1.
          1   -1    0    0  503    0 -0.00000000000E+00 -0.00000000000E+00 -0.55085031937E+03  0.55085031937E+03  0.00000000000E+00 0. -1.
         23    2    1    2    0    0  0.36782691013E+02  0.50833335583E+02 -0.42346950557E+03  0.43744884108E+03  0.89989288558E+02 0.  0.
         23    2    1    2    0    0 -0.25012534277E+02 -0.69612928528E+02  0.93830292212E+02  0.15110832667E+03  0.92509545251E+02 0.  0.
        -11    1    3    3    0    0 -0.27041353664E+02  0.34076956580E+02 -0.15503131137E+03  0.16101919538E+03  0.00000000000E+00 0.  1.
         11    1    3    3    0    0  0.63824044677E+02  0.16756379003E+02 -0.26843819420E+03  0.27642964570E+03  0.00000000000E+00 0. -1.
        -13    1    4    4    0    0 -0.40400612096E+02 -0.28187087008E+02  0.94877924181E+02  0.10690435832E+03  0.00000000000E+00 0.  1.
         13    1    4    4    0    0  0.15388077819E+02 -0.41425841520E+02 -0.10476319690E+01  0.44203968344E+02  0.00000000000E+00 0. -1.
         21    1    1    2  503  502  0.53476750428E+01  0.31930074578E+02 -0.82789267086E+02  0.88894263231E+02  0.00000000000E+00 0. -1.
          1    1    1    2  501    0 -0.17117831779E+02 -0.13150481633E+02  0.13798886028E+02  0.25619613339E+02  0.00000000000E+00 0. -1.
<scales pt_clust_5="13000.00000" pt_clust_6="13000.00000" pt_clust_7="13000.00000" pt_clust_8="13000.00000" pt_clust_9="32.01268" pt_clust_10="21.58600"></scales>
<clustering>
<clus scale="   21.586">  1 10  2 -1</clus>
<clus scale="   32.013">  2  9  1 -1</clus>
<clus scale="   89.989">  5  6 -1 -1</clus>
<clus scale="   92.510">  7  8 -1 -1</clus>
<clus scale="  126.386">  2  5  1 -1</clus>
<clus scale="   21.586">  1  5  2 -1</clus>
</clustering>
</event>
<event>
10    2  0.3544405E-006  0.1693600E+03  0.7546771E-02  0.1179541E+00
          1   -1    0    0  503    0 -0.00000000000E+00  0.00000000000E+00  0.31436451410E+03  0.31436451410E+03  0.00000000000E+00 0. -1.
         21   -1    0    0  501  502  0.00000000000E+00 -0.00000000000E+00 -0.15306591988E+03  0.15306591988E+03  0.00000000000E+00 0.  1.
         23    2    1    2    0    0 -0.55820701426E+02 -0.11288660292E+03  0.11071763660E+03  0.18913514525E+03  0.87489269557E+02 0.  0.
         23    2    1    2    0    0  0.11536428943E+03  0.11684643102E+03  0.30778363740E+02  0.19198124688E+03  0.94591139973E+02 0.  0.
        -11    1    3    3    0    0 -0.94798641481E+01 -0.44127797649E+02  0.94389627240E+02  0.10462567601E+03  0.00000000000E+00 0. -1.
         11    1    3    3    0    0 -0.46340837277E+02 -0.68758805266E+02  0.16328009360E+02  0.84509469238E+02  0.00000000000E+00 0.  1.
        -11    1    4    4    0    0  0.12813601533E+03  0.81822286158E+02  0.21316359486E+02  0.15351909366E+03  0.00000000000E+00 0.  1.
         11    1    4    4    0    0 -0.12771725899E+02  0.35024144864E+02  0.94620042534E+01  0.38462153220E+02  0.00000000000E+00 0. -1.
         21    1    1    2  503  502 -0.24125644876E+02  0.21834683047E+01  0.38735257824E+02  0.45686261317E+02  0.00000000000E+00 0. -1.
          1    1    1    2  501    0 -0.35417943132E+02 -0.61432964113E+01 -0.18932663942E+02  0.40627780525E+02  0.00000000000E+00 0. -1.
<scales pt_clust_5="13000.00000" pt_clust_6="13000.00000" pt_clust_7="13000.00000" pt_clust_8="13000.00000" pt_clust_9="24.22425" pt_clust_10="36.88021"></scales>
<clustering>
<clus scale="   24.224">  1  9  2 -1</clus>
<clus scale="   36.880">  2 10  1 -1</clus>
<clus scale="   87.489">  5  6 -1 -1</clus>
<clus scale="   94.591">  7  8 -1 -1</clus>
<clus scale="  165.498">  1  5  2 -1</clus>
<clus scale="   36.880">  2  5  1 -1</clus>
</clustering>
</event>
<event>
10    2  0.3544405E-006  0.1021275E+03  0.7546771E-02  0.1278091E+00
          1   -1    0    0  503    0 -0.00000000000E+00  0.00000000000E+00  0.43563289019E+03  0.43563289019E+03  0.00000000000E+00 0. -1.
         21   -1    0    0  501  502  0.00000000000E+00 -0.00000000000E+00 -0.81305487373E+02  0.81305487373E+02  0.00000000000E+00 0. -1.
         23    2    1    2    0    0 -0.22379094246E+01 -0.39165727279E+02  0.78524371801E+02  0.11965787410E+03  0.81320153929E+02 0.  0.
         23    2    1    2    0    0  0.25476601668E+02  0.53984459901E+02  0.18321036636E+02  0.10656399826E+03  0.86353032361E+02 0.  0.
        -11    1    3    3    0    0 -0.36518361646E+02 -0.27272171003E+01  0.17038591882E+02  0.40389875758E+02  0.00000000000E+00 0.  1.
         11    1    3    3    0    0  0.34280452222E+02 -0.36438510179E+02  0.61485779918E+02  0.79267998340E+02  0.00000000000E+00 0. -1.
        -13    1    4    4    0    0  0.62740735227E+01 -0.23559931522E+02  0.95993371954E+01  0.26202703038E+02  0.00000000000E+00 0. -1.
         13    1    4    4    0    0  0.19202528145E+02  0.77544391423E+02  0.87216994408E+01  0.80361295220E+02  0.00000000000E+00 0.  1.
         21    1    1    2  503  502 -0.19042532226E+02 -0.38010635080E+02  0.26307947487E+03  0.26649246990E+03  0.00000000000E+00 0. -1.
          1    1    1    2  501    0 -0.41961600175E+01  0.23191902458E+02 -0.55974804982E+01  0.24224035305E+02  0.00000000000E+00 0. -1.
<scales pt_clust_5="13000.00000" pt_clust_6="13000.00000" pt_clust_7="13000.00000" pt_clust_8="13000.00000" pt_clust_9="42.03077" pt_clust_10="23.56846"></scales>
<clustering>
<clus scale="   23.568">  2 10  1 -1</clus>
<clus scale="   42.031">  1  9  2 -1</clus>
<clus scale="   81.320">  5  6 -1 -1</clus>
<clus scale="   86.353">  7  8 -1 -1</clus>
<clus scale="   97.909">  1  5  2 -1</clus>
<clus scale="   23.568">  2  5  1 -1</clus>
</clustering>
</event>
<event>
10    2  0.3544405E-006  0.9263796E+02  0.7546771E-02  0.1298453E+00
         -2   -1    0    0    0  501 -0.00000000000E+00  0.00000000000E+00  0.19430500879E+03  0.19430500879E+03  0.00000000000E+00 0.  1.
         21   -1    0    0  503  502  0.00000000000E+00 -0.00000000000E+00 -0.15344684694E+03  0.15344684694E+03  0.00000000000E+00 0.  1.
         23    2    1    2    0    0  0.52941471944E+01 -0.24791153566E+02  0.96150920543E+02  0.13196950934E+03  0.86765906811E+02 0.  0.
         23    2    1    2    0    0 -0.32068376937E+02 -0.12656025888E+02 -0.94689578006E+01  0.96848146583E+02  0.90007480490E+02 0.  0.
        -11    1    4    4    0    0  0.29208926640E+02  0.30303952137E+01 -0.15681683074E+02  0.33290537314E+02  0.00000000000E+00 0. -1.
         11    1    4    4    0    0 -0.61277303577E+02 -0.15686421102E+02  0.62127252736E+01  0.63557609269E+02  0.00000000000E+00 0.  1.
        -13    1    3    3    0    0 -0.21122765965E+02  0.95297379721E+01  0.83782079483E+02  0.86927694036E+02  0.00000000000E+00 0. -1.
         13    1    3    3    0    0  0.26416913159E+02 -0.34320891538E+02  0.12368841059E+02  0.45041815305E+02  0.00000000000E+00 0.  1.
         21    1    1    2  503  501  0.16687796759E+02  0.12626154676E+02  0.31096226923E+02  0.37481697819E+02  0.00000000000E+00 0.  1.
         -2    1    1    2    0  502  0.10086432984E+02  0.24821024778E+02 -0.76920027815E+02  0.81452501990E+02  0.00000000000E+00 0.  1.
<scales pt_clust_5="13000.00000" pt_clust_6="13000.00000" pt_clust_7="13000.00000" pt_clust_8="13000.00000" pt_clust_9="20.92612" pt_clust_10="27.04722"></scales>
<clustering>
<clus scale="   20.926">  1  9  2 -1</clus>
<clus scale="   27.047">  2 10  1 -1</clus>
<clus scale="   86.766">  7  8 -1 -1</clus>
<clus scale="   89.492">  1  7  2 -1</clus>
<clus scale="   90.007">  5  6 -1 -1</clus>
<clus scale="   27.047">  2  5  1 -1</clus>
</clustering>
</event>
<event>
10    2  0.3544405E-006  0.9342605E+02  0.7546771E-02  0.1295172E+00
         21   -1    0    0  501  502  0.00000000000E+00  0.00000000000E+00  0.10358834223E+03  0.10358834223E+03  0.00000000000E+00 0. -1.
          1   -1    0    0  503    0 -0.00000000000E+00 -0.00000000000E+00 -0.42456113455E+03  0.42456113455E+03  0.00000000000E+00 0. -1.
         23    2    1    2    0    0  0.11761958601E+02  0.10164096874E+02 -0.30518016406E+03  0.31874724855E+03  0.90681990416E+02 0.  0.
         23    2    1    2    0    0 -0.15982635407E+02 -0.34897171712E+02 -0.14301409942E+02  0.10016699251E+03  0.91409183534E+02 0.  0.
        -11    1    3    3    0    0  0.32967264686E+02  0.41850806435E+02 -0.15960823773E+03  0.16826502932E+03  0.00000000000E+00 0.  1.
         11    1    3    3    0    0 -0.21205306084E+02 -0.31686709561E+02 -0.14557192633E+03  0.15048221923E+03  0.00000000000E+00 0. -1.
        -13    1    4    4    0    0 -0.51457593108E+02 -0.25324152189E+02 -0.23990555845E+02  0.62167059946E+02  0.00000000000E+00 0. -1.
         13    1    4    4    0    0  0.35474957701E+02 -0.95730195226E+01  0.96891459030E+01  0.37999932566E+02  0.00000000000E+00 0.  1.
         21    1    1    2  503  502 -0.19070314344E+02  0.74375842768E+01 -0.49262070649E+02  0.53345535461E+02  0.00000000000E+00 0. -1.
          1    1    1    2  501    0  0.23290991149E+02  0.17295490561E+02  0.47770852333E+02  0.55889700259E+02  0.00000000000E+00 0. -1.
<scales pt_clust_5="13000.00000" pt_clust_6="13000.00000" pt_clust_7="13000.00000" pt_clust_8="13000.00000" pt_clust_9="20.46936" pt_clust_10="28.89274"></scales>
<clustering>
<clus scale="   20.469">  2  9  1 -1</clus>
<clus scale="   28.893">  1 10  2 -1</clus>
<clus scale="   90.682">  5  6 -1 -1</clus>
<clus scale="   91.409">  7  8 -1 -1</clus>
<clus scale="   92.715">  2  5  1 -1</clus>
<clus scale="   28.893">  1  5  2 -1</clus>
</clustering>
</event>
<event>
10    2  0.3544405E-006  0.1254508E+03  0.7546771E-02  0.1255269E+00
         21   -1    0    0  503  502  0.00000000000E+00  0.00000000000E+00  0.64257636133E+03  0.64257636133E+03  0.00000000000E+00 0.  1.
         -2   -1    0    0    0  501 -0.00000000000E+00 -0.00000000000E+00 -0.27035578339E+03  0.27035578339E+03  0.00000000000E+00 0.  1.
         23    2    1    2    0    0 -0.11250351372E+02  0.14599605178E+02 -0.65843129092E+02  0.10428139524E+03  0.78737366393E+02 0.  0.
         23    2    1    2    0    0 -0.51127277168E+01  0.44730405146E+02 -0.15179568825E+03  0.18328913471E+03  0.92336486830E+02 0.  0.
        -13    1    3    3    0    0 -0.13456746882E+02  0.42786884102E+02 -0.60811784735E+02  0.75563712524E+02  0.00000000000E+00 0.  1.
         13    1    3    3    0    0  0.22063955098E+01 -0.28187278924E+02 -0.50313443568E+01  0.28717682712E+02  0.00000000000E+00 0. -1.
        -13    1    4    4    0    0 -0.43860406867E+02  0.18089317350E+01 -0.78384160086E+02  0.89839212357E+02  0.00000000000E+00 0.  1.
         13    1    4    4    0    0  0.38747679150E+02  0.42921473411E+02 -0.73411528165E+02  0.93449922348E+02  0.00000000000E+00 0. -1.
         21    1    1    2  503  501  0.16649394854E+02  0.26337276621E+02  0.19242012650E+01  0.31217896138E+02  0.00000000000E+00 0.  1.
         -2    1    1    2    0  502 -0.28631576500E+00 -0.85667286945E+02  0.58793519402E+03  0.59414371863E+03  0.00000000000E+00 0.  1.
<scales pt_clust_5="13000.00000" pt_clust_6="13000.00000" pt_clust_7="13000.00000" pt_clust_8="13000.00000" pt_clust_9="31.15854" pt_clust_10="84.92281"></scales>
<clustering>
<clus scale="   31.159">  2  9  1 -1</clus>
<clus scale="   78.737">  5  6 -1 -1</clus>
<clus scale="   82.328">  2  5  1 -1</clus>
<clus scale="   84.923">  1 10  2 -1</clus>
<clus scale="   92.336">  7  8 -1 -1</clus>
<clus scale="   84.923">  1  5  2 -1</clus>
</clustering>
</event>
<event>
10    2  0.3544405E-006  0.9238218E+02  0.7546771E-02  0.1297958E+00
         21   -1    0    0  501  502  0.00000000000E+00  0.00000000000E+00  0.13177686166E+03  0.13177686166E+03  0.00000000000E+00 0. -1.
          1   -1    0    0  503    0 -0.00000000000E+00 -0.00000000000E+00 -0.68610570303E+03  0.68610570303E+03  0.00000000000E+00 0. -1.
         23    2    1    2    0    0  0.37542531043E+01  0.10647262254E+02 -0.34075205276E+03  0.35269487740E+03  0.90300921782E+02 0.  0.
         23    2    1    2    0    0 -0.32162363980E+02  0.20610397163E+02 -0.17666591507E+03  0.20145212289E+03  0.88954517266E+02 0.  0.
        -13    1    3    3    0    0 -0.20075392462E+02 -0.34067497113E+02 -0.12667025470E+03  0.13269879113E+03  0.00000000000E+00 0.  1.
         13    1    3    3    0    0  0.23829645566E+02  0.44714759367E+02 -0.21408179806E+03  0.21999608627E+03  0.00000000000E+00 0. -1.
        -13    1    4    4    0    0 -0.86930585164E+00 -0.25490263414E+02 -0.13132997513E+02  0.28687712444E+02  0.00000000000E+00 0.  1.
         13    1    4    4    0    0 -0.31293058128E+02  0.46100660577E+02 -0.16353291756E+03  0.17276441045E+03  0.00000000000E+00 0. -1.
         21    1    1    2  503  502  0.19057009103E+02  0.90596299839E+01 -0.14576217990E+03  0.14728156565E+03  0.00000000000E+00 0. -1.
          1    1    1    2  501    0  0.93511017718E+01 -0.40317289401E+02  0.10885130635E+03  0.11645399875E+03  0.00000000000E+00 0. -1.
<scales pt_clust_5="13000.00000" pt_clust_6="13000.00000" pt_clust_7="13000.00000" pt_clust_8="13000.00000" pt_clust_9="21.10086" pt_clust_10="41.35594"></scales>
<clustering>
<clus scale="   21.101">  2  9  1 -1</clus>
<clus scale="   41.356">  1 10  2 -1</clus>
<clus scale="   88.955">  7  8 -1 -1</clus>
<clus scale="   90.301">  5  6 -1 -1</clus>
<clus scale="   91.067">  1  7  2 -1</clus>
<clus scale="   41.356">  1  5  2 -1</clus>
</clustering>
</event>
<event>
10    2  0.3544405E-006  0.1507644E+03  0.7546771E-02  0.1199636E+00
          3   -1    0    0  503    0 -0.00000000000E+00  0.00000000000E+00  0.15794174889E+03  0.15794174889E+03  0.00000000000E+00 0. -1.
         21   -1    0    0  501  502  0.00000000000E+00 -0.00000000000E+00 -0.30511380228E+03  0.30511380228E+03  0.00000000000E+00 0. -1.
         23    2    1    2    0    0  0.46092748275E+02 -0.88169745915E+02 -0.19478703994E+02  0.13647454815E+03  0.91364308384E+02 0.  0.
         23    2    1    2    0    0 -0.68707352912E+02  0.15220759325E+03 -0.12039929078E+03  0.22545376545E+03  0.91899724439E+02 0.  0.
        -11    1    4    4    0    0 -0.42081777141E+02  0.12498465824E+03 -0.13104342415E+03  0.18591508755E+03  0.00000000000E+00 0. -1.
         11    1    4    4    0    0 -0.26625575771E+02  0.27222935004E+02  0.10644133378E+02  0.39538677908E+02  0.00000000000E+00 0.  1.
        -13    1    3    3    0    0  0.53198646451E+02 -0.45778015778E+02  0.25111251818E+02  0.74540577410E+02  0.00000000000E+00 0.  1.
         13    1    3    3    0    0 -0.71058981760E+01 -0.42391730137E+02 -0.44589955812E+02  0.61933970744E+02  0.00000000000E+00 0. -1.
         21    1    1    2  503  502 -0.24146666771E+02 -0.35596219175E+01 -0.11987957674E+01  0.24437052516E+02  0.00000000000E+00 0.  1.
          3    1    1    2  501    0  0.46761271409E+02 -0.60478225415E+02 -0.60952628471E+01  0.76690185046E+02  0.00000000000E+00 0. -1.
<scales pt_clust_5="13000.00000" pt_clust_6="13000.00000" pt_clust_7="13000.00000" pt_clust_8="13000.00000" pt_clust_9="24.40763" pt_clust_10="73.74285"></scales>
<clustering>
<clus scale="   24.408">  1  9  2 -1</clus>
<clus scale="   73.743">  2 10  1 -1</clus>
<clus scale="   91.364">  7  8 -1 -1</clus>
<clus scale="   91.900">  5  6 -1 -1</clus>
<clus scale="  150.439">  1  7  2 -1</clus>
<clus scale="   73.743">  2  5  1 -1</clus>
</clustering>
</event>
<event>
10    2  0.3544405E-006  0.3580785E+03  0.7546771E-02  0.1059629E+00
          1   -1    0    0  503    0 -0.00000000000E+00  0.00000000000E+00  0.81624889404E+03  0.81624889404E+03  0.00000000000E+00 0. -1.
         21   -1    0    0  501  502  0.00000000000E+00 -0.00000000000E+00 -0.35068195692E+03  0.35068195692E+03  0.00000000000E+00 0. -1.
         23    2    1    2    0    0  0.34017946811E+03  0.87424938946E+02  0.50509975431E+03  0.62250801237E+03  0.95001437762E+02 0.  0.
         23    2    1    2    0    0 -0.35355044443E+03 -0.10783704006E+03  0.13928313540E+02  0.37925663007E+03  0.83754698768E+02 0.  0.
        -11    1    3    3    0    0  0.81697140009E+02 -0.19599729703E+02  0.11132775163E+03  0.13947200570E+03  0.00000000000E+00 0.  1.
         11    1    3    3    0    0  0.25848232810E+03  0.10702466865E+03  0.39377200268E+03  0.48303600667E+03  0.00000000000E+00 0. -1.
        -13    1    4    4    0    0 -0.68150403953E+02 -0.40568816612E+02 -0.25697888496E+02  0.83370785731E+02  0.00000000000E+00 0.  1.
         13    1    4    4    0    0 -0.28540004048E+03 -0.67268223446E+02  0.39626202036E+02  0.29588584434E+03  0.00000000000E+00 0. -1.
         21    1    1    2  503  502 -0.17057648925E+02 -0.13730294680E+02  0.48611777259E+02  0.53315938209E+02  0.00000000000E+00 0.  1.
          1    1    1    2  501    0  0.30428625245E+02  0.34142395792E+02 -0.10207290800E+03  0.11185027032E+03  0.00000000000E+00 0. -1.
<scales pt_clust_5="13000.00000" pt_clust_6="13000.00000" pt_clust_7="13000.00000" pt_clust_8="13000.00000" pt_clust_9="21.89713" pt_clust_10="45.59609"></scales>
<clustering>
<clus scale="   21.897">  1  9  2 -1</clus>
<clus scale="   45.596">  2 10  1 -1</clus>
<clus scale="   83.755">  7  8 -1 -1</clus>
<clus scale="   95.001">  5  6 -1 -1</clus>
<clus scale="  355.260">  2  7  1 -1</clus>
<clus scale="   45.596">  2  5  1 -1</clus>
</clustering>
</event>
<event>
10    2  0.3544405E-006  0.1711393E+03  0.7546771E-02  0.1198706E+00
         21   -1    0    0  503  502  0.00000000000E+00  0.00000000000E+00  0.55754429346E+03  0.55754429346E+03  0.00000000000E+00 0.  1.
         -1   -1    0    0    0  501 -0.00000000000E+00 -0.00000000000E+00 -0.26468841872E+03  0.26468841872E+03  0.00000000000E+00 0.  1.
         23    2    1    2    0    0 -0.45234111897E+02  0.34548142165E+02  0.11533696908E+03  0.15764730763E+03  0.91161165855E+02 0.  0.
         23    2    1    2    0    0  0.90985862979E+02  0.12403267887E+03  0.20901117809E+02  0.18985876784E+03  0.10930216060E+03 0.  0.
        -11    1    3    3    0    0 -0.37765942593E+01 -0.26929855067E+02  0.57506862019E+02  0.63612254617E+02  0.00000000000E+00 0. -1.
         11    1    3    3    0    0 -0.41457517638E+02  0.61477997232E+02  0.57830107058E+02  0.94035053011E+02  0.00000000000E+00 0.  1.
        -13    1    4    4    0    0  0.18730683793E+02 -0.90182020381E+01  0.31877221392E+02  0.38056848622E+02  0.00000000000E+00 0. -1.
         13    1    4    4    0    0  0.72255179186E+02  0.13305088091E+03 -0.10976103583E+02  0.15180191922E+03  0.00000000000E+00 0.  1.
         21    1    1    2  503  501  0.55572232310E+01 -0.40528079456E+02 -0.14294290104E+03  0.14868113839E+03  0.00000000000E+00 0.  1.
         -1    1    1    2    0  502 -0.51308974312E+02 -0.11805274158E+03  0.29956068890E+03  0.32604549832E+03  0.00000000000E+00 0.  1.
<scales pt_clust_5="13000.00000" pt_clust_6="13000.00000" pt_clust_7="13000.00000" pt_clust_8="13000.00000" pt_clust_9="40.90731" pt_clust_10="131.68789"></scales>
<clustering>
<clus scale="   40.907">  2  9  1 -1</clus>
<clus scale="   91.161">  5  6 -1 -1</clus>
<clus scale="  104.954">  2  5  1 -1</clus>
<clus scale="  109.302">  7  8 -1 -1</clus>
<clus scale="  131.688">  1 10  2 -1</clus>
<clus scale="  131.688">  1  5  2 -1</clus>
</clustering>
</event>
<event>
10    2  0.3544405E-006  0.1035113E+03  0.7546771E-02  0.1274509E+00
          2   -1    0    0  503    0 -0.00000000000E+00  0.00000000000E+00  0.26232642515E+03  0.26232642515E+03  0.00000000000E+00 0.  1.
         21   -1    0    0  501  502  0.00000000000E+00 -0.00000000000E+00 -0.11345355055E+03  0.11345355055E+03  0.00000000000E+00 0. -1.
         23    2    1    2    0    0  0.18719320493E+02 -0.35772637560E+02  0.13519058070E+03  0.16789757862E+03  0.91011039102E+02 0.  0.
         23    2    1    2    0    0 -0.23531730900E+02  0.34992468419E+01 -0.45064886508E+02  0.10701583276E+03  0.94103971108E+02 0.  0.
        -13    1    4    4    0    0  0.24718948210E+02  0.32435869562E+02 -0.20037753531E+02  0.45438129379E+02  0.00000000000E+00 0. -1.
         13    1    4    4    0    0 -0.48250679110E+02 -0.28936622720E+02 -0.25027132976E+02  0.61577703384E+02  0.00000000000E+00 0.  1.
        -13    1    3    3    0    0  0.12267788922E+02 -0.63510433335E+02  0.63006373506E+02  0.90298819980E+02  0.00000000000E+00 0.  1.
         13    1    3    3    0    0  0.64515315712E+01  0.27737795775E+02  0.72184207194E+02  0.77598758639E+02  0.00000000000E+00 0. -1.
         21    1    1    2  503  502  0.40015960879E+02  0.19295807879E+02  0.33568542862E+02  0.55681706122E+02  0.00000000000E+00 0. -1.
          2    1    1    2  501    0 -0.35203550472E+02  0.12977582839E+02  0.25178637540E+02  0.45184858200E+02  0.00000000000E+00 0.  1.
<scales pt_clust_5="13000.00000" pt_clust_6="13000.00000" pt_clust_7="13000.00000" pt_clust_8="13000.00000" pt_clust_9="41.73840" pt_clust_10="37.51945"></scales>
<clustering>
<clus scale="   37.519">  2 10  1 -1</clus>
<clus scale="   41.738">  1  9  2 -1</clus>
<clus scale="   91.011">  7  8 -1 -1</clus>
<clus scale="   94.104">  5  6 -1 -1</clus>
<clus scale="  100.708">  1  7  2 -1</clus>
<clus scale="   37.519">  2  5  1 -1</clus>
</clustering>
</event>
<event>
10    2  0.3544405E-006  0.1511791E+03  0.7546771E-02  0.1199410E+00
         -1   -1    0    0    0  501 -0.00000000000E+00  0.00000000000E+00  0.30330579268E+03  0.30330579268E+03  0.00000000000E+00 0.  1.
         21   -1    0    0  503  502  0.00000000000E+00 -0.00000000000E+00 -0.11666821677E+03  0.11666821677E+03  0.00000000000E+00 0. -1.
         23    2    1    2    0    0  0.11963351713E+03 -0.42755469784E+02  0.10788499068E+03  0.18918280051E+03  0.89502805428E+02 0.  0.
         23    2    1    2    0    0 -0.11772432905E+03 -0.98016553050E+01  0.60453009943E+02  0.16122646781E+03  0.91565918415E+02 0.  0.
        -11    1    3    3    0    0  0.31162679335E+02 -0.39542724240E+02  0.83250303671E+02  0.97290044121E+02  0.00000000000E+00 0.  1.
         11    1    3    3    0    0  0.88470837792E+02 -0.32127455436E+01  0.24634687011E+02  0.91892756394E+02  0.00000000000E+00 0. -1.
        -13    1    4    4    0    0 -0.95316867736E+02  0.30479457042E+02  0.56606570761E+02  0.11497219851E+03  0.00000000000E+00 0.  1.
         13    1    4    4    0    0 -0.22407461313E+02 -0.40281112347E+02  0.38464391825E+01  0.46254269303E+02  0.00000000000E+00 0. -1.
         21    1    1    2  503  501  0.36041501350E+01  0.23683701738E+02  0.29593477730E+02  0.38074683851E+02  0.00000000000E+00 0. -1.
         -1    1    1    2    0  502 -0.55133382132E+01  0.28873423351E+02 -0.11293902445E+02  0.31490057268E+02  0.00000000000E+00 0.  1.
<scales pt_clust_5="13000.00000" pt_clust_6="13000.00000" pt_clust_7="13000.00000" pt_clust_8="13000.00000" pt_clust_9="23.95637" pt_clust_10="30.24300"></scales>
<clustering>
<clus scale="   23.956">  1  9  2 -1</clus>
<clus scale="   30.243">  2 10  1 -1</clus>
<clus scale="   89.503">  5  6 -1 -1</clus>
<clus scale="   91.566">  7  8 -1 -1</clus>
<clus scale="  149.938">  1  5  2 -1</clus>
<clus scale="   30.243">  2  5  1 -1</clus>
</clustering>
</event>
<event>
10    2  0.3544405E-006  0.1449491E+03  0.7546771E-02  0.1207308E+00
          2   -1    0    0  503    0 -0.00000000000E+00  0.00000000000E+00  0.15840685178E+03  0.15840685178E+03  0.00000000000E+00 0. -1.
         21   -1    0    0  501  502  0.00000000000E+00 -0.00000000000E+00 -0.37640840785E+03  0.37640840785E+03  0.00000000000E+00 0. -1.
         23    2    1    2    0    0 -0.17932205564E+02 -0.12077950797E+03  0.44214764675E+02  0.15721248378E+03  0.88609063294E+02 0.  0.
         23    2    1    2    0    0 -0.23745709246E+02  0.78188498397E+02 -0.20351201567E+03  0.23744744502E+03  0.91032129671E+02 0.  0.
        -13    1    4    4    0    0  0.14075173938E+02  0.34469966819E+02 -0.14777299524E+02  0.40058179128E+02  0.00000000000E+00 0.  1.
         13    1    4    4    0    0 -0.37820883184E+02  0.43718531578E+02 -0.18873471615E+03  0.19738926589E+03  0.00000000000E+00 0. -1.
        -13    1    3    3    0    0  0.20168287512E+02 -0.97990876348E+02  0.51011947716E+02  0.11229955689E+03  0.00000000000E+00 0.  1.
         13    1    3    3    0    0 -0.38100493076E+02 -0.22788631622E+02 -0.67971830412E+01  0.44912926882E+02  0.00000000000E+00 0. -1.
         21    1    1    2  503  502  0.37553069709E+02 -0.17752506158E+01  0.25126469492E+02  0.45218624795E+02  0.00000000000E+00 0. -1.
          2    1    1    2  501    0  0.41248451018E+01  0.44366260188E+02 -0.83830774563E+02  0.94936706042E+02  0.00000000000E+00 0. -1.
<scales pt_clust_5="13000.00000" pt_clust_6="13000.00000" pt_clust_7="13000.00000" pt_clust_8="13000.00000" pt_clust_9="37.59501" pt_clust_10="44.66666"></scales>
<clustering>
<clus scale="   37.595">  1  9  2 -1</clus>
<clus scale="   44.667">  2 10  1 -1</clus>
<clus scale="   88.609">  7  8 -1 -1</clus>
<clus scale="   91.032">  5  6 -1 -1</clus>
<clus scale="  143.440">  1  7  2 -1</clus>
<clus scale="   44.667">  2  5  1 -1</clus>
</clustering>
</event>
<event>
10    2  0.3544405E-006  0.1621034E+03  0.7546771E-02  0.1187344E+00
         -4   -1    0    0    0  501 -0.00000000000E+00  0.00000000000E+00  0.18152435153E+03  0.18152435153E+03  0.00000000000E+00 0.  1.
         21   -1    0    0  503  502  0.00000000000E+00 -0.00000000000E+00 -0.50654035671E+03  0.50654035671E+03  0.00000000000E+00 0.  1.
         23    2    1    2    0    0  0.91006492695E+02 -0.76543375346E+02  0.48297107233E+02  0.15780489539E+03  0.91807975800E+02 0.  0.
         23    2    1    2    0    0 -0.10903203923E+03  0.13091153744E+03 -0.61546034942E+02  0.20024523347E+03  0.85348830656E+02 0.  0.
        -13    1    4    4    0    0 -0.44487723249E+02  0.35501825630E+01  0.33362957042E+00  0.44630400232E+02  0.00000000000E+00 0. -1.
         13    1    4    4    0    0 -0.64544315981E+02  0.12736135488E+03 -0.61879664512E+02  0.15561483324E+03  0.00000000000E+00 0.  1.
        -13    1    3    3    0    0 -0.23131870099E+01 -0.51115761477E+02  0.30165881451E+02  0.59398251735E+02  0.00000000000E+00 0. -1.
         13    1    3    3    0    0  0.93319679705E+02 -0.25427613869E+02  0.18131225782E+02  0.98406643656E+02  0.00000000000E+00 0.  1.
         21    1    1    2  503  501 -0.10449437963E+02 -0.29235331913E+02 -0.22692696594E+02  0.38455869051E+02  0.00000000000E+00 0.  1.
         -4    1    1    2    0  502  0.28474984498E+02 -0.25132830186E+02 -0.28907438087E+03  0.29155871033E+03  0.00000000000E+00 0.  1.
<scales pt_clust_5="13000.00000" pt_clust_6="13000.00000" pt_clust_7="13000.00000" pt_clust_8="13000.00000" pt_clust_9="31.04666" pt_clust_10="48.31624"></scales>
<clustering>
<clus scale="   31.047">  2  9  1 -1</clus>
<clus scale="   48.316">  2 10  1 -1</clus>
<clus scale="   85.349">  5  6 -1 -1</clus>
<clus scale="   91.808">  7  8 -1 -1</clus>
<clus scale="  158.535">  2  5  1 -1</clus>
<clus scale="   31.047">  2  5  1 -1</clus>
</clustering>
</event>
<event>
10    2  0.3544405E-006  0.1248141E+03  0.7546771E-02  0.1236465E+00
         21   -1    0    0  501  502  0.00000000000E+00  0.00000000000E+00  0.27819005827E+03  0.27819005827E+03  0.00000000000E+00 0. -1.
          1   -1    0    0  503    0 -0.00000000000E+00 -0.00000000000E+00 -0.15864975128E+03  0.15864975128E+03  0.00000000000E+00 0. -1.
         23    2    1    2    0    0 -0.41656890550E+02  0.34615446208E+02 -0.32252726909E+02  0.11271974013E+03  0.93445041472E+02 0.  0.
         23    2    1    2    0    0  0.10625137880E+03  0.14996635521E+02  0.87958842640E+02  0.16521109871E+03  0.89686646521E+02 0.  0.
        -11    1    3    3    0    0  0.24344081233E+02  0.32295302485E+02 -0.31972904649E+01  0.40568997030E+02  0.00000000000E+00 0.  1.
         11    1    3    3    0    0 -0.66000971782E+02  0.23201437233E+01 -0.29055436444E+02  0.72150743101E+02  0.00000000000E+00 0. -1.
        -11    1    4    4    0    0 -0.50858212921E+01  0.26704426726E+02  0.24090259835E+02  0.36322618351E+02  0.00000000000E+00 0.  1.
         11    1    4    4    0    0  0.11133720009E+03 -0.11707791206E+02  0.63868582805E+02  0.12888848036E+03  0.00000000000E+00 0. -1.
         21    1    1    2  503  502 -0.59405377540E+02 -0.19012462926E+02 -0.23167403079E+02  0.66537216599E+02  0.00000000000E+00 0.  1.
          1    1    1    2  501    0 -0.51891107094E+01 -0.30599618803E+02  0.87001594336E+02  0.92371754112E+02  0.00000000000E+00 0. -1.
<scales pt_clust_5="13000.00000" pt_clust_6="13000.00000" pt_clust_7="13000.00000" pt_clust_8="13000.00000" pt_clust_9="64.09364" pt_clust_10="31.03649"></scales>
<clustering>
<clus scale="   31.036">  1 10  2 -1</clus>
<clus scale="   64.094">  2  9  1 -1</clus>
<clus scale="   89.687">  7  8 -1 -1</clus>
<clus scale="   93.445">  5  6 -1 -1</clus>
<clus scale="  122.026">  1  7  2 -1</clus>
<clus scale="   31.036">  1  5  2 -1</clus>
</clustering>
</event>
<event>
10    2  0.3544405E-006  0.1078560E+03  0.7546771E-02  0.1267611E+00
         21   -1    0    0  503  502  0.00000000000E+00  0.00000000000E+00  0.24605146486E+03  0.24605146486E+03  0.00000000000E+00 0. -1.
         -2   -1    0    0    0  501 -0.00000000000E+00 -0.00000000000E+00 -0.25612231064E+03  0.25612231064E+03  0.00000000000E+00 0.  1.
         23    2    1    2    0    0 -0.30260231980E+02 -0.48313556405E+02 -0.67777487998E+02  0.12833920885E+03  0.92883170036E+02 0.  0.
         23    2    1    2    0    0  0.55260210292E+02 -0.18900976662E+02  0.16003345839E+03  0.19732821793E+03  0.99583030819E+02 0.  0.
        -11    1    3    3    0    0 -0.42229081656E+02  0.10334153685E+02 -0.49221748921E+02  0.65672449602E+02  0.00000000000E+00 0.  1.
         11    1    3    3    0    0  0.11968849676E+02 -0.58647710090E+02 -0.18555739076E+02  0.62666759243E+02  0.00000000000E+00 0. -1.
        -11    1    4    4    0    0  0.56469597559E+02 -0.47115332126E+02  0.15052455988E+03  0.16753003640E+03  0.00000000000E+00 0. -1.
         11    1    4    4    0    0 -0.12093872671E+01  0.28214355464E+02  0.95088985184E+01  0.29798181536E+02  0.00000000000E+00 0.  1.
         21    1    1    2  503  501 -0.10540586959E+02  0.53296375977E+02 -0.13082105484E+03  0.14165364822E+03  0.00000000000E+00 0.  1.
         -2    1    1    2    0  502 -0.14459391352E+02  0.13918157090E+02  0.28494238658E+02  0.34852700495E+02  0.00000000000E+00 0.  1.
<scales pt_clust_5="13000.00000" pt_clust_6="13000.00000" pt_clust_7="13000.00000" pt_clust_8="13000.00000" pt_clust_9="54.74531" pt_clust_10="20.06961"></scales>
<clustering>
<clus scale="   20.070">  1 10  2 -1</clus>
<clus scale="   54.745">  2  9  1 -1</clus>
<clus scale="   92.883">  5  6 -1 -1</clus>
<clus scale="   99.583">  7  8 -1 -1</clus>
<clus scale="  101.703">  2  5  1 -1</clus>
<clus scale="   20.070">  1  5  2 -1</clus>
</clustering>
</event>
<event>
10    2  0.3544405E-006  0.9625479E+02  0.7546771E-02  0.1289728E+00
         21   -1    0    0  503  502  0.00000000000E+00  0.00000000000E+00  0.13366082812E+03  0.13366082812E+03  0.00000000000E+00 0. -1.
         -2   -1    0    0    0  501 -0.00000000000E+00 -0.00000000000E+00 -0.32385201539E+03  0.32385201539E+03  0.00000000000E+00 0.  1.
         23    2    1    2    0    0  0.20985074184E+02 -0.19492366018E+02 -0.20359603817E+03  0.22530352147E+03  0.92141219650E+02 0.  0.
         23    2    1    2    0    0  0.23361541775E+01 -0.25955991402E+02 -0.24851450138E+01  0.93362762953E+02  0.89617288814E+02 0.  0.
        -11    1    4    4    0    0  0.23914615348E+02  0.26830320971E+02  0.30377648955E+01  0.36069418712E+02  0.00000000000E+00 0.  1.
         11    1    4    4    0    0 -0.21578461170E+02 -0.52786312373E+02 -0.55229099093E+01  0.57293344241E+02  0.00000000000E+00 0. -1.
        -13    1    3    3    0    0  0.51930916983E+02 -0.32703811022E+02 -0.11182798622E+03  0.12756119275E+03  0.00000000000E+00 0.  1.
         13    1    3    3    0    0 -0.30945842798E+02  0.13211445004E+02 -0.91768051945E+02  0.97742328719E+02  0.00000000000E+00 0. -1.
         21    1    1    2  503  501  0.22039414994E+02  0.33768897592E+02 -0.46036947191E+02  0.61200284024E+02  0.00000000000E+00 0.  1.
         -2    1    1    2    0  502 -0.45360643356E+02  0.11679459828E+02  0.61926943109E+02  0.77646275058E+02  0.00000000000E+00 0.  1.
<scales pt_clust_5="13000.00000" pt_clust_6="13000.00000" pt_clust_7="13000.00000" pt_clust_8="13000.00000" pt_clust_9="40.32461" pt_clust_10="46.47754"></scales>
<clustering>
<clus scale="   40.325">  2  9  1 -1</clus>
<clus scale="   46.478">  1 10  2 -1</clus>
<clus scale="   89.617">  5  6 -1 -1</clus>
<clus scale="   92.141">  7  8 -1 -1</clus>
<clus scale="   93.842">  1  5  2 -1</clus>
<clus scale="   46.478">  1  5  2 -1</clus>
</clustering>
</event>
<event>
10    2  0.3544405E-006  0.9463796E+02  0.7546771E-02  0.1292444E+00
         21   -1    0    0  501  502  0.00000000000E+00  0.00000000000E+00  0.37290501133E+03  0.37290501133E+03  0.00000000000E+00 0. -1.
          1   -1    0    0  503    0 -0.00000000000E+00 -0.00000000000E+00 -0.46510340186E+02  0.46510340186E+02  0.00000000000E+00 0. -1.
         23    2    1    2    0    0  0.10453914799E+02 -0.15085117704E+02  0.65365548547E+02  0.11426888173E+03  0.91912334776E+02 0.  0.
         23    2    1    2    0    0 -0.16758834733E+02  0.95529545152E+01  0.12974394614E+03  0.15970017153E+03  0.91096299290E+02 0.  0.
        -13    1    4    4    0    0 -0.33233368009E+02  0.39575960336E+02  0.45852874760E+02  0.69088345685E+02  0.00000000000E+00 0.  1.
         13    1    4    4    0    0  0.16474533276E+02 -0.30023005821E+02  0.83891071379E+02  0.90611825842E+02  0.00000000000E+00 0. -1.
        -13    1    3    3    0    0  0.30284300234E+02 -0.32773454830E+02  0.10007765451E+01  0.44634512832E+02  0.00000000000E+00 0. -1.
         13    1    3    3    0    0 -0.19830385434E+02  0.17688337125E+02  0.64364772002E+02  0.69634368896E+02  0.00000000000E+00 0.  1.
         21    1    1    2  503  502  0.21204077846E+02 -0.10021449603E+02  0.16543665205E+02  0.28700787931E+02  0.00000000000E+00 0.  1.
          1    1    1    2  501    0 -0.14899157912E+02  0.15553612792E+02  0.11474151125E+03  0.11674551033E+03  0.00000000000E+00 0. -1.
<scales pt_clust_5="13000.00000" pt_clust_6="13000.00000" pt_clust_7="13000.00000" pt_clust_8="13000.00000" pt_clust_9="21.69392" pt_clust_10="21.53833"></scales>
<clustering>
<clus scale="   21.538">  1 10  2 -1</clus>
<clus scale="   21.694">  2  9  1 -1</clus>
<clus scale="   91.096">  5  6 -1 -1</clus>
<clus scale="   91.912">  7  8 -1 -1</clus>
<clus scale="   93.846">  1  5  2 -1</clus>
<clus scale="   21.538">  1  5  2 -1</clus>
</clustering>
</event>
<event>
10    2  0.3544405E-006  0.1718411E+03  0.7546771E-02  0.1202454E+00
         -1   -1    0    0    0  501 -0.00000000000E+00  0.00000000000E+00  0.11684971470E+03  0.11684971470E+03  0.00000000000E+00 0.  1.
         21   -1    0    0  503  502  0.00000000000E+00 -0.00000000000E+00 -0.62119317060E+03  0.62119317060E+03  0.00000000000E+00 0.  1.
         23    2    1    2    0    0  0.30879762754E+02  0.15594663466E+02 -0.57453678511E+02  0.10897122584E+03  0.85889752649E+02 0.  0.
         23    2    1    2    0    0 -0.18101224693E+03  0.30887094461E+02 -0.16127796415E+03  0.26102108148E+03  0.91662299299E+02 0.  0.
        -11    1    4    4    0    0 -0.17617184084E+03  0.50604765989E+01 -0.12434143314E+03  0.21569171964E+03  0.00000000000E+00 0.  1.
         11    1    4    4    0    0 -0.48404060930E+01  0.25826617862E+02 -0.36936531010E+02  0.45329361835E+02  0.00000000000E+00 0. -1.
        -11    1    3    3    0    0  0.14224129283E+02  0.42679152951E+02 -0.62261784355E+02  0.76813838216E+02  0.00000000000E+00 0.  1.
         11    1    3    3    0    0  0.16655633470E+02 -0.27084489485E+02  0.48081058433E+01  0.32157387623E+02  0.00000000000E+00 0. -1.
         21    1    1    2  503  501  0.25410961951E+02  0.61823407683E+01  0.20570052045E+02  0.33272591810E+02  0.00000000000E+00 0.  1.
         -1    1    1    2    0  502  0.12472152222E+03 -0.52664098695E+02 -0.30618186528E+03  0.33477798617E+03  0.00000000000E+00 0.  1.
<scales pt_clust_5="13000.00000" pt_clust_6="13000.00000" pt_clust_7="13000.00000" pt_clust_8="13000.00000" pt_clust_9="26.15221" pt_clust_10="145.35262"></scales>
<clustering>
<clus scale="   26.152">  1  9  2 -1</clus>
<clus scale="   85.890">  7  8 -1 -1</clus>
<clus scale="   91.662">  5  6 -1 -1</clus>
<clus scale="   95.575">  1  7  2 -1</clus>
<clus scale="  145.353">  2 10  1 -1</clus>
<clus scale="  145.353">  2  5  1 -1</clus>
</clustering>
</event>
<event>
10    2  0.3544405E-006  0.1176256E+03  0.7546771E-02  0.1247861E+00
         21   -1    0    0  501  502  0.00000000000E+00  0.00000000000E+00  0.94491991481E+02  0.94491991481E+02  0.00000000000E+00 0.  1.
          2   -1    0    0  503    0 -0.00000000000E+00 -0.00000000000E+00 -0.43688478173E+03  0.43688478173E+03  0.00000000000E+00 0. -1.
         23    2    1    2    0    0 -0.71164895662E+02  0.27293572536E+02 -0.26703263585E+03  0.29314639005E+03  0.93909509188E+02 0.  0.
         23    2    1    2    0    0  0.48243297514E+02 -0.35094758692E+02 -0.66158350501E+02  0.12775188282E+03  0.91567234204E+02 0.  0.
        -11    1    3    3    0    0  0.19544115901E+02 -0.60304644963E+01 -0.80622764196E+02  0.83176733976E+02  0.00000000000E+00 0. -1.
         11    1    3    3    0    0 -0.90709011563E+02  0.33324037033E+02 -0.18640987166E+03  0.20996965608E+03  0.00000000000E+00 0.  1.
        -11    1    4    4    0    0 -0.19359870593E+02 -0.62135371300E+01  0.93397379426E+01  0.22375060623E+02  0.00000000000E+00 0.  1.
         11    1    4    4    0    0  0.67603168108E+02 -0.28881221562E+02 -0.75498088443E+02  0.10537682219E+03  0.00000000000E+00 0. -1.
         21    1    1    2  503  502 -0.28624309263E+02  0.32227354795E+02 -0.26834951687E+02  0.50774679811E+02  0.00000000000E+00 0.  1.
          2    1    1    2  501    0  0.51545907411E+02 -0.24426168640E+02  0.17633147787E+02  0.59703820532E+02  0.00000000000E+00 0. -1.
<scales pt_clust_5="13000.00000" pt_clust_6="13000.00000" pt_clust_7="13000.00000" pt_clust_8="13000.00000" pt_clust_9="43.10398" pt_clust_10="39.25664"></scales>
<clustering>
<clus scale="   43.104">  1  9  2 -1</clus>
<clus scale="   39.257">  1 10  2 -1</clus>
<clus scale="   91.567">  7  8 -1 -1</clus>
<clus scale="   93.910">  5  6 -1 -1</clus>
<clus scale="  115.764">  1  7  2 -1</clus>
<clus scale="   43.104">  1  5  2 -1</clus>
</clustering>
</event>
<event>
10    2  0.3544405E-006  0.2290887E+03  0.7546771E-02  0.1127850E+00
         21   -1    0    0  501  502  0.00000000000E+00  0.00000000000E+00  0.55090915632E+03  0.55090915632E+03  0.00000000000E+00 0.  1.
          4   -1    0    0  503    0 -0.00000000000E+00 -0.00000000000E+00 -0.27856441891E+03  0.27856441891E+03  0.00000000000E+00 0. -1.
         23    2    1    2    0    0 -0.21491527876E+03 -0.97389489243E+02 -0.12687253598E+03  0.28132315626E+03  0.85864941646E+02 0.  0.
         23    2    1    2    0    0  0.13790481842E+03  0.14443157242E+03  0.23821239218E+03  0.32472040837E+03  0.93914758008E+02 0.  0.
        -11    1    3    3    0    0 -0.18554950566E+03 -0.11355922349E+03 -0.10857245930E+03  0.24313020217E+03  0.00000000000E+00 0. -1.
         11    1    3    3    0    0 -0.29365773106E+02  0.16169734250E+02 -0.18300076680E+02  0.38192954093E+02  0.00000000000E+00 0.  1.
        -13    1    4    4    0    0  0.93331513293E+02  0.11340560862E+03  0.10408305793E+03  0.18001357279E+03  0.00000000000E+00 0.  1.
         13    1    4    4    0    0  0.44573305129E+02  0.31025963799E+02  0.13412933425E+03  0.14470683559E+03  0.00000000000E+00 0. -1.
         21    1    1    2  503  502  0.58065725982E+02 -0.39127782064E+02  0.96401504739E+01  0.70679164994E+02  0.00000000000E+00 0. -1.
          4    1    1    2  501    0  0.18944734360E+02 -0.79143011080E+01  0.15136473074E+03  0.15275084560E+03  0.00000000000E+00 0. -1.
<scales pt_clust_5="13000.00000" pt_clust_6="13000.00000" pt_clust_7="13000.00000" pt_clust_8="13000.00000" pt_clust_9="72.04698" pt_clust_10="20.53142"></scales>
<clustering>
<clus scale="   20.531">  1 10  2 -1</clus>
<clus scale="   72.047">  2  9  1 -1</clus>
<clus scale="   85.865">  5  6 -1 -1</clus>
<clus scale="   93.915">  7  8 -1 -1</clus>
<clus scale="  225.908">  2  5  1 -1</clus>
<clus scale="   20.531">  1  5  2 -1</clus>
</clustering>
</event>
<event>
10    2  0.3544405E-006  0.1005487E+03  0.7546771E-02  0.1284220E+00
          1   -1    0    0  503    0 -0.00000000000E+00  0.00000000000E+00  0.80938279767E+03  0.80938279767E+03  0.00000000000E+00 0. -1.
         21   -1    0    0  501  502  0.00000000000E+00 -0.00000000000E+00 -0.33848201413E+02  0.33848201413E+02  0.00000000000E+00 0. -1.
         23    2    1    2    0    0 -0.19382782533E+02 -0.17418978908E+02  0.29597860266E+03  0.31020935104E+03  0.89148164070E+02 0.  0.
         23    2    1    2    0    0 -0.60504743680E+02 -0.19215427421E+02  0.27429529401E+03  0.29830625869E+03  0.98583259238E+02 0.  0.
        -11    1    3    3    0    0 -0.18032048613E+02  0.34985115569E+02  0.15097238823E+03  0.15601850883E+03  0.00000000000E+00 0.  1.
         11    1    3    3    0    0 -0.13507339200E+01 -0.52404094477E+02  0.14500621442E+03  0.15419084221E+03  0.00000000000E+00 0. -1.
        -13    1    4    4    0    0 -0.54842777353E+02 -0.47981034569E+02  0.24945522632E+03  0.25988039527E+03  0.00000000000E+00 0. -1.
         13    1    4    4    0    0 -0.56619663275E+01  0.28765607148E+02  0.24840067687E+02  0.38425863425E+02  0.00000000000E+00 0.  1.
         21    1    1    2  503  502  0.56463204847E+02  0.10869829567E+02  0.18649830973E+03  0.19516112889E+03  0.00000000000E+00 0. -1.
          1    1    1    2  501    0  0.23424321366E+02  0.25764576762E+02  0.18762389858E+02  0.39554260458E+02  0.00000000000E+00 0. -1.
<scales pt_clust_5="13000.00000" pt_clust_6="13000.00000" pt_clust_7="13000.00000" pt_clust_8="13000.00000" pt_clust_9="62.76624" pt_clust_10="34.82115"></scales>
<clustering>
<clus scale="   34.821">  2 10  1 -1</clus>
<clus scale="   62.766">  1  9  2 -1</clus>
<clus scale="   89.148">  5  6 -1 -1</clus>
<clus scale="   91.317">  1  5  2 -1</clus>
<clus scale="   98.583">  7  8 -1 -1</clus>
<clus scale="   34.821">  2  5  1 -1</clus>
</clustering>
</event>
<event>
10    2  0.3544405E-006  0.1371476E+03  0.7546771E-02  0.1217723E+00
         21   -1    0    0  501  502  0.00000000000E+00  0.00000000000E+00  0.10062595822E+03  0.10062595822E+03  0.00000000000E+00 0. -1.
          2   -1    0    0  503    0 -0.00000000000E+00 -0.00000000000E+00 -0.56569627321E+03  0.56569627321E+03  0.00000000000E+00 0. -1.
         23    2    1    2    0    0  0.11517385400E+03  0.11163006766E+02 -0.28164078873E+03  0.31748117662E+03  0.89906252645E+02 0.  0.
         23    2    1    2    0    0 -0.74501128585E+02 -0.38523235767E+02 -0.11636066334E+03  0.16811233583E+03  0.87678364661E+02 0.  0.
        -11    1    3    3    0    0  0.93430092088E+02 -0.20579023874E+02 -0.13231784331E+03  0.16328101540E+03  0.00000000000E+00 0.  1.
         11    1    3    3    0    0  0.21743761913E+02  0.31742030640E+02 -0.14932294542E+03  0.15420016122E+03  0.00000000000E+00 0. -1.
        -13    1    4    4    0    0 -0.10208498377E+02 -0.53694386414E+02 -0.44295211079E+02  0.70351732715E+02  0.00000000000E+00 0. -1.
         13    1    4    4    0    0 -0.64292630207E+02  0.15171150647E+02 -0.72065452266E+02  0.97760603114E+02  0.00000000000E+00 0.  1.
         21    1    1    2  503  502  0.16601297102E+02  0.29313294349E+02 -0.10614777095E+03  0.11136526194E+03  0.00000000000E+00 0. -1.
          2    1    1    2  501    0 -0.57274022518E+02 -0.19530653478E+01  0.39078908033E+02  0.69363457041E+02  0.00000000000E+00 0. -1.
<scales pt_clust_5="13000.00000" pt_clust_6="13000.00000" pt_clust_7="13000.00000" pt_clust_8="13000.00000" pt_clust_9="33.68787" pt_clust_10="56.73238"></scales>
<clustering>
<clus scale="   33.688">  2  9  1 -1</clus>
<clus scale="   56.732">  1 10  2 -1</clus>
<clus scale="   87.678">  7  8 -1 -1</clus>
<clus scale="   89.906">  5  6 -1 -1</clus>
<clus scale="  135.698">  1  7  2 -1</clus>
<clus scale="   56.732">  1  5  2 -1</clus>
</clustering>
</event>
<event>
10    2  0.3544405E-006  0.1658750E+03  0.7546771E-02  0.1182258E+00
          1   -1    0    0  503    0 -0.00000000000E+00  0.00000000000E+00  0.33088743335E+03  0.33088743335E+03  0.00000000000E+00 0. -1.
         21   -1    0    0  501  502  0.00000000000E+00 -0.00000000000E+00 -0.57912829940E+03  0.57912829940E+03  0.00000000000E+00 0.  1.
         23    2    1    2    0    0  0.46294048385E+02  0.91674196637E+02 -0.14863316146E+03  0.20219961789E+03  0.90805129502E+02 0.  0.
         23    2    1    2    0    0 -0.12250704902E+03 -0.13732389247E+03 -0.29218216258E+03  0.35711243950E+03  0.91066183670E+02 0.  0.
        -11    1    4    4    0    0 -0.42320375891E+02 -0.11027079556E+03 -0.14174452835E+03  0.18450521371E+03  0.00000000000E+00 0. -1.
         11    1    4    4    0    0 -0.80186673130E+02 -0.27053096911E+02 -0.15043763424E+03  0.17260722579E+03  0.00000000000E+00 0.  1.
        -13    1    3    3    0    0 -0.22488861547E+02  0.31418560913E+02 -0.76598423359E+02  0.85791569076E+02  0.00000000000E+00 0.  1.
         13    1    3    3    0    0  0.68782909932E+02  0.60255635724E+02 -0.72034738105E+02  0.11640804882E+03  0.00000000000E+00 0. -1.
         21    1    1    2  503  502  0.41241783733E+02  0.31738851276E+02  0.26447604536E+03  0.26954743178E+03  0.00000000000E+00 0. -1.
          1    1    1    2  501    0  0.34971216903E+02  0.13910844557E+02 -0.71901587369E+02  0.81156243593E+02  0.00000000000E+00 0. -1.
<scales pt_clust_5="13000.00000" pt_clust_6="13000.00000" pt_clust_7="13000.00000" pt_clust_8="13000.00000" pt_clust_9="52.22340" pt_clust_10="37.63639"></scales>
<clustering>
<clus scale="   37.636">  2 10  1 -1</clus>
<clus scale="   52.223">  1  9  2 -1</clus>
<clus scale="   90.805">  7  8 -1 -1</clus>
<clus scale="   91.066">  5  6 -1 -1</clus>
<clus scale="  165.732">  1  7  2 -1</clus>
<clus scale="   37.636">  2  5  1 -1</clus>
</clustering>
</event>
<event>
10    2  0.3544405E-006  0.2822995E+03  0.7546771E-02  0.1116361E+00
         21   -1    0    0  501  502  0.00000000000E+00  0.00000000000E+00  0.39975409677E+03  0.39975409677E+03  0.00000000000E+00 0. -1.
          1   -1    0    0  503    0 -0.00000000000E+00 -0.00000000000E+00 -0.53721682337E+03  0.53721682337E+03  0.00000000000E+00 0. -1.
         23    2    1    2    0    0  0.18965686733E+03  0.21155391866E+03 -0.14959641322E+03  0.33363309719E+03  0.90593426167E+02 0.  0.
         23    2    1    2    0    0 -0.13221797423E+03 -0.83449756064E+02  0.65457958603E+02  0.19220480917E+03  0.90622788671E+02 0.  0.
        -13    1    4    4    0    0 -0.10478253868E+03 -0.48370070388E+02  0.29384083027E+01  0.11544556451E+03  0.00000000000E+00 0.  1.
         13    1    4    4    0    0 -0.27435435550E+02 -0.35079685675E+02  0.62519550300E+02  0.76759244659E+02  0.00000000000E+00 0. -1.
        -13    1    3    3    0    0  0.36765609091E+02  0.87483633745E+02 -0.82116855344E+02  0.12549212771E+03  0.00000000000E+00 0.  1.
         13    1    3    3    0    0  0.15289125824E+03  0.12407028492E+03 -0.67479557879E+02  0.20814096948E+03  0.00000000000E+00 0. -1.
         21    1    1    2  503  502 -0.65250087624E+02 -0.25779475309E+03 -0.81607640459E+02  0.27816454777E+03  0.00000000000E+00 0. -1.
          1    1    1    2  501    0  0.78111945233E+01  0.12969059049E+03  0.28283368478E+02  0.13296846601E+03  0.00000000000E+00 0. -1.
<scales pt_clust_5="13000.00000" pt_clust_6="13000.00000" pt_clust_7="13000.00000" pt_clust_8="13000.00000" pt_clust_9="267.36834" pt_clust_10="129.92561"></scales>
<clustering>
<clus scale="   90.593">  7  8 -1 -1</clus>
<clus scale="   90.623">  5  6 -1 -1</clus>
<clus scale="  129.926">  1 10  2 -1</clus>
<clus scale="  160.739">  1  5  2 -1</clus>
<clus scale="  267.368">  1  9  2 -1</clus>
<clus scale="  129.926">  1  5  2 -1</clus>
</clustering>
</event>
<event>
10    2  0.3544405E-006  0.2372491E+03  0.7546771E-02  0.1121910E+00
          1   -1    0    0  503    0 -0.00000000000E+00  0.00000000000E+00  0.84218238945E+02  0.84218238945E+02  0.00000000000E+00 0. -1.
         21   -1    0    0  501  502  0.00000000000E+00 -0.00000000000E+00 -0.99474221043E+03  0.99474221043E+03  0.00000000000E+00 0.  1.
         23    2    1    2    0    0  0.11501400916E+03  0.17549818879E+03 -0.21604962076E+03  0.31493569892E+03  0.92082676174E+02 0.  0.
         23    2    1    2    0    0 -0.12997272665E+03 -0.17730612307E+03 -0.49064999910E+03  0.54617168163E+03  0.96102618292E+02 0.  0.
        -13    1    4    4    0    0  0.14251035487E+02 -0.32043425157E+02 -0.64930973078E+02  0.73796371002E+02  0.00000000000E+00 0. -1.
         13    1    4    4    0    0 -0.14422376214E+03 -0.14526269791E+03 -0.42571902602E+03  0.47237531063E+03  0.00000000000E+00 0.  1.
        -13    1    3    3    0    0  0.95423498891E+02  0.66566442137E+02 -0.13202298658E+03  0.17597387404E+03  0.00000000000E+00 0.  1.
         13    1    3    3    0    0  0.19590510266E+02  0.10893174666E+03 -0.84026634180E+02  0.13896182488E+03  0.00000000000E+00 0. -1.
         21    1    1    2  503  502 -0.16037896678E+02  0.26506789750E+02 -0.48490194546E+02  0.57542358310E+02  0.00000000000E+00 0. -1.
          1    1    1    2  501    0  0.30996614170E+02 -0.24698855473E+02 -0.15533415708E+03  0.16031071052E+03  0.00000000000E+00 0. -1.
<scales pt_clust_5="13000.00000" pt_clust_6="13000.00000" pt_clust_7="13000.00000" pt_clust_8="13000.00000" pt_clust_9="30.98103" pt_clust_10="38.72767"></scales>
<clustering>
<clus scale="   30.981">  1  9  2 -1</clus>
<clus scale="   38.728">  2 10  1 -1</clus>
<clus scale="   92.083">  7  8 -1 -1</clus>
<clus scale="   96.103">  5  6 -1 -1</clus>
<clus scale="  235.649">  1  7  2 -1</clus>
<clus scale="   38.728">  2  5  1 -1</clus>
</clustering>
</event>
<event>
10    2  0.3544405E-006  0.2411430E+03  0.7546771E-02  0.1119079E+00
          1   -1    0    0  503    0 -0.00000000000E+00  0.00000000000E+00  0.15014812923E+03  0.15014812923E+03  0.00000000000E+00 0. -1.
         21   -1    0    0  501  502  0.00000000000E+00 -0.00000000000E+00 -0.10236674293E+04  0.10236674293E+04  0.00000000000E+00 0.  1.
         23    2    1    2    0    0 -0.33205930574E+02 -0.23617951838E+03 -0.58282083421E+01  0.25525907122E+03  0.90773491168E+02 0.  0.
         23    2    1    2    0    0  0.29577560229E+02  0.20592481537E+03 -0.78533777113E+03  0.81740069229E+03  0.90047850255E+02 0.  0.
        -11    1    3    3    0    0 -0.21903617317E+02 -0.14895063873E+03 -0.47583472625E+02  0.15789315406E+03  0.00000000000E+00 0.  1.
         11    1    3    3    0    0 -0.11302313257E+02 -0.87228879648E+02  0.41755264283E+02  0.97365917163E+02  0.00000000000E+00 0. -1.
        -11    1    4    4    0    0  0.38680129647E+02  0.17130807185E+03 -0.73464455522E+03  0.75534444488E+03  0.00000000000E+00 0.  1.
         11    1    4    4    0    0 -0.91025694175E+01  0.34616743522E+02 -0.50693215912E+02  0.62056247401E+02  0.00000000000E+00 0. -1.
         21    1    1    2  503  502 -0.17322970549E+02  0.17857779495E+02 -0.13892373566E+02  0.28495326642E+02  0.00000000000E+00 0.  1.
          1    1    1    2  501    0  0.20951340894E+02  0.12396923517E+02 -0.68460947006E+02  0.72660468364E+02  0.00000000000E+00 0. -1.
<scales pt_clust_5="13000.00000" pt_clust_6="13000.00000" pt_clust_7="13000.00000" pt_clust_8="13000.00000" pt_clust_9="24.75850" pt_clust_10="24.34425"></scales>
<clustering>
<clus scale="   24.344">  2 10  1 -1</clus>
<clus scale="   24.758">  1  9  2 -1</clus>
<clus scale="   90.048">  7  8 -1 -1</clus>
<clus scale="   90.773">  5  6 -1 -1</clus>
<clus scale="  240.871">  2  7  1 -1</clus>
<clus scale="   24.344">  2  5  1 -1</clus>
</clustering>
</event>
<event>
10    2  0.3544405E-006  0.1339293E+03  0.7546771E-02  0.1221984E+00
          1   -1    0    0  503    0 -0.00000000000E+00  0.00000000000E+00  0.30823042826E+03  0.30823042826E+03  0.00000000000E+00 0. -1.
         21   -1    0    0  501  502  0.00000000000E+00 -0.00000000000E+00 -0.55494877161E+03  0.55494877161E+03  0.00000000000E+00 0. -1.
         23    2    1    2    0    0 -0.21147480698E+02  0.76290044148E+02  0.11557340359E+03  0.16645736152E+03  0.89908035309E+02 0.  0.
         23    2    1    2    0    0  0.48986895522E+02 -0.14500032159E+03 -0.28424079180E+03  0.33538606367E+03  0.90918506288E+02 0.  0.
        -11    1    3    3    0    0 -0.27310051859E+02 -0.10827493932E+02  0.46963708196E+02  0.55395518275E+02  0.00000000000E+00 0.  1.
         11    1    3    3    0    0  0.61625711610E+01  0.87117538080E+02  0.68609695389E+02  0.11106184325E+03  0.00000000000E+00 0. -1.
        -13    1    4    4    0    0 -0.20614290323E+02 -0.16111111424E+02 -0.79107485909E+02  0.83321733081E+02  0.00000000000E+00 0.  1.
         13    1    4    4    0    0  0.69601185845E+02 -0.12888921017E+03 -0.20513330589E+03  0.25206433059E+03  0.00000000000E+00 0. -1.
         21    1    1    2  503  502 -0.18594665019E+02  0.11215407371E+02  0.13691270272E+03  0.13862407834E+03  0.00000000000E+00 0. -1.
          1    1    1    2  501    0 -0.92447498053E+01  0.57494870076E+02 -0.21496365786E+03  0.22271169633E+03  0.00000000000E+00 0. -1.
<scales pt_clust_5="13000.00000" pt_clust_6="13000.00000" pt_clust_7="13000.00000" pt_clust_8="13000.00000" pt_clust_9="21.71513" pt_clust_10="58.55333"></scales>
<clustering>
<clus scale="   21.715">  1  9  2 -1</clus>
<clus scale="   58.553">  2 10  1 -1</clus>
<clus scale="   89.908">  5  6 -1 -1</clus>
<clus scale="   90.919">  7  8 -1 -1</clus>
<clus scale="  133.245">  1  5  2 -1</clus>
<clus scale="   58.553">  2  5  1 -1</clus>
</clustering>
</event>
<event>
10    2  0.3544405E-006  0.1835622E+03  0.7546771E-02  0.1164838E+00
         21   -1    0    0  501  502  0.00000000000E+00  0.00000000000E+00  0.66619374341E+02  0.66619374341E+02  0.00000000000E+00 0.  1.
          2   -1    0    0  503    0 -0.00000000000E+00 -0.00000000000E+00 -0.11481349911E+04  0.11481349911E+04  0.00000000000E+00 0. -1.
         23    2    1    2    0    0 -0.12308141022E+03  0.11444637994E+03 -0.51174221371E+03  0.54563113024E+03  0.87098964228E+02 0.  0.
         23    2    1    2    0    0  0.17446877918E+03 -0.32332615393E+02 -0.32952670064E+03  0.38338410119E+03  0.83131039220E+02 0.  0.
        -13    1    3    3    0    0 -0.26839462416E+02  0.69416064421E+02 -0.13458690121E+03  0.15379395541E+03  0.00000000000E+00 0.  1.
         13    1    3    3    0    0 -0.96241947807E+02  0.45030315514E+02 -0.37715531250E+03  0.39183717483E+03  0.00000000000E+00 0. -1.
        -13    1    4    4    0    0  0.40395856246E+02  0.20256017737E+02 -0.41481953116E+02  0.61342349896E+02  0.00000000000E+00 0.  1.
         13    1    4    4    0    0  0.13407292293E+03 -0.52588633130E+02 -0.28804474753E+03  0.32204175130E+03  0.00000000000E+00 0. -1.
         21    1    1    2  503  502  0.53410099725E+01 -0.22620948963E+02 -0.18555189626E+03  0.18700197840E+03  0.00000000000E+00 0. -1.
          2    1    1    2  501    0 -0.56728378930E+02 -0.59492815580E+02 -0.54694806174E+02  0.98737155641E+02  0.00000000000E+00 0. -1.
<scales pt_clust_5="13000.00000" pt_clust_6="13000.00000" pt_clust_7="13000.00000" pt_clust_8="13000.00000" pt_clust_9="23.24293" pt_clust_10="83.23031"></scales>
<clustering>
<clus scale="   23.243">  2  9  1 -1</clus>
<clus scale="   83.131">  7  8 -1 -1</clus>
<clus scale="   83.230">  1 10  2 -1</clus>
<clus scale="   87.099">  5  6 -1 -1</clus>
<clus scale="  181.713">  1  7  2 -1</clus>
<clus scale="   83.230">  1  5  2 -1</clus>
</clustering>
</event>
<event>
10    2  0.3544405E-006  0.1032864E+03  0.7546771E-02  0.1279649E+00
          4   -1    0    0  503    0 -0.00000000000E+00  0.00000000000E+00  0.83264297266E+02  0.83264297266E+02  0.00000000000E+00 0. -1.
         21   -1    0    0  501  502  0.00000000000E+00 -0.00000000000E+00 -0.34454764206E+03  0.34454764206E+03  0.00000000000E+00 0. -1.
         23    2    1    2    0    0 -0.37749007807E+02 -0.15652128932E+02  0.25954342579E+01  0.87794259181E+02  0.77660279009E+02 0.  0.
         23    2    1    2    0    0  0.77175181865E+02 -0.12700982746E+02 -0.82936290716E+02  0.14578465023E+03  0.90870304647E+02 0.  0.
        -13    1    4    4    0    0  0.51030585083E+02  0.10396037099E+01 -0.99568066865E+02  0.11188834313E+03  0.00000000000E+00 0.  1.
         13    1    4    4    0    0  0.26144596782E+02 -0.13740586456E+02  0.16631776149E+02  0.33896307098E+02  0.00000000000E+00 0. -1.
        -13    1    3    3    0    0 -0.22483181670E+01 -0.41981602953E+02 -0.68533565896E+01  0.42596694915E+02  0.00000000000E+00 0. -1.
         13    1    3    3    0    0 -0.35500689640E+02  0.26329474021E+02  0.94487908474E+01  0.45197564266E+02  0.00000000000E+00 0.  1.
         21    1    1    2  503  502 -0.85844789228E+01  0.19388753435E+02 -0.17009781673E+02  0.27183629461E+02  0.00000000000E+00 0.  1.
          4    1    1    2  501    0 -0.30841695135E+02  0.89643582438E+01 -0.16393270667E+03  0.16704940045E+03  0.00000000000E+00 0. -1.
<scales pt_clust_5="13000.00000" pt_clust_6="13000.00000" pt_clust_7="13000.00000" pt_clust_8="13000.00000" pt_clust_9="21.20418" pt_clust_10="40.00214"></scales>
<clustering>
<clus scale="   21.204">  2  9  1 -1</clus>
<clus scale="   40.002">  2 10  1 -1</clus>
<clus scale="   77.660">  7  8 -1 -1</clus>
<clus scale="   90.870">  5  6 -1 -1</clus>
<clus scale="   91.879">  1  7  2 -1</clus>
<clus scale="   21.204">  2  5  1 -1</clus>
</clustering>
</event>
<event>
10    2  0.3544405E-006  0.1029386E+03  0.7546771E-02  0.1274878E+00
         21   -1    0    0  501  502  0.00000000000E+00  0.00000000000E+00  0.35632823967E+03  0.35632823967E+03  0.00000000000E+00 0.  1.
          1   -1    0    0  503    0 -0.00000000000E+00 -0.00000000000E+00 -0.13948026976E+03  0.13948026976E+03  0.00000000000E+00 0. -1.
         23    2    1    2    0    0 -0.34029565734E+02  0.12281266661E+02 -0.19834863979E+02  0.99600281283E+02  0.90652927960E+02 0.  0.
         23    2    1    2    0    0  0.63638127429E+02 -0.16073058442E+02  0.15309266608E+03  0.19032022179E+03  0.92066649475E+02 0.  0.
        -11    1    3    3    0    0 -0.63959531491E+02  0.18901731224E+02 -0.16931272254E+02  0.68809629355E+02  0.00000000000E+00 0. -1.
         11    1    3    3    0    0  0.29929965757E+02 -0.66204645634E+01 -0.29035917251E+01  0.30790651928E+02  0.00000000000E+00 0.  1.
        -13    1    4    4    0    0  0.63927166528E+02 -0.41433482432E+02  0.14483486563E+03  0.16364765317E+03  0.00000000000E+00 0.  1.
         13    1    4    4    0    0 -0.28903909974E+00  0.25360423989E+02  0.82578004477E+01  0.26672568619E+02  0.00000000000E+00 0. -1.
         21    1    1    2  503  502  0.42902634386E+01  0.24372572668E+02 -0.55759864450E+02  0.61004845236E+02  0.00000000000E+00 0.  1.
          1    1    1    2  501    0 -0.33898825134E+02 -0.20580780887E+02  0.13935003226E+03  0.14488316113E+03  0.00000000000E+00 0. -1.
<scales pt_clust_5="13000.00000" pt_clust_6="13000.00000" pt_clust_7="13000.00000" pt_clust_8="13000.00000" pt_clust_9="24.74730" pt_clust_10="39.10582"></scales>
<clustering>
<clus scale="   24.747">  2  9  1 -1</clus>
<clus scale="   39.106">  1 10  2 -1</clus>
<clus scale="   90.653">  5  6 -1 -1</clus>
<clus scale="   92.067">  7  8 -1 -1</clus>
<clus scale="  101.676">  2  5  1 -1</clus>
<clus scale="   39.106">  1  5  2 -1</clus>
</clustering>
</event>
<event>
10    2  0.3544405E-006  0.9874139E+02  0.7546771E-02  0.1283740E+00
         21   -1    0    0  501  502  0.00000000000E+00  0.00000000000E+00  0.33407064621E+02  0.33407064621E+02  0.00000000000E+00 0. -1.
          1   -1    0    0  503    0 -0.00000000000E+00 -0.00000000000E+00 -0.13965505943E+04  0.13965505943E+04  0.00000000000E+00 0. -1.
         23    2    1    2    0    0  0.18811207950E+02  0.71310358182E+02 -0.36574774044E+03  0.38413245645E+03  0.91363590838E+02 0.  0.
         23    2    1    2    0    0 -0.14411599629E+02 -0.68158173940E+01 -0.24358235480E+03  0.26010005786E+03  0.89808278891E+02 0.  0.
        -11    1    4    4    0    0  0.17075517163E+02  0.26461238635E+02 -0.17375332568E+03  0.17658422529E+03  0.00000000000E+00 0.  1.
         11    1    4    4    0    0 -0.31487116792E+02 -0.33277056029E+02 -0.69829029124E+02  0.83515832572E+02  0.00000000000E+00 0. -1.
        -13    1    3    3    0    0  0.50789082347E+02  0.62451905465E+02 -0.21023237743E+03  0.22511646741E+03  0.00000000000E+00 0. -1.
         13    1    3    3    0    0 -0.31977874398E+02  0.88584527170E+01 -0.15551536301E+03  0.15901598903E+03  0.00000000000E+00 0.  1.
         21    1    1    2  503  502  0.46065723902E+02 -0.92739321488E+02 -0.69701912131E+03  0.70466892094E+03  0.00000000000E+00 0. -1.
          1    1    1    2  501    0 -0.50465332223E+02  0.28244780700E+02 -0.56794313139E+02  0.81056223685E+02  0.00000000000E+00 0. -1.
<scales pt_clust_5="13000.00000" pt_clust_6="13000.00000" pt_clust_7="13000.00000" pt_clust_8="13000.00000" pt_clust_9="95.14762" pt_clust_10="57.83180"></scales>
<clustering>
<clus scale="   57.832">  1 10  2 -1</clus>
<clus scale="   89.808">  5  6 -1 -1</clus>
<clus scale="   91.364">  7  8 -1 -1</clus>
<clus scale="   95.148">  2  9  1 -1</clus>
<clus scale="   97.304">  1  5  2 -1</clus>
<clus scale="   57.832">  1  5  2 -1</clus>
</clustering>
</event>
<event>
10    2  0.3544405E-006  0.1018109E+03  0.7546771E-02  0.1276761E+00
         21   -1    0    0  501  502  0.00000000000E+00  0.00000000000E+00  0.51401787764E+03  0.51401787764E+03  0.00000000000E+00 0.  1.
          1   -1    0    0  503    0 -0.00000000000E+00 -0.00000000000E+00 -0.12109888187E+03  0.12109888187E+03  0.00000000000E+00 0. -1.
         23    2    1    2    0    0  0.68314114869E+01  0.26569737691E+02  0.49208007101E+02  0.10641851822E+03  0.90282079692E+02 0.  0.
         23    2    1    2    0    0  0.10157110574E+03 -0.36027269825E+02  0.19509203423E+03  0.24028390394E+03  0.89781952433E+02 0.  0.
        -11    1    3    3    0    0 -0.35726193869E+02  0.50573156736E+01 -0.23879476550E+01  0.36161300643E+02  0.00000000000E+00 0. -1.
         11    1    3    3    0    0  0.42557605355E+02  0.21512422018E+02  0.51595954756E+02  0.70257217578E+02  0.00000000000E+00 0.  1.
        -13    1    4    4    0    0  0.11098895304E+03 -0.89244185991E+01  0.14938093425E+03  0.18631386546E+03  0.00000000000E+00 0.  1.
         13    1    4    4    0    0 -0.94178473078E+01 -0.27102851226E+02  0.45711099985E+02  0.53970038487E+02  0.00000000000E+00 0. -1.
         21    1    1    2  503  502 -0.34511095248E+02  0.99919758918E+01 -0.58420080619E+02  0.68583971137E+02  0.00000000000E+00 0. -1.
          1    1    1    2  501    0 -0.73891421976E+02 -0.53444375789E+00  0.20703903506E+03  0.21983036622E+03  0.00000000000E+00 0. -1.
<scales pt_clust_5="13000.00000" pt_clust_6="13000.00000" pt_clust_7="13000.00000" pt_clust_8="13000.00000" pt_clust_9="35.92847" pt_clust_10="77.72573"></scales>
<clustering>
<clus scale="   35.928">  2  9  1 -1</clus>
<clus scale="   77.726">  1 10  2 -1</clus>
<clus scale="   89.782">  7  8 -1 -1</clus>
<clus scale="   90.282">  5  6 -1 -1</clus>
<clus scale="  101.368">  1  7  2 -1</clus>
<clus scale="   77.726">  1  5  2 -1</clus>
</clustering>
</event>
<event>
10    2  0.3544405E-006  0.1936843E+03  0.7546771E-02  0.1181446E+00
          3   -1    0    0  503    0 -0.00000000000E+00  0.00000000000E+00  0.41331541510E+03  0.41331541510E+03  0.00000000000E+00 0. -1.
         21   -1    0    0  501  502  0.00000000000E+00 -0.00000000000E+00 -0.24606357071E+03  0.24606357071E+03  0.00000000000E+00 0. -1.
         23    2    1    2    0    0 -0.26932324726E+02 -0.18333427011E+02  0.20030139386E+03  0.22198568250E+03  0.89975164316E+02 0.  0.
         23    2    1    2    0    0 -0.23309036459E+02  0.17467407504E+03 -0.20783900120E+02  0.19867158163E+03  0.89353697012E+02 0.  0.
        -11    1    4    4    0    0  0.33160547651E+01  0.19915267046E+02 -0.35615872354E+02  0.40940254569E+02  0.00000000000E+00 0.  1.
         11    1    4    4    0    0 -0.26625091224E+02  0.15475880800E+03  0.14831972233E+02  0.15773132706E+03  0.00000000000E+00 0. -1.
        -11    1    3    3    0    0 -0.33792358644E+02  0.16175249029E+02  0.17418440220E+03  0.17816780897E+03  0.00000000000E+00 0. -1.
         11    1    3    3    0    0  0.68600339185E+01 -0.34508676040E+02  0.26116991653E+02  0.43817873527E+02  0.00000000000E+00 0.  1.
         21    1    1    2  503  502 -0.42286448948E+02 -0.74702993701E+01  0.36962089373E+02  0.56658143176E+02  0.00000000000E+00 0. -1.
          3    1    1    2  501    0  0.92527810133E+02 -0.14887034866E+03 -0.49227738715E+02  0.18206357850E+03  0.00000000000E+00 0. -1.
<scales pt_clust_5="13000.00000" pt_clust_6="13000.00000" pt_clust_7="13000.00000" pt_clust_8="13000.00000" pt_clust_9="42.94123" pt_clust_10="171.84152"></scales>
<clustering>
<clus scale="   42.941">  1  9  2 -1</clus>
<clus scale="   89.354">  5  6 -1 -1</clus>
<clus scale="   89.975">  7  8 -1 -1</clus>
<clus scale="  106.014">  1  7  2 -1</clus>
<clus scale="  171.842">  2 10  1 -1</clus>
<clus scale="  171.842">  2  5  1 -1</clus>
</clustering>
</event>
<event>
10    2  0.5104875E-006  0.1629101E+03  0.7546771E-02  0.1186049E+00
          1   -1    0    0  503    0 -0.00000000000E+00  0.00000000000E+00  0.90559820782E+03  0.90559820782E+03  0.00000000000E+00 0. -1.
         21   -1    0    0  501  502  0.00000000000E+00 -0.00000000000E+00 -0.15869293256E+03  0.15869293256E+03  0.00000000000E+00 0.  1.
         23    2    1    2    0    0 -0.92084024462E+02 -0.17245014384E+02  0.67783658515E+03  0.69055621645E+03  0.92890224644E+02 0.  0.
         23    2    1    2    0    0  0.12457866875E+03  0.53601443277E+02 -0.97094875377E+02  0.18907800322E+03  0.89051204642E+02 0.  0.
        -11    1    3    3    0    0 -0.85817864566E+02  0.24809477281E+02  0.47026958501E+03  0.47867911865E+03  0.00000000000E+00 0. -1.
         11    1    3    3    0    0 -0.62661598956E+01 -0.42054491665E+02  0.20756700013E+03  0.21187709780E+03  0.00000000000E+00 0.  1.
        -13    1    4    4    0    0  0.73511698227E+02  0.61293278176E+02 -0.22450095619E+02  0.98309930928E+02  0.00000000000E+00 0. -1.
         13    1    4    4    0    0  0.51066970526E+02 -0.76918348988E+01 -0.74644779758E+02  0.90768072294E+02  0.00000000000E+00 0.  1.
         21    1    1    2  503  502 -0.46691452406E+02 -0.65637880691E+01  0.10658681078E+03  0.11655008912E+03  0.00000000000E+00 0. -1.
          1    1    1    2  501    0  0.14196808114E+02 -0.29792640824E+02  0.59576754710E+02  0.68106831594E+02  0.00000000000E+00 0. -1.
<scales pt_clust_5="13000.00000" pt_clust_6="13000.00000" pt_clust_7="13000.00000" pt_clust_8="13000.00000" pt_clust_9="46.84184" pt_clust_10="33.00230"></scales>
<clustering>
<clus scale="   33.002">  2 10  1 -1</clus>
<clus scale="   46.842">  1  9  2 -1</clus>
<clus scale="   89.051">  7  8 -1 -1</clus>
<clus scale="   92.890">  5  6 -1 -1</clus>
<clus scale="  160.752">  2  7  1 -1</clus>
<clus scale="   33.002">  2  5  1 -1</clus>
</clustering>
</event>
<event>
10    2  0.3544405E-006  0.1264445E+03  0.7546771E-02  0.1233004E+00
         -2   -1    0    0    0  501 -0.00000000000E+00  0.00000000000E+00  0.49344833423E+03  0.49344833423E+03  0.00000000000E+00 0.  1.
         21   -1    0    0  503  502  0.00000000000E+00 -0.00000000000E+00 -0.12714299370E+03  0.12714299370E+03  0.00000000000E+00 0. -1.
         23    2    1    2    0    0  0.19601183554E+02 -0.73519529978E+02  0.24467158519E+03  0.27187882479E+03  0.90909752411E+02 0.  0.
         23    2    1    2    0    0  0.33221836440E+02  0.12703653852E+03  0.11819056863E+03  0.19897260561E+03  0.91537504524E+02 0.  0.
        -11    1    4    4    0    0  0.57271003484E+02  0.11857341463E+03  0.83505316184E+02  0.15592549608E+03  0.00000000000E+00 0.  1.
         11    1    4    4    0    0 -0.24049167044E+02  0.84631238870E+01  0.34685252443E+02  0.43047109525E+02  0.00000000000E+00 0. -1.
        -13    1    3    3    0    0  0.52845412871E+02 -0.64184864169E+02  0.18719608984E+03  0.20482849045E+03  0.00000000000E+00 0.  1.
         13    1    3    3    0    0 -0.33244229317E+02 -0.93346658087E+01  0.57475495353E+02  0.67050334337E+02  0.00000000000E+00 0. -1.
         21    1    1    2  503  501 -0.57090646711E+02 -0.98326751615E+01  0.56472432182E+02  0.80902157198E+02  0.00000000000E+00 0. -1.
         -2    1    1    2    0  502  0.42676267175E+01 -0.43684333378E+02 -0.53029245470E+02  0.68837740343E+02  0.00000000000E+00 0.  1.
<scales pt_clust_5="13000.00000" pt_clust_6="13000.00000" pt_clust_7="13000.00000" pt_clust_8="13000.00000" pt_clust_9="59.07778" pt_clust_10="43.89230"></scales>
<clustering>
<clus scale="   43.892">  2 10  1 -1</clus>
<clus scale="   59.078">  2  9  1 -1</clus>
<clus scale="   90.910">  7  8 -1 -1</clus>
<clus scale="   91.538">  5  6 -1 -1</clus>
<clus scale="  125.991">  1  7  2 -1</clus>
<clus scale="   43.892">  2  5  1 -1</clus>
</clustering>
</event>
<event>
10    2  0.3544405E-006  0.1303918E+03  0.7546771E-02  0.1227406E+00
         21   -1    0    0  503  502  0.00000000000E+00  0.00000000000E+00  0.23481544714E+03  0.23481544714E+03  0.00000000000E+00 0. -1.
         -1   -1    0    0    0  501 -0.00000000000E+00 -0.00000000000E+00 -0.45765174658E+03  0.45765174658E+03  0.00000000000E+00 0.  1.
         23    2    1    2    0    0  0.77830992538E+01 -0.90292738698E+02 -0.37476252622E+03  0.39565172632E+03  0.88769263710E+02 0.  0.
         23    2    1    2    0    0  0.52568893104E+02  0.67272442363E+02  0.10715147020E+03  0.16437943570E+03  0.90830013167E+02 0.  0.
        -11    1    4    4    0    0  0.25783604764E+02  0.47260388312E+02  0.11761011509E+03  0.12934634804E+03  0.00000000000E+00 0. -1.
         11    1    4    4    0    0  0.26785288339E+02  0.20012054051E+02 -0.10458644887E+02  0.35033087669E+02  0.00000000000E+00 0.  1.
        -13    1    3    3    0    0 -0.27722304096E+02 -0.18714309351E+01 -0.50020816673E+02  0.57219843575E+02  0.00000000000E+00 0. -1.
         13    1    3    3    0    0  0.35505403350E+02 -0.88421307763E+02 -0.32474170955E+03  0.33843188274E+03  0.00000000000E+00 0.  1.
         21    1    1    2  503  501 -0.24999841282E+02 -0.45261533744E+01 -0.33616834886E+02  0.42137509611E+02  0.00000000000E+00 0. -1.
         -1    1    1    2    0  502 -0.35352151076E+02  0.27546449709E+02  0.78391591471E+02  0.90298522085E+02  0.00000000000E+00 0.  1.
<scales pt_clust_5="13000.00000" pt_clust_6="13000.00000" pt_clust_7="13000.00000" pt_clust_8="13000.00000" pt_clust_9="25.40626" pt_clust_10="45.05823"></scales>
<clustering>
<clus scale="   25.406">  2  9  1 -1</clus>
<clus scale="   45.058">  1 10  2 -1</clus>
<clus scale="   88.769">  7  8 -1 -1</clus>
<clus scale="   90.830">  5  6 -1 -1</clus>
<clus scale="  128.965">  2  7  1 -1</clus>
<clus scale="   45.058">  1  5  2 -1</clus>
</clustering>
</event>
<event>
10    2  0.3544405E-006  0.9927519E+02  0.7546771E-02  0.1288351E+00
         21   -1    0    0  503  502  0.00000000000E+00  0.00000000000E+00  0.42765925730E+02  0.42765925730E+02  0.00000000000E+00 0. -1.
         -3   -1    0    0    0  501 -0.00000000000E+00 -0.00000000000E+00 -0.33142894594E+03  0.33142894594E+03  0.00000000000E+00 0.  1.
         23    2    1    2    0    0 -0.14787766892E+02 -0.28452163983E+02 -0.13292193993E+03  0.16482145651E+03  0.92030792265E+02 0.  0.
         23    2    1    2    0    0  0.22034905937E+02  0.32900313596E+02 -0.88756033293E+02  0.12555426508E+03  0.79487560779E+02 0.  0.
        -11    1    4    4    0    0  0.83809398865E+00  0.43304884176E+02 -0.11562098598E+02  0.44829649999E+02  0.00000000000E+00 0. -1.
         11    1    4    4    0    0  0.21196811949E+02 -0.10404570580E+02 -0.77193934695E+02  0.80724615077E+02  0.00000000000E+00 0.  1.
        -11    1    3    3    0    0 -0.52378233037E+02 -0.28920948299E+02 -0.79586639211E+02  0.99568738505E+02  0.00000000000E+00 0.  1.
         11    1    3    3    0    0  0.37590466144E+02  0.46878431625E+00 -0.53335300719E+02  0.65252718001E+02  0.00000000000E+00 0. -1.
         21    1    1    2  503  501  0.18247508938E+01 -0.25220057555E+02 -0.47997050374E+02  0.54250325930E+02  0.00000000000E+00 0.  1.
         -3    1    1    2    0  502 -0.90718899386E+01  0.20771907942E+02 -0.18987996609E+02  0.29568824154E+02  0.00000000000E+00 0.  1.
<scales pt_clust_5="13000.00000" pt_clust_6="13000.00000" pt_clust_7="13000.00000" pt_clust_8="13000.00000" pt_clust_9="23.51129" pt_clust_10="22.66652"></scales>
<clustering>
<clus scale="   22.667">  1 10  2 -1</clus>
<clus scale="   23.511">  2  9  1 -1</clus>
<clus scale="   79.488">  5  6 -1 -1</clus>
<clus scale="   87.773">  1  5  2 -1</clus>
<clus scale="   92.031">  7  8 -1 -1</clus>
<clus scale="   22.667">  1  5  2 -1</clus>
</clustering>
</event>
<event>
10    2  0.3544405E-006  0.1231162E+03  0.7546771E-02  0.1238217E+00
         21   -1    0    0  501  502  0.00000000000E+00  0.00000000000E+00  0.21575564769E+03  0.21575564769E+03  0.00000000000E+00 0. -1.
          2   -1    0    0  503    0 -0.00000000000E+00 -0.00000000000E+00 -0.38351588348E+03  0.38351588348E+03  0.00000000000E+00 0. -1.
         23    2    1    2    0    0 -0.43850735896E+02 -0.13488089536E+01 -0.40473801910E+02  0.10903232702E+03  0.91242607206E+02 0.  0.
         23    2    1    2    0    0  0.12237586009E+03  0.59240856341E+02 -0.35767023800E+02  0.16791921822E+03  0.91827303466E+02 0.  0.
        -13    1    3    3    0    0 -0.15373138311E+02 -0.33301123328E+02  0.14431583377E+02  0.39415337055E+02  0.00000000000E+00 0. -1.
         13    1    3    3    0    0 -0.28477597585E+02  0.31952314374E+02 -0.54905385286E+02  0.69616989963E+02  0.00000000000E+00 0.  1.
        -13    1    4    4    0    0  0.97231244036E+02 -0.26445178488E+01 -0.21221753187E+02  0.99555367006E+02  0.00000000000E+00 0.  1.
         13    1    4    4    0    0  0.25144616058E+02  0.61885374190E+02 -0.14545270613E+02  0.68363851212E+02  0.00000000000E+00 0. -1.
         21    1    1    2  503  502 -0.35789128414E+02 -0.19628980199E+02 -0.19757392311E+03  0.20174640931E+03  0.00000000000E+00 0. -1.
          2    1    1    2  501    0 -0.42735995783E+02 -0.38263067189E+02  0.10605451302E+03  0.12057357662E+03  0.00000000000E+00 0. -1.
<scales pt_clust_5="13000.00000" pt_clust_6="13000.00000" pt_clust_7="13000.00000" pt_clust_8="13000.00000" pt_clust_9="40.81861" pt_clust_10="58.93318"></scales>
<clustering>
<clus scale="   40.819">  2  9  1 -1</clus>
<clus scale="   58.933">  1 10  2 -1</clus>
<clus scale="   91.243">  5  6 -1 -1</clus>
<clus scale="   91.827">  7  8 -1 -1</clus>
<clus scale="  122.681">  2  5  1 -1</clus>
<clus scale="   58.933">  1  5  2 -1</clus>
</clustering>
</event>
<event>
10    2  0.3544405E-006  0.1170028E+03  0.7546771E-02  0.1248984E+00
          1   -1    0    0  503    0 -0.00000000000E+00  0.00000000000E+00  0.58725900556E+03  0.58725900556E+03  0.00000000000E+00 0. -1.
         21   -1    0    0  501  502  0.00000000000E+00 -0.00000000000E+00 -0.10534719566E+03  0.10534719566E+03  0.00000000000E+00 0.  1.
         23    2    1    2    0    0 -0.67426507087E+02  0.36422571839E+01  0.43981159068E+03  0.45426471757E+03  0.91447243996E+02 0.  0.
         23    2    1    2    0    0  0.43855056219E+02 -0.41799660860E+00 -0.41714811424E+02  0.10753160405E+03  0.88879017213E+02 0.  0.
        -11    1    3    3    0    0 -0.21441834217E+02 -0.38450032566E+02  0.10766031583E+03  0.11631380341E+03  0.00000000000E+00 0.  1.
         11    1    3    3    0    0 -0.45984672870E+02  0.42092289750E+02  0.33215127485E+03  0.33795091416E+03  0.00000000000E+00 0. -1.
        -13    1    4    4    0    0  0.59685216072E+01 -0.42242095391E+02 -0.16993544500E+02  0.45921655326E+02  0.00000000000E+00 0.  1.
         13    1    4    4    0    0  0.37886534611E+02  0.41824098782E+02 -0.24721266924E+02  0.61609948727E+02  0.00000000000E+00 0. -1.
         21    1    1    2  503  502 -0.68881557127E+01  0.20870649130E+02  0.88958543518E+02  0.91633253511E+02  0.00000000000E+00 0. -1.
          1    1    1    2  501    0  0.30459606581E+02 -0.24094909706E+02 -0.51435128791E+01  0.39176626087E+02  0.00000000000E+00 0. -1.
<scales pt_clust_5="13000.00000" pt_clust_6="13000.00000" pt_clust_7="13000.00000" pt_clust_8="13000.00000" pt_clust_9="21.97796" pt_clust_10="38.21142"></scales>
<clustering>
<clus scale="   21.978">  1  9  2 -1</clus>
<clus scale="   38.211">  2 10  1 -1</clus>
<clus scale="   88.879">  7  8 -1 -1</clus>
<clus scale="   91.447">  5  6 -1 -1</clus>
<clus scale="  115.007">  2  7  1 -1</clus>
<clus scale="   38.211">  2  5  1 -1</clus>
</clustering>
</event>
<event>
10    2  0.3544405E-006  0.1187207E+03  0.7546771E-02  0.1245850E+00
         -1   -1    0    0    0  501 -0.00000000000E+00  0.00000000000E+00  0.55501275498E+03  0.55501275498E+03  0.00000000000E+00 0.  1.
         21   -1    0    0  503  502  0.00000000000E+00 -0.00000000000E+00 -0.14691689993E+03  0.14691689993E+03  0.00000000000E+00 0.  1.
         23    2    1    2    0    0  0.83944754255E+02 -0.86872353904E+02  0.30646608479E+03  0.34209471442E+03  0.92270281588E+02 0.  0.
         23    2    1    2    0    0 -0.44179419546E+02  0.88493685963E+02 -0.63337744303E+02  0.14817858090E+03  0.90345273360E+02 0.  0.
        -11    1    4    4    0    0 -0.30320911951E+02  0.37811567919E+01  0.13094281908E+02  0.33243271002E+02  0.00000000000E+00 0. -1.
         11    1    4    4    0    0 -0.13858507595E+02  0.84712529171E+02 -0.76432026211E+02  0.11493530990E+03  0.00000000000E+00 0.  1.
        -13    1    3    3    0    0  0.18397534307E+02 -0.61214654217E+02  0.22750469694E+03  0.23631354233E+03  0.00000000000E+00 0.  1.
         13    1    3    3    0    0  0.65547219948E+02 -0.25657699688E+02  0.78961387851E+02  0.10578117208E+03  0.00000000000E+00 0. -1.
         21    1    1    2  503  501 -0.76279047763E+02  0.29378486234E+02  0.12458443480E+03  0.14900627495E+03  0.00000000000E+00 0.  1.
         -1    1    1    2    0  502  0.36513713054E+02 -0.30999818292E+02  0.40383079762E+02  0.62650084647E+02  0.00000000000E+00 0.  1.
<scales pt_clust_5="13000.00000" pt_clust_6="13000.00000" pt_clust_7="13000.00000" pt_clust_8="13000.00000" pt_clust_9="77.68779" pt_clust_10="47.89825"></scales>
<clustering>
<clus scale="   47.898">  2 10  1 -1</clus>
<clus scale="   77.688">  1  9  2 -1</clus>
<clus scale="   90.345">  5  6 -1 -1</clus>
<clus scale="   92.270">  7  8 -1 -1</clus>
<clus scale="  117.231">  2  5  1 -1</clus>
<clus scale="   47.898">  2  5  1 -1</clus>
</clustering>
</event>
<event>
10    2  0.3544405E-006  0.1212854E+03  0.7546771E-02  0.1245542E+00
         21   -1    0    0  503  502  0.00000000000E+00  0.00000000000E+00  0.39174837649E+03  0.39174837649E+03  0.00000000000E+00 0.  1.
         -1   -1    0    0    0  501 -0.00000000000E+00 -0.00000000000E+00 -0.17739430442E+03  0.17739430442E+03  0.00000000000E+00 0.  1.
         23    2    1    2    0    0 -0.12504102878E+02  0.76711926860E+02 -0.80032228987E+02  0.15223983453E+03  0.10358927179E+03 0.  0.
         23    2    1    2    0    0  0.13933836749E+02 -0.13827072403E+02  0.43427598262E+02  0.10262481976E+03  0.90887609729E+02 0.  0.
        -11    1    4    4    0    0  0.32214483401E+02  0.19876517139E+02 -0.77892238037E+01  0.38646097886E+02  0.00000000000E+00 0.  1.
         11    1    4    4    0    0 -0.18280646652E+02 -0.33703589543E+02  0.51216822066E+02  0.63978721874E+02  0.00000000000E+00 0. -1.
        -11    1    3    3    0    0  0.24964675930E+02  0.82590518066E+02 -0.74336482279E+02  0.11388740631E+03  0.00000000000E+00 0.  1.
         11    1    3    3    0    0 -0.37468778808E+02 -0.58785912051E+01 -0.56957467085E+01  0.38352428221E+02  0.00000000000E+00 0. -1.
         21    1    1    2  503  501 -0.63016406769E+01  0.21840117173E+02 -0.20039095781E+02  0.30302916578E+02  0.00000000000E+00 0. -1.
         -1    1    1    2    0  502  0.48719068056E+01 -0.84724971630E+02  0.27099779858E+03  0.28397511005E+03  0.00000000000E+00 0.  1.
<scales pt_clust_5="13000.00000" pt_clust_6="13000.00000" pt_clust_7="13000.00000" pt_clust_8="13000.00000" pt_clust_9="22.73107" pt_clust_10="83.92036"></scales>
<clustering>
<clus scale="   22.731">  2  9  1 -1</clus>
<clus scale="   83.920">  1 10  2 -1</clus>
<clus scale="   90.888">  5  6 -1 -1</clus>
<clus scale="  103.589">  7  8 -1 -1</clus>
<clus scale="  110.634">  1  5  2 -1</clus>
<clus scale="   83.920">  1  5  2 -1</clus>
</clustering>
</event>
<event>
10    2  0.3544405E-006  0.1040957E+03  0.7546771E-02  0.1278238E+00
         21   -1    0    0  501  502  0.00000000000E+00  0.00000000000E+00  0.34669100495E+02  0.34669100495E+02  0.00000000000E+00 0.  1.
          1   -1    0    0  503    0 -0.00000000000E+00 -0.00000000000E+00 -0.73192731200E+03  0.73192731200E+03  0.00000000000E+00 0. -1.
         23    2    1    2    0    0 -0.29600675316E+02 -0.28746143429E+02 -0.41029993365E+03  0.42480897872E+03  0.10204945910E+03 0.  0.
         23    2    1    2    0    0  0.15362495070E+02  0.17628362288E+02 -0.14143758229E+03  0.16920517127E+03  0.89883451694E+02 0.  0.
        -11    1    4    4    0    0 -0.23444039756E+02  0.35137702219E+02 -0.10496176168E+03  0.11314262031E+03  0.00000000000E+00 0. -1.
         11    1    4    4    0    0  0.38806534826E+02 -0.17509339931E+02 -0.36475820609E+02  0.56062550951E+02  0.00000000000E+00 0.  1.
        -11    1    3    3    0    0  0.35428722830E+02 -0.43890099287E+01 -0.20494111608E+03  0.20802720704E+03  0.00000000000E+00 0.  1.
         11    1    3    3    0    0 -0.65029398146E+02 -0.24357133501E+02 -0.20535881757E+03  0.21678177167E+03  0.00000000000E+00 0. -1.
         21    1    1    2  503  502  0.19852335230E+02  0.40812351116E+02 -0.13179552124E+03  0.13939089869E+03  0.00000000000E+00 0.  1.
          1    1    1    2  501    0 -0.56141549848E+01 -0.29694569975E+02 -0.13725174321E+02  0.33191363821E+02  0.00000000000E+00 0. -1.
<scales pt_clust_5="13000.00000" pt_clust_6="13000.00000" pt_clust_7="13000.00000" pt_clust_8="13000.00000" pt_clust_9="40.96167" pt_clust_10="30.22063"></scales>
<clustering>
<clus scale="   30.221">  1 10  2 -1</clus>
<clus scale="   40.962">  2  9  1 -1</clus>
<clus scale="   89.883">  5  6 -1 -1</clus>
<clus scale="   92.200">  1  5  2 -1</clus>
<clus scale="  102.049">  7  8 -1 -1</clus>
<clus scale="   30.221">  1  5  2 -1</clus>
</clustering>
</event>
<event>
10    2  0.3544405E-006  0.1062511E+03  0.7546771E-02  0.1268298E+00
          3   -1    0    0  503    0 -0.00000000000E+00  0.00000000000E+00  0.26496610191E+03  0.26496610191E+03  0.00000000000E+00 0. -1.
         21   -1    0    0  501  502  0.00000000000E+00 -0.00000000000E+00 -0.58930766385E+03  0.58930766385E+03  0.00000000000E+00 0. -1.
         23    2    1    2    0    0  0.96671750074E+02 -0.27350967692E+02  0.67081069301E+02  0.15257710583E+03  0.93200861957E+02 0.  0.
         23    2    1    2    0    0  0.13060194821E+02 -0.23145249215E+02 -0.63794467346E+02  0.11485886065E+03  0.91741771054E+02 0.  0.
        -11    1    4    4    0    0 -0.78016703105E+01 -0.53269925739E+02 -0.55431566023E+02  0.77273601958E+02  0.00000000000E+00 0.  1.
         11    1    4    4    0    0  0.20861865132E+02  0.30124676524E+02 -0.83629013230E+01  0.37585258693E+02  0.00000000000E+00 0. -1.
        -13    1    3    3    0    0  0.29928912692E+02  0.33201458558E+02  0.96952080305E+01  0.45739192429E+02  0.00000000000E+00 0.  1.
         13    1    3    3    0    0  0.66742837382E+02 -0.60552426250E+02  0.57385861271E+02  0.10683791340E+03  0.00000000000E+00 0. -1.
         21    1    1    2  503  502 -0.26260723001E+02  0.33085196180E+02  0.12204686834E+03  0.12914988908E+03  0.00000000000E+00 0. -1.
          3    1    1    2  501    0 -0.83471221895E+02  0.17411020727E+02 -0.44967503223E+03  0.45768791019E+03  0.00000000000E+00 0. -1.
<scales pt_clust_5="13000.00000" pt_clust_6="13000.00000" pt_clust_7="13000.00000" pt_clust_8="13000.00000" pt_clust_9="42.24045" pt_clust_10="86.20447"></scales>
<clustering>
<clus scale="   42.240">  1  9  2 -1</clus>
<clus scale="   86.204">  2 10  1 -1</clus>
<clus scale="   91.742">  5  6 -1 -1</clus>
<clus scale="   93.201">  7  8 -1 -1</clus>
<clus scale="  104.974">  2  5  1 -1</clus>
<clus scale="   86.204">  2  5  1 -1</clus>
</clustering>
</event>
<event>
10    2  0.3544405E-006  0.1065706E+03  0.7546771E-02  0.1268726E+00
         21   -1    0    0  503  502  0.00000000000E+00  0.00000000000E+00  0.13476153973E+03  0.13476153973E+03  0.00000000000E+00 0. -1.
         -4   -1    0    0    0  501 -0.00000000000E+00 -0.00000000000E+00 -0.22854729494E+03  0.22854729494E+03  0.00000000000E+00 0.  1.
         23    2    1    2    0    0 -0.16592749090E+02  0.88452848959E+01 -0.87813841031E+02  0.12798954467E+03  0.91194816084E+02 0.  0.
         23    2    1    2    0    0  0.82734972062E+02  0.22683657603E+01 -0.22171828993E+02  0.12794966631E+03  0.95022660574E+02 0.  0.
        -11    1    4    4    0    0 -0.21541084837E+02  0.26849135385E+01 -0.48665346386E+01  0.22246578525E+02  0.00000000000E+00 0.  1.
         11    1    4    4    0    0  0.10427605690E+03 -0.41654777817E+00 -0.17305294355E+02  0.10570308778E+03  0.00000000000E+00 0. -1.
        -13    1    3    3    0    0 -0.52893165810E+02  0.16510240771E+02 -0.45359982993E+02  0.71608680318E+02  0.00000000000E+00 0.  1.
         13    1    3    3    0    0  0.36300416720E+02 -0.76649558752E+01 -0.42453858039E+02  0.56380864351E+02  0.00000000000E+00 0. -1.
         21    1    1    2  503  501 -0.33941608168E+02 -0.14786271309E+02 -0.32236640764E+02  0.49090402239E+02  0.00000000000E+00 0.  1.
         -4    1    1    2    0  502 -0.32200614804E+02  0.36726206526E+01  0.48436555582E+02  0.58279221451E+02  0.00000000000E+00 0.  1.
<scales pt_clust_5="13000.00000" pt_clust_6="13000.00000" pt_clust_7="13000.00000" pt_clust_8="13000.00000" pt_clust_9="39.96200" pt_clust_10="32.40938"></scales>
<clustering>
<clus scale="   32.409">  1 10  2 -1</clus>
<clus scale="   39.962">  2  9  1 -1</clus>
<clus scale="   91.195">  7  8 -1 -1</clus>
<clus scale="   95.023">  5  6 -1 -1</clus>
<clus scale="  103.172">  2  7  1 -1</clus>
<clus scale="   32.409">  1  5  2 -1</clus>
</clustering>
</event>
<event>
10    2  0.3544405E-006  0.1505882E+03  0.7546771E-02  0.1218730E+00
         -4   -1    0    0    0  501 -0.00000000000E+00  0.00000000000E+00  0.11506746640E+03  0.11506746640E+03  0.00000000000E+00 0.  1.
         21   -1    0    0  503  502  0.00000000000E+00 -0.00000000000E+00 -0.70970935034E+03  0.70970935034E+03  0.00000000000E+00 0.  1.
         23    2    1    2    0    0 -0.99119200856E+02  0.85374817577E+01 -0.27999751022E+03  0.31193178679E+03  0.94896413565E+02 0.  0.
         23    2    1    2    0    0 -0.18899117361E+01 -0.52738777006E+02 -0.24717293415E+03  0.26976074161E+03  0.94294474774E+02 0.  0.
        -11    1    4    4    0    0  0.38790685677E+02 -0.24330693356E+02 -0.56434657624E+02  0.72674414450E+02  0.00000000000E+00 0.  1.
         11    1    4    4    0    0 -0.40680597413E+02 -0.28408083650E+02 -0.19073827653E+03  0.19708632716E+03  0.00000000000E+00 0. -1.
        -13    1    3    3    0    0  0.92557656939E+01 -0.20929000954E+02 -0.28909731592E+02  0.36870921608E+02  0.00000000000E+00 0.  1.
         13    1    3    3    0    0 -0.10837496655E+03  0.29466482712E+02 -0.25108777863E+03  0.27506086518E+03  0.00000000000E+00 0. -1.
         21    1    1    2  503  501  0.11950243240E+03 -0.16611207648E+01  0.38977988422E+02  0.12570948355E+03  0.00000000000E+00 0.  1.
         -4    1    1    2    0  502 -0.18493319812E+02  0.45862416013E+02 -0.10644942799E+03  0.11737480479E+03  0.00000000000E+00 0.  1.
<scales pt_clust_5="13000.00000" pt_clust_6="13000.00000" pt_clust_7="13000.00000" pt_clust_8="13000.00000" pt_clust_9="116.92509" pt_clust_10="49.45062"></scales>
<clustering>
<clus scale="   49.451">  2 10  1 -1</clus>
<clus scale="   94.294">  5  6 -1 -1</clus>
<clus scale="   94.896">  7  8 -1 -1</clus>
<clus scale="  100.360">  2  5  1 -1</clus>
<clus scale="  116.925">  1  9  2 -1</clus>
<clus scale="   49.451">  2  5  1 -1</clus>
</clustering>
</event>
<event>
10    2  0.3544405E-006  0.1605157E+03  0.7546771E-02  0.1188578E+00
         21   -1    0    0  501  502  0.00000000000E+00  0.00000000000E+00  0.42334295026E+03  0.42334295026E+03  0.00000000000E+00 0.  1.
          2   -1    0    0  503    0 -0.00000000000E+00 -0.00000000000E+00 -0.75306595937E+03  0.75306595937E+03  0.00000000000E+00 0. -1.
         23    2    1    2    0    0 -0.10922128625E+02 -0.13720792791E+03 -0.55395106849E+03  0.57811826271E+03  0.91725847095E+02 0.  0.
         23    2    1    2    0    0  0.67824748109E+02  0.16242098673E+03  0.65809955960E+02  0.20785361580E+03  0.88833562980E+02 0.  0.
        -11    1    3    3    0    0 -0.25787563021E+02 -0.58804957609E+02 -0.11269277750E+03  0.12970228813E+03  0.00000000000E+00 0.  1.
         11    1    3    3    0    0  0.14865434396E+02 -0.78402970305E+02 -0.44125829099E+03  0.44841597458E+03  0.00000000000E+00 0. -1.
        -13    1    4    4    0    0  0.34724723093E+02  0.71952654363E+02 -0.15987291717E+02  0.81477508308E+02  0.00000000000E+00 0. -1.
         13    1    4    4    0    0  0.33100025016E+02  0.90468332368E+02  0.81797247677E+02  0.12637610749E+03  0.00000000000E+00 0.  1.
         21    1    1    2  503  502 -0.77699813094E+02  0.48249578710E+02 -0.91345508270E+02  0.12926439835E+03  0.00000000000E+00 0.  1.
          2    1    1    2  501    0  0.20797193610E+02 -0.73462637527E+02  0.24976361170E+03  0.26117263276E+03  0.00000000000E+00 0. -1.
<scales pt_clust_5="13000.00000" pt_clust_6="13000.00000" pt_clust_7="13000.00000" pt_clust_8="13000.00000" pt_clust_9="85.28779" pt_clust_10="76.34974"></scales>
<clustering>
<clus scale="   76.350">  1 10  2 -1</clus>
<clus scale="   85.288">  2  9  1 -1</clus>
<clus scale="   88.834">  7  8 -1 -1</clus>
<clus scale="   91.726">  5  6 -1 -1</clus>
<clus scale="  158.881">  1  7  2 -1</clus>
<clus scale="   76.350">  1  5  2 -1</clus>
</clustering>
</event>
<event>
10    2  0.3544405E-006  0.9338173E+02  0.7546771E-02  0.1296551E+00
         21   -1    0    0  503  502  0.00000000000E+00  0.00000000000E+00  0.34229887815E+03  0.34229887815E+03  0.00000000000E+00 0.  1.
         -4   -1    0    0    0  501 -0.00000000000E+00 -0.00000000000E+00 -0.10508308492E+03  0.10508308492E+03  0.00000000000E+00 0.  1.
         23    2    1    2    0    0 -0.22416721829E+02 -0.20355861064E+02 -0.58525828409E+02  0.11272183175E+03  0.91455280142E+02 0.  0.
         23    2    1    2    0    0  0.12415064577E+01 -0.54696483675E+01  0.17684893926E+03  0.19784176434E+03  0.88511908833E+02 0.  0.
        -11    1    3    3    0    0 -0.53872617387E+02  0.11038528444E+01 -0.17281639666E+02  0.56587387859E+02  0.00000000000E+00 0. -1.
         11    1    3    3    0    0  0.31455895557E+02 -0.21459713909E+02 -0.41244188743E+02  0.56134443895E+02  0.00000000000E+00 0.  1.
        -11    1    4    4    0    0  0.44504807945E+02 -0.73099070201E+01  0.82277576612E+02  0.93828099651E+02  0.00000000000E+00 0.  1.
         11    1    4    4    0    0 -0.43263301487E+02  0.18402586527E+01  0.94571362651E+02  0.10401366469E+03  0.00000000000E+00 0. -1.
         21    1    1    2  503  501  0.23658574579E+02 -0.50415953500E+01  0.15126284155E+02  0.28529814355E+02  0.00000000000E+00 0. -1.
         -4    1    1    2    0  502 -0.24833592078E+01  0.30867104782E+02  0.10376639822E+03  0.10828855262E+03  0.00000000000E+00 0.  1.
<scales pt_clust_5="13000.00000" pt_clust_6="13000.00000" pt_clust_7="13000.00000" pt_clust_8="13000.00000" pt_clust_9="24.18979" pt_clust_10="30.81234"></scales>
<clustering>
<clus scale="   24.190">  2  9  1 -1</clus>
<clus scale="   30.812">  1 10  2 -1</clus>
<clus scale="   88.512">  7  8 -1 -1</clus>
<clus scale="   90.501">  1  7  2 -1</clus>
<clus scale="   91.455">  5  6 -1 -1</clus>
<clus scale="   30.812">  1  5  2 -1</clus>
</clustering>
</event>
<event>
10    2  0.3544405E-006  0.1051966E+03  0.7546771E-02  0.1276035E+00
         -3   -1    0    0    0  501 -0.00000000000E+00  0.00000000000E+00  0.25509683413E+03  0.25509683413E+03  0.00000000000E+00 0.  1.
         21   -1    0    0  503  502  0.00000000000E+00 -0.00000000000E+00 -0.15606645491E+03  0.15606645491E+03  0.00000000000E+00 0. -1.
         23    2    1    2    0    0 -0.24238591178E+02  0.51460444087E+01  0.15458295801E+03  0.18719810417E+03  0.10263161415E+03 0.  0.
         23    2    1    2    0    0  0.63076023114E+02 -0.12250277140E+02 -0.68369695264E+02  0.13020019610E+03  0.90271932800E+02 0.  0.
        -11    1    3    3    0    0  0.83004350730E+00  0.36310666317E+02  0.10705641274E+02  0.37865079106E+02  0.00000000000E+00 0. -1.
         11    1    3    3    0    0 -0.25068634685E+02 -0.31164621909E+02  0.14387731673E+03  0.14933302506E+03  0.00000000000E+00 0.  1.
        -13    1    4    4    0    0  0.44675554368E+02 -0.46173349892E+02 -0.17955419217E+02  0.66710422556E+02  0.00000000000E+00 0.  1.
         13    1    4    4    0    0  0.18400468746E+02  0.33923072752E+02 -0.50414276047E+02  0.63489773542E+02  0.00000000000E+00 0. -1.
         21    1    1    2  503  501  0.12083524057E+02 -0.16585975666E+02  0.28809148474E+02  0.35370512835E+02  0.00000000000E+00 0.  1.
         -3    1    1    2    0  502 -0.50920955993E+02  0.23690208397E+02 -0.15992031999E+02  0.58394475943E+02  0.00000000000E+00 0.  1.
<scales pt_clust_5="13000.00000" pt_clust_6="13000.00000" pt_clust_7="13000.00000" pt_clust_8="13000.00000" pt_clust_9="20.52087" pt_clust_10="54.46349"></scales>
<clustering>
<clus scale="   20.521">  1  9  2 -1</clus>
<clus scale="   54.463">  2 10  1 -1</clus>
<clus scale="   90.272">  7  8 -1 -1</clus>
<clus scale="   93.178">  2  7  1 -1</clus>
<clus scale="  102.632">  5  6 -1 -1</clus>
<clus scale="   54.463">  2  5  1 -1</clus>
</clustering>
</event>
<event>
10    2  0.3544405E-006  0.1072780E+03  0.7546771E-02  0.1274439E+00
         21   -1    0    0  503  502  0.00000000000E+00  0.00000000000E+00  0.18043993973E+03  0.18043993973E+03  0.00000000000E+00 0.  1.
         -3   -1    0    0    0  501 -0.00000000000E+00 -0.00000000000E+00 -0.38020308182E+03  0.38020308182E+03  0.00000000000E+00 0.  1.
         23    2    1    2    0    0  0.95402980038E+01 -0.65070234636E+01 -0.16998771978E+03  0.20046994478E+03  0.10563624020E+03 0.  0.
         23    2    1    2    0    0 -0.14071454355E+02  0.37845719053E+02 -0.95922230291E+02  0.13670523243E+03  0.88639393223E+02 0.  0.
        -11    1    4    4    0    0  0.46447762653E+01 -0.27168517589E+02 -0.15541640879E+02  0.31642454010E+02  0.00000000000E+00 0. -1.
         11    1    4    4    0    0 -0.18716230620E+02  0.65014236642E+02 -0.80380589412E+02  0.10506277842E+03  0.00000000000E+00 0.  1.
        -13    1    3    3    0    0  0.17305847803E+02  0.30143441574E+02 -0.10019561730E+02  0.36173347307E+02  0.00000000000E+00 0.  1.
         13    1    3    3    0    0 -0.77655497991E+01 -0.36650465038E+02 -0.15996815805E+03  0.16429659747E+03  0.00000000000E+00 0. -1.
         21    1    1    2  503  501  0.68329398357E+01  0.38954024712E+02 -0.64173249733E+02  0.75381105653E+02  0.00000000000E+00 0.  1.
         -3    1    1    2    0  502 -0.23017834847E+01 -0.70292720302E+02  0.13032005771E+03  0.14808673869E+03  0.00000000000E+00 0.  1.
<scales pt_clust_5="13000.00000" pt_clust_6="13000.00000" pt_clust_7="13000.00000" pt_clust_8="13000.00000" pt_clust_9="39.54877" pt_clust_10="69.21004"></scales>
<clustering>
<clus scale="   39.549">  2  9  1 -1</clus>
<clus scale="   69.210">  1 10  2 -1</clus>
<clus scale="   88.639">  5  6 -1 -1</clus>
<clus scale="   90.590">  1  5  2 -1</clus>
<clus scale="  105.636">  7  8 -1 -1</clus>
<clus scale="   69.210">  1  5  2 -1</clus>
</clustering>
</event>
<event>
10    2  0.3544405E-006  0.1123837E+03  0.7546771E-02  0.1260827E+00
          1   -1    0    0  503    0 -0.00000000000E+00  0.00000000000E+00  0.15318747771E+03  0.15318747771E+03  0.00000000000E+00 0. -1.
         21   -1    0    0  501  502  0.00000000000E+00 -0.00000000000E+00 -0.26115340922E+03  0.26115340922E+03  0.00000000000E+00 0. -1.
         23    2    1    2    0    0 -0.98426958038E+02 -0.39256717160E+02  0.63478643056E+01  0.13787132411E+03  0.87973011320E+02 0.  0.
         23    2    1    2    0    0  0.30119824524E+02  0.12332333445E+02 -0.59479274603E+02  0.10118735074E+03  0.75111953541E+02 0.  0.
        -11    1    4    4    0    0  0.75774136661E+01  0.43049012272E+02 -0.30038096671E+02  0.53036986218E+02  0.00000000000E+00 0.  1.
         11    1    4    4    0    0  0.22542410858E+02 -0.30716678827E+02 -0.29441177932E+02  0.48150364521E+02  0.00000000000E+00 0. -1.
        -11    1    3    3    0    0  0.17993243872E+00 -0.35185369621E+02 -0.12607868200E+02  0.37376475912E+02  0.00000000000E+00 0.  1.
         11    1    3    3    0    0 -0.98606890477E+02 -0.40713475388E+01  0.18955732505E+02  0.10049484820E+03  0.00000000000E+00 0. -1.
         21    1    1    2  503  502  0.10576047737E+02  0.20707303053E+02  0.50168021709E+02  0.55294444455E+02  0.00000000000E+00 0. -1.
          1    1    1    2  501    0  0.57731085777E+02  0.62170806620E+01 -0.10500254293E+03  0.11998776762E+03  0.00000000000E+00 0. -1.
<scales pt_clust_5="13000.00000" pt_clust_6="13000.00000" pt_clust_7="13000.00000" pt_clust_8="13000.00000" pt_clust_9="23.25178" pt_clust_10="59.03238"></scales>
<clustering>
<clus scale="   23.252">  1  9  2 -1</clus>
<clus scale="   59.032">  2 10  1 -1</clus>
<clus scale="   75.112">  5  6 -1 -1</clus>
<clus scale="   87.973">  7  8 -1 -1</clus>
<clus scale="  102.629">  2  5  1 -1</clus>
<clus scale="   59.032">  2  5  1 -1</clus>
</clustering>
</event>
<event>
10    2  0.3544405E-006  0.2248966E+03  0.7546771E-02  0.1149793E+00
         -3   -1    0    0    0  501 -0.00000000000E+00  0.00000000000E+00  0.68103445219E+03  0.68103445219E+03  0.00000000000E+00 0.  1.
         21   -1    0    0  503  502  0.00000000000E+00 -0.00000000000E+00 -0.83141636509E+03  0.83141636509E+03  0.00000000000E+00 0.  1.
         23    2    1    2    0    0  0.41191414064E+01 -0.10530432721E+03 -0.18513699597E+03  0.23191748997E+03  0.91673585193E+02 0.  0.
         23    2    1    2    0    0  0.71817058783E+02 -0.63111361280E+02  0.51393839077E+03  0.53095869193E+03  0.92971657901E+02 0.  0.
        -11    1    3    3    0    0  0.43964608867E+02 -0.71530927106E+02 -0.88008665759E+02  0.12163505093E+03  0.00000000000E+00 0.  1.
         11    1    3    3    0    0 -0.39845467460E+02 -0.33773400104E+02 -0.97128330207E+02  0.11028243904E+03  0.00000000000E+00 0. -1.
        -13    1    4    4    0    0  0.39868056154E+02 -0.81518235819E+02  0.42679764918E+03  0.43633807766E+03  0.00000000000E+00 0.  1.
         13    1    4    4    0    0  0.31949002629E+02  0.18406874539E+02  0.87140741584E+02  0.94620614260E+02  0.00000000000E+00 0. -1.
         21    1    1    2  503  501  0.16577367516E+01 -0.25477919848E+02  0.11601960180E+03  0.11879570907E+03  0.00000000000E+00 0. -1.
         -3    1    1    2    0  502 -0.77593936941E+02  0.19389360834E+03 -0.59520290950E+03  0.63077892631E+03  0.00000000000E+00 0.  1.
<scales pt_clust_5="13000.00000" pt_clust_6="13000.00000" pt_clust_7="13000.00000" pt_clust_8="13000.00000" pt_clust_9="25.53179" pt_clust_10="204.77971"></scales>
<clustering>
<clus scale="   25.532">  1  9  2 -1</clus>
<clus scale="   91.674">  5  6 -1 -1</clus>
<clus scale="   92.972">  7  8 -1 -1</clus>
<clus scale="  140.479">  1  5  2 -1</clus>
<clus scale="  204.780">  2 10  1 -1</clus>
<clus scale="  204.780">  2  5  1 -1</clus>
</clustering>
</event>
<event>
10    2  0.3544405E-006  0.1268908E+03  0.7546771E-02  0.1234575E+00
         21   -1    0    0  501  502  0.00000000000E+00  0.00000000000E+00  0.21217893642E+03  0.21217893642E+03  0.00000000000E+00 0. -1.
          2   -1    0    0  503    0 -0.00000000000E+00 -0.00000000000E+00 -0.36074657143E+03  0.36074657143E+03  0.00000000000E+00 0. -1.
         23    2    1    2    0    0 -0.45268426495E+01 -0.66055947424E+02 -0.63107087488E+02  0.13419357425E+03  0.98191294856E+02 0.  0.
         23    2    1    2    0    0  0.12409640594E+03  0.57739796245E+02 -0.51484965319E+02  0.17174389466E+03  0.90063653391E+02 0.  0.
        -13    1    3    3    0    0 -0.38234282617E+02 -0.61710208177E+02 -0.68465361133E+02  0.99787353084E+02  0.00000000000E+00 0. -1.
         13    1    3    3    0    0  0.33707439968E+02 -0.43457392473E+01  0.53582736447E+01  0.34406221170E+02  0.00000000000E+00 0.  1.
        -13    1    4    4    0    0  0.23485040183E+02  0.69242851373E+01  0.25418076663E+02  0.35292654452E+02  0.00000000000E+00 0.  1.
         13    1    4    4    0    0  0.10061136576E+03  0.50815511108E+02 -0.76903041982E+02  0.13645124021E+03  0.00000000000E+00 0. -1.
         21    1    1    2  503  502 -0.50905312774E+02  0.59097313257E+02 -0.12170515722E+03  0.14455444855E+03  0.00000000000E+00 0. -1.
          2    1    1    2  501    0 -0.68664250518E+02 -0.50781162078E+02  0.87729575011E+02  0.12243359038E+03  0.00000000000E+00 0. -1.
<scales pt_clust_5="13000.00000" pt_clust_6="13000.00000" pt_clust_7="13000.00000" pt_clust_8="13000.00000" pt_clust_9="77.99900" pt_clust_10="86.04786"></scales>
<clustering>
<clus scale="   77.999">  2  9  1 -1</clus>
<clus scale="   86.048">  1 10  2 -1</clus>
<clus scale="   90.064">  7  8 -1 -1</clus>
<clus scale="   98.191">  5  6 -1 -1</clus>
<clus scale="  120.711">  1  7  2 -1</clus>
<clus scale="   86.048">  1  5  2 -1</clus>
</clustering>
</event>
<event>
10    2  0.3544405E-006  0.2081129E+03  0.7546771E-02  0.1143131E+00
         -1   -1    0    0    0  501 -0.00000000000E+00  0.00000000000E+00  0.14212886049E+03  0.14212886049E+03  0.00000000000E+00 0.  1.
         21   -1    0    0  503  502  0.00000000000E+00 -0.00000000000E+00 -0.69620554542E+03  0.69620554542E+03  0.00000000000E+00 0. -1.
         23    2    1    2    0    0  0.18297695785E+03  0.91417120378E+02 -0.13746676596E+03  0.26291895365E+03  0.91605717311E+02 0.  0.
         23    2    1    2    0    0 -0.16094543117E+03 -0.36348074670E+02 -0.39089655598E+03  0.43392110171E+03  0.90899893747E+02 0.  0.
        -11    1    3    3    0    0  0.13048156277E+03  0.23544331142E+02 -0.53841267847E+02  0.14310365430E+03  0.00000000000E+00 0.  1.
         11    1    3    3    0    0  0.52495395079E+02  0.67872789235E+02 -0.83625498118E+02  0.11981529935E+03  0.00000000000E+00 0. -1.
        -11    1    4    4    0    0 -0.67222701301E+02  0.17258137349E+02 -0.22930326820E+03  0.23957613338E+03  0.00000000000E+00 0. -1.
         11    1    4    4    0    0 -0.93722729866E+02 -0.53606212019E+02 -0.16159328778E+03  0.19434496833E+03  0.00000000000E+00 0.  1.
         21    1    1    2  503  501  0.63288990182E-02 -0.28255443330E+02  0.50434227126E+02  0.57809872718E+02  0.00000000000E+00 0.  1.
         -1    1    1    2    0  502 -0.22037855578E+02 -0.26813602377E+02 -0.76147590110E+02  0.83684477835E+02  0.00000000000E+00 0.  1.
<scales pt_clust_5="13000.00000" pt_clust_6="13000.00000" pt_clust_7="13000.00000" pt_clust_8="13000.00000" pt_clust_9="28.25544" pt_clust_10="35.65069"></scales>
<clustering>
<clus scale="   28.255">  1  9  2 -1</clus>
<clus scale="   35.651">  2 10  1 -1</clus>
<clus scale="   90.900">  7  8 -1 -1</clus>
<clus scale="   91.606">  5  6 -1 -1</clus>
<clus scale="  207.803">  2  7  1 -1</clus>
<clus scale="   35.651">  2  5  1 -1</clus>
</clustering>
</event>
<event>
10    2  0.3544405E-006  0.1089730E+03  0.7546771E-02  0.1263076E+00
         -1   -1    0    0    0  501 -0.00000000000E+00  0.00000000000E+00  0.32951977369E+03  0.32951977369E+03  0.00000000000E+00 0.  1.
         21   -1    0    0  503  502  0.00000000000E+00 -0.00000000000E+00 -0.13693442481E+03  0.13693442481E+03  0.00000000000E+00 0.  1.
         23    2    1    2    0    0  0.24630421880E+02  0.62429890170E+02  0.10016213792E+03  0.15034888418E+03  0.89823071824E+02 0.  0.
         23    2    1    2    0    0 -0.90770984207E+01 -0.51878119790E+02  0.98658068263E+02  0.14438732228E+03  0.91326619199E+02 0.  0.
        -11    1    4    4    0    0 -0.45813647635E+02 -0.22641147325E+02  0.24636960484E+02  0.56731751988E+02  0.00000000000E+00 0. -1.
         11    1    4    4    0    0  0.36736549214E+02 -0.29236972464E+02  0.74021107779E+02  0.87655570296E+02  0.00000000000E+00 0.  1.
        -13    1    3    3    0    0  0.51633775978E+02  0.96056581368E+01  0.52354709450E+02  0.74157474954E+02  0.00000000000E+00 0.  1.
         13    1    3    3    0    0 -0.27003354098E+02  0.52824232033E+02  0.47807428473E+02  0.76191409224E+02  0.00000000000E+00 0. -1.
         21    1    1    2  503  501  0.12087100143E+02 -0.20148854722E+02  0.78569748050E+02  0.82007802342E+02  0.00000000000E+00 0. -1.
         -1    1    1    2    0  502 -0.27640423602E+02  0.95970843416E+01 -0.84804605354E+02  0.89710189689E+02  0.00000000000E+00 0.  1.
<scales pt_clust_5="13000.00000" pt_clust_6="13000.00000" pt_clust_7="13000.00000" pt_clust_8="13000.00000" pt_clust_9="23.49626" pt_clust_10="29.08210"></scales>
<clustering>
<clus scale="   23.496">  1  9  2 -1</clus>
<clus scale="   29.082">  2 10  1 -1</clus>
<clus scale="   89.823">  7  8 -1 -1</clus>
<clus scale="   91.327">  5  6 -1 -1</clus>
<clus scale="  107.716">  1  7  2 -1</clus>
<clus scale="   29.082">  2  5  1 -1</clus>
</clustering>
</event>
<event>
10    2  0.3544405E-006  0.2581134E+03  0.7546771E-02  0.1108350E+00
         21   -1    0    0  501  502  0.00000000000E+00  0.00000000000E+00  0.24458664230E+03  0.24458664230E+03  0.00000000000E+00 0. -1.
          2   -1    0    0  503    0 -0.00000000000E+00 -0.00000000000E+00 -0.34910466614E+03  0.34910466614E+03  0.00000000000E+00 0. -1.
         23    2    1    2    0    0  0.66459211287E+02  0.22496251648E+03 -0.12160157580E+03  0.27985136102E+03  0.92221908674E+02 0.  0.
         23    2    1    2    0    0 -0.94055303332E+02 -0.21945674052E+03  0.39386108129E+02  0.25852344740E+03  0.90969480026E+02 0.  0.
        -13    1    3    3    0    0  0.22985830370E+02  0.15862751678E+03 -0.38227827481E+02  0.16477986610E+03  0.00000000000E+00 0. -1.
         13    1    3    3    0    0  0.43473380916E+02  0.66334999703E+02 -0.83373748323E+02  0.11507149492E+03  0.00000000000E+00 0.  1.
        -13    1    4    4    0    0 -0.98998790499E+02 -0.18898428797E+03  0.59735030125E+02  0.22154930702E+03  0.00000000000E+00 0. -1.
         13    1    4    4    0    0  0.49434871675E+01 -0.30472452558E+02 -0.20348921996E+02  0.36974140378E+02  0.00000000000E+00 0.  1.
         21    1    1    2  503  502  0.13477679069E+02  0.18066040917E+02 -0.14320420605E+02  0.26704009321E+02  0.00000000000E+00 0.  1.
          2    1    1    2  501    0  0.14118412975E+02 -0.23571816878E+02 -0.79821355570E+01  0.28612490698E+02  0.00000000000E+00 0. -1.
<scales pt_clust_5="13000.00000" pt_clust_6="13000.00000" pt_clust_7="13000.00000" pt_clust_8="13000.00000" pt_clust_9="22.53951" pt_clust_10="27.02409"></scales>
<clustering>
<clus scale="   22.540">  2  9  1 -1</clus>
<clus scale="   27.024">  1 10  2 -1</clus>
<clus scale="   90.969">  7  8 -1 -1</clus>
<clus scale="   92.222">  5  6 -1 -1</clus>
<clus scale="  257.669">  1  7  2 -1</clus>
<clus scale="   27.024">  1  5  2 -1</clus>
</clustering>
</event>
<event>
10    2  0.3544405E-006  0.2355037E+03  0.7546771E-02  0.1122900E+00
          2   -1    0    0  503    0 -0.00000000000E+00  0.00000000000E+00  0.13976670769E+04  0.13976670769E+04  0.00000000000E+00 0. -1.
         21   -1    0    0  501  502  0.00000000000E+00 -0.00000000000E+00 -0.76669296135E+02  0.76669296135E+02  0.00000000000E+00 0. -1.
         23    2    1    2    0    0  0.12742982345E+03  0.18757064682E+03  0.40316526860E+03  0.47162023490E+03  0.91990786027E+02 0.  0.
         23    2    1    2    0    0 -0.19470507649E+03 -0.10144625414E+03  0.44636505185E+03  0.50566686396E+03  0.90861479770E+02 0.  0.
        -11    1    3    3    0    0  0.58970107676E+01  0.64210162699E+02  0.64248779428E+02  0.91025410671E+02  0.00000000000E+00 0. -1.
         11    1    3    3    0    0  0.12153281268E+03  0.12336048412E+03  0.33891648917E+03  0.38059482423E+03  0.00000000000E+00 0.  1.
        -13    1    4    4    0    0 -0.77374091209E+02 -0.82139298250E+02  0.27338946244E+03  0.29576242575E+03  0.00000000000E+00 0.  1.
         13    1    4    4    0    0 -0.11733098528E+03 -0.19306955887E+02  0.17297558941E+03  0.20990443822E+03  0.00000000000E+00 0. -1.
         21    1    1    2  503  502 -0.27140063142E+02 -0.12182451569E+02  0.17038210851E+03  0.17295970066E+03  0.00000000000E+00 0. -1.
          2    1    1    2  501    0  0.94415316178E+02 -0.73941941108E+02  0.30108535181E+03  0.32408957351E+03  0.00000000000E+00 0. -1.
<scales pt_clust_5="13000.00000" pt_clust_6="13000.00000" pt_clust_7="13000.00000" pt_clust_8="13000.00000" pt_clust_9="29.74887" pt_clust_10="116.58423"></scales>
<clustering>
<clus scale="   29.749">  1  9  2 -1</clus>
<clus scale="   90.861">  7  8 -1 -1</clus>
<clus scale="   91.991">  5  6 -1 -1</clus>
<clus scale="  116.584">  2 10  1 -1</clus>
<clus scale="  235.065">  2  7  1 -1</clus>
<clus scale="  116.584">  2  5  1 -1</clus>
</clustering>
</event>
<event>
10    2  0.3544405E-006  0.1501844E+03  0.7546771E-02  0.1202401E+00
         21   -1    0    0  501  502  0.00000000000E+00  0.00000000000E+00  0.25052241954E+03  0.25052241954E+03  0.00000000000E+00 0. -1.
          2   -1    0    0  503    0 -0.00000000000E+00 -0.00000000000E+00 -0.41008510391E+03  0.41008510391E+03  0.00000000000E+00 0. -1.
         23    2    1    2    0    0 -0.10590758794E+03  0.97651991665E+02 -0.26037424277E+03  0.31590350561E+03  0.10605635248E+03 0.  0.
         23    2    1    2    0    0  0.61557813051E+02  0.69713160771E+01  0.63538919217E+00  0.11434854624E+03  0.96110471399E+02 0.  0.
        -13    1    3    3    0    0 -0.49975993283E+02  0.20217165662E+02 -0.20442602801E+02  0.57656167938E+02  0.00000000000E+00 0.  1.
         13    1    3    3    0    0 -0.55931594660E+02  0.77434826004E+02 -0.23993163996E+03  0.25824733767E+03  0.00000000000E+00 0. -1.
        -13    1    4    4    0    0 -0.19077359298E+02 -0.21565351355E+02 -0.73160785536E+00  0.28801827492E+02  0.00000000000E+00 0.  1.
         13    1    4    4    0    0  0.80635172349E+02  0.28536667432E+02  0.13669970475E+01  0.85546718749E+02  0.00000000000E+00 0. -1.
         21    1    1    2  503  502 -0.35976080325E+01 -0.26386789020E+02 -0.48680786729E+02  0.55488957594E+02  0.00000000000E+00 0. -1.
          2    1    1    2  501    0  0.47947382925E+02 -0.78236518723E+02  0.14885695593E+03  0.17486651400E+03  0.00000000000E+00 0. -1.
<scales pt_clust_5="13000.00000" pt_clust_6="13000.00000" pt_clust_7="13000.00000" pt_clust_8="13000.00000" pt_clust_9="26.63091" pt_clust_10="92.51104"></scales>
<clustering>
<clus scale="   26.631">  2  9  1 -1</clus>
<clus scale="   92.511">  1 10  2 -1</clus>
<clus scale="   96.110">  7  8 -1 -1</clus>
<clus scale="  106.056">  5  6 -1 -1</clus>
<clus scale="  143.334">  1  7  2 -1</clus>
<clus scale="   92.511">  1  5  2 -1</clus>
</clustering>
</event>
<event>
10    2  0.3544405E-006  0.2655518E+03  0.7546771E-02  0.1142289E+00
         21   -1    0    0  501  502  0.00000000000E+00  0.00000000000E+00  0.23413081838E+03  0.23413081838E+03  0.00000000000E+00 0. -1.
          3   -1    0    0  503    0 -0.00000000000E+00 -0.00000000000E+00 -0.57071401651E+03  0.57071401651E+03  0.00000000000E+00 0. -1.
         23    2    1    2    0    0 -0.63491843856E+00 -0.53925697814E+02  0.81646072302E+01  0.10549754789E+03  0.90303309976E+02 0.  0.
         23    2    1    2    0    0 -0.23326367678E+03  0.54662684029E+02 -0.16962216638E+03  0.30766289405E+03  0.92113110434E+02 0.  0.
        -11    1    4    4    0    0 -0.19586441518E+02  0.33208342277E+02 -0.92788620666E+01  0.39655011907E+02  0.00000000000E+00 0.  1.
         11    1    4    4    0    0 -0.21367723527E+03  0.21454341753E+02 -0.16034330431E+03  0.26800788214E+03  0.00000000000E+00 0. -1.
        -13    1    3    3    0    0 -0.42215355225E+02 -0.46523714636E+02  0.74025318373E+01  0.63256538934E+02  0.00000000000E+00 0. -1.
         13    1    3    3    0    0  0.41580436787E+02 -0.74019831777E+01  0.76207539290E+00  0.42241008951E+02  0.00000000000E+00 0.  1.
         21    1    1    2  503  502 -0.14483383846E+02  0.59198510844E+02 -0.11353013070E+03  0.12885388108E+03  0.00000000000E+00 0. -1.
          3    1    1    2  501    0  0.24838197907E+03 -0.59935497059E+02 -0.61595508277E+02  0.26283051188E+03  0.00000000000E+00 0. -1.
<scales pt_clust_5="13000.00000" pt_clust_6="13000.00000" pt_clust_7="13000.00000" pt_clust_8="13000.00000" pt_clust_9="60.94450" pt_clust_10="249.06413"></scales>
<clustering>
<clus scale="   60.945">  2  9  1 -1</clus>
<clus scale="   90.303">  7  8 -1 -1</clus>
<clus scale="   92.113">  5  6 -1 -1</clus>
<clus scale="  102.066">  2  7  1 -1</clus>
<clus scale="  249.064">  1 10  2 -1</clus>
<clus scale="  249.064">  1  5  2 -1</clus>
</clustering>
</event>
<event>
10    2  0.3544405E-006  0.1533256E+03  0.7546771E-02  0.1198420E+00
         21   -1    0    0  501  502  0.00000000000E+00  0.00000000000E+00  0.21177235580E+03  0.21177235580E+03  0.00000000000E+00 0.  1.
          2   -1    0    0  503    0 -0.00000000000E+00 -0.00000000000E+00 -0.30859875289E+03  0.30859875289E+03  0.00000000000E+00 0. -1.
         23    2    1    2    0    0  0.11736197617E+03  0.35443022321E+02 -0.15333643151E+03  0.21975622926E+03  0.98745621618E+02 0.  0.
         23    2    1    2    0    0 -0.14630413363E+03  0.98583940885E+01  0.53104681837E+01  0.17128856684E+03  0.88371288364E+02 0.  0.
        -13    1    3    3    0    0  0.45226178400E+02 -0.26337353215E+02 -0.94523694777E+02  0.10804532503E+03  0.00000000000E+00 0.  1.
         13    1    3    3    0    0  0.72135797773E+02  0.61780375537E+02 -0.58812736734E+02  0.11171090423E+03  0.00000000000E+00 0. -1.
        -13    1    4    4    0    0 -0.40961492269E+02  0.73138853572E+01  0.42564376855E+02  0.59523633500E+02  0.00000000000E+00 0. -1.
         13    1    4    4    0    0 -0.10534264136E+03  0.25445087312E+01 -0.37253908672E+02  0.11176493334E+03  0.00000000000E+00 0.  1.
         21    1    1    2  503  502 -0.20764207142E+02 -0.21789200275E+02 -0.22353740866E+02  0.37491482734E+02  0.00000000000E+00 0.  1.
          2    1    1    2  501    0  0.49706364597E+02 -0.23512216134E+02  0.73553307097E+02  0.91834829852E+02  0.00000000000E+00 0. -1.
<scales pt_clust_5="13000.00000" pt_clust_6="13000.00000" pt_clust_7="13000.00000" pt_clust_8="13000.00000" pt_clust_9="30.09853" pt_clust_10="54.68475"></scales>
<clustering>
<clus scale="   30.099">  2  9  1 -1</clus>
<clus scale="   54.685">  1 10  2 -1</clus>
<clus scale="   88.371">  7  8 -1 -1</clus>
<clus scale="   98.746">  5  6 -1 -1</clus>
<clus scale="  146.859">  1  7  2 -1</clus>
<clus scale="   54.685">  1  5  2 -1</clus>
</clustering>
</event>
<event>
10    2  0.3544405E-006  0.2517681E+03  0.7546771E-02  0.1112220E+00
         21   -1    0    0  501  502  0.00000000000E+00  0.00000000000E+00  0.73270706087E+03  0.73270706087E+03  0.00000000000E+00 0. -1.
          2   -1    0    0  503    0 -0.00000000000E+00 -0.00000000000E+00 -0.35781612391E+03  0.35781612391E+03  0.00000000000E+00 0. -1.
         23    2    1    2    0    0 -0.25557157423E+03  0.22540097874E+02 -0.22060167489E+03  0.35092839781E+03  0.93063182089E+02 0.  0.
         23    2    1    2    0    0  0.15830825445E+03  0.25794097525E+02  0.51069600982E+03  0.54324032952E+03  0.92589428516E+02 0.  0.
        -11    1    3    3    0    0 -0.19627209313E+03  0.39090698596E+02 -0.20690981664E+03  0.28785845390E+03  0.00000000000E+00 0. -1.
         11    1    3    3    0    0 -0.59299481098E+02 -0.16550600722E+02 -0.13691858247E+02  0.63069943912E+02  0.00000000000E+00 0.  1.
        -13    1    4    4    0    0  0.47416342172E+02 -0.10479662764E+02  0.28564436575E+03  0.28974270745E+03  0.00000000000E+00 0.  1.
         13    1    4    4    0    0  0.11089191228E+03  0.36273760288E+02  0.22505164407E+03  0.25349762207E+03  0.00000000000E+00 0. -1.
         21    1    1    2  503  502  0.14401312892E+02 -0.14958290103E+02 -0.38710151535E+02  0.43927486699E+02  0.00000000000E+00 0. -1.
          2    1    1    2  501    0  0.82862006885E+02 -0.33375905296E+02  0.12350675356E+03  0.15242697076E+03  0.00000000000E+00 0. -1.
<scales pt_clust_5="13000.00000" pt_clust_6="13000.00000" pt_clust_7="13000.00000" pt_clust_8="13000.00000" pt_clust_9="20.76411" pt_clust_10="90.19769"></scales>
<clustering>
<clus scale="   20.764">  2  9  1 -1</clus>
<clus scale="   90.198">  1 10  2 -1</clus>
<clus scale="   92.589">  7  8 -1 -1</clus>
<clus scale="   93.063">  5  6 -1 -1</clus>
<clus scale="  251.593">  1  7  2 -1</clus>
<clus scale="   90.198">  1  5  2 -1</clus>
</clustering>
</event>
<event>
10    2  0.3544405E-006  0.9872815E+02  0.7546771E-02  0.1283742E+00
         -1   -1    0    0    0  501 -0.00000000000E+00  0.00000000000E+00  0.21892188520E+03  0.21892188520E+03  0.00000000000E+00 0.  1.
         21   -1    0    0  503  502  0.00000000000E+00 -0.00000000000E+00 -0.29899804788E+03  0.29899804788E+03  0.00000000000E+00 0.  1.
         23    2    1    2    0    0  0.52600044690E+01  0.61199376599E+02  0.12344019567E+03  0.16402770084E+03  0.88851411879E+02 0.  0.
         23    2    1    2    0    0  0.17013032983E+02  0.58547479659E+00 -0.14723481317E+02  0.93131298096E+02  0.90370745881E+02 0.  0.
        -11    1    3    3    0    0  0.10746344464E+02 -0.19353555776E+02  0.88285945623E+01  0.23832501389E+02  0.00000000000E+00 0. -1.
         11    1    3    3    0    0 -0.54863399950E+01  0.80552932375E+02  0.11461160111E+03  0.14019519945E+03  0.00000000000E+00 0.  1.
        -11    1    4    4    0    0  0.48448862668E+00 -0.43131784706E+02 -0.16939119911E+02  0.46341335377E+02  0.00000000000E+00 0. -1.
         11    1    4    4    0    0  0.16528544356E+02  0.43717259502E+02  0.22156385942E+01  0.46789962720E+02  0.00000000000E+00 0.  1.
         21    1    1    2  503  501 -0.57167041943E+02 -0.11808669449E+02  0.40503246765E+01  0.58514275939E+02  0.00000000000E+00 0.  1.
         -1    1    1    2    0  502  0.34894004491E+02 -0.49976181947E+02 -0.19284320171E+03  0.20224665821E+03  0.00000000000E+00 0.  1.
<scales pt_clust_5="13000.00000" pt_clust_6="13000.00000" pt_clust_7="13000.00000" pt_clust_8="13000.00000" pt_clust_9="58.37393" pt_clust_10="60.39004"></scales>
<clustering>
<clus scale="   58.374">  1  9  2 -1</clus>
<clus scale="   60.390">  2 10  1 -1</clus>
<clus scale="   88.851">  5  6 -1 -1</clus>
<clus scale="   90.371">  7  8 -1 -1</clus>
<clus scale="   97.339">  1  5  2 -1</clus>
<clus scale="   60.390">  2  5  1 -1</clus>
</clustering>
</event>
<event>
10    2  0.3544405E-006  0.1194338E+03  0.7546771E-02  0.1246229E+00
         21   -1    0    0  501  502  0.00000000000E+00  0.00000000000E+00  0.14582102419E+03  0.14582102419E+03  0.00000000000E+00 0. -1.
          1   -1    0    0  503    0 -0.00000000000E+00 -0.00000000000E+00 -0.39057211294E+03  0.39057211294E+03  0.00000000000E+00 0. -1.
         23    2    1    2    0    0  0.10239028500E+03 -0.47839593660E+02 -0.18687829159E+02  0.14609332905E+03  0.90673196976E+02 0.  0.
         23    2    1    2    0    0 -0.32835780073E+02  0.13525756312E+02  0.27890556143E+02  0.10708705771E+03  0.97101082745E+02 0.  0.
        -11    1    3    3    0    0  0.93883543538E+02 -0.24831588707E+02 -0.47622212337E+02  0.10816007883E+03  0.00000000000E+00 0. -1.
         11    1    3    3    0    0  0.85067414657E+01 -0.23008004953E+02  0.28934383178E+02  0.37933250219E+02  0.00000000000E+00 0.  1.
        -11    1    4    4    0    0 -0.56952474607E+02  0.31209283179E+02 -0.17701954104E+01  0.64967201819E+02  0.00000000000E+00 0.  1.
         11    1    4    4    0    0  0.24116694533E+02 -0.17683526867E+02  0.29660751553E+02  0.42119855892E+02  0.00000000000E+00 0. -1.
         21    1    1    2  503  502 -0.67066092795E+02 -0.17420924208E+01 -0.23065112835E+03  0.24020998876E+03  0.00000000000E+00 0. -1.
          1    1    1    2  501    0 -0.24884121358E+01  0.36055929770E+02 -0.23302687388E+02  0.43002761609E+02  0.00000000000E+00 0. -1.
<scales pt_clust_5="13000.00000" pt_clust_6="13000.00000" pt_clust_7="13000.00000" pt_clust_8="13000.00000" pt_clust_9="67.15524" pt_clust_10="36.14172"></scales>
<clustering>
<clus scale="   36.142">  1 10  2 -1</clus>
<clus scale="   67.155">  2  9  1 -1</clus>
<clus scale="   90.673">  5  6 -1 -1</clus>
<clus scale="   97.101">  7  8 -1 -1</clus>
<clus scale="  114.269">  2  5  1 -1</clus>
<clus scale="   36.142">  1  5  2 -1</clus>
</clustering>
</event>
<event>
10    2  0.3544405E-006  0.9223455E+02  0.7546771E-02  0.1298481E+00
         -2   -1    0    0    0  501 -0.00000000000E+00  0.00000000000E+00  0.57066180761E+03  0.57066180761E+03  0.00000000000E+00 0.  1.
         21   -1    0    0  503  502  0.00000000000E+00 -0.00000000000E+00 -0.14246767168E+03  0.14246767168E+03  0.00000000000E+00 0.  1.
         23    2    1    2    0    0 -0.37396686372E+02 -0.79342626313E+01  0.14181484996E+03  0.17233763295E+03  0.90151779723E+02 0.  0.
         23    2    1    2    0    0  0.34560541427E+01 -0.63186697957E+01  0.67203364053E+02  0.11397373954E+03  0.91770644908E+02 0.  0.
        -11    1    3    3    0    0 -0.65503436820E+01 -0.43897723633E+02  0.98936790920E+02  0.10843618280E+03  0.00000000000E+00 0. -1.
         11    1    3    3    0    0 -0.30846342690E+02  0.35963461002E+02  0.42878059042E+02  0.63901450154E+02  0.00000000000E+00 0.  1.
        -13    1    4    4    0    0  0.38266691684E+02  0.21151423701E+01  0.68101318018E+02  0.78144756929E+02  0.00000000000E+00 0.  1.
         13    1    4    4    0    0 -0.34810637541E+02 -0.84338121657E+01 -0.89795396554E+00  0.35828982612E+02  0.00000000000E+00 0. -1.
         21    1    1    2  503  501  0.61188944875E+02  0.10218760177E+02  0.31811946836E+03  0.32411187294E+03  0.00000000000E+00 0.  1.
         -2    1    1    2    0  502 -0.27248312645E+02  0.40341722502E+01 -0.98943546451E+02  0.10270623385E+03  0.00000000000E+00 0.  1.
<scales pt_clust_5="13000.00000" pt_clust_6="13000.00000" pt_clust_7="13000.00000" pt_clust_8="13000.00000" pt_clust_9="60.15352" pt_clust_10="27.54533"></scales>
<clustering>
<clus scale="   27.545">  2 10  1 -1</clus>
<clus scale="   60.154">  1  9  2 -1</clus>
<clus scale="   90.152">  5  6 -1 -1</clus>
<clus scale="   90.624">  1  5  2 -1</clus>
<clus scale="   91.771">  7  8 -1 -1</clus>
<clus scale="   27.545">  2  5  1 -1</clus>
</clustering>
</event>
<event>
10    2  0.3544405E-006  0.1052509E+03  0.7546771E-02  0.1270563E+00
         -4   -1    0    0    0  501 -0.00000000000E+00  0.00000000000E+00  0.61882005761E+03  0.61882005761E+03  0.00000000000E+00 0.  1.
         21   -1    0    0  503  502  0.00000000000E+00 -0.00000000000E+00 -0.33251610718E+03  0.33251610718E+03  0.00000000000E+00 0.  1.
         23    2    1    2    0    0  0.10683235348E+01 -0.22663239018E+02  0.36082291466E+03  0.37285200508E+03  0.91162921373E+02 0.  0.
         23    2    1    2    0    0  0.12387913831E+02  0.27960209465E+02 -0.77187698777E-01  0.98184210037E+02  0.93300050483E+02 0.  0.
        -11    1    4    4    0    0 -0.20064615192E+02  0.38423977616E+02 -0.30083384312E+02  0.52763631891E+02  0.00000000000E+00 0.  1.
         11    1    4    4    0    0  0.32452529024E+02 -0.10463768151E+02  0.30006196613E+02  0.45420578146E+02  0.00000000000E+00 0. -1.
        -13    1    3    3    0    0 -0.46766021323E+01  0.32302235678E+02  0.75922852936E+02  0.82641301026E+02  0.00000000000E+00 0. -1.
         13    1    3    3    0    0  0.57449256671E+01 -0.54965474696E+02  0.28490006172E+03  0.29021070405E+03  0.00000000000E+00 0.  1.
         21    1    1    2  503  501  0.12116881247E+02 -0.34506839112E+02  0.19990347611E+03  0.20322140763E+03  0.00000000000E+00 0.  1.
         -4    1    1    2    0  502 -0.25573118613E+02  0.29209868665E+02 -0.27434525264E+03  0.27707854206E+03  0.00000000000E+00 0.  1.
<scales pt_clust_5="13000.00000" pt_clust_6="13000.00000" pt_clust_7="13000.00000" pt_clust_8="13000.00000" pt_clust_9="36.57240" pt_clust_10="38.71153"></scales>
<clustering>
<clus scale="   36.572">  1  9  2 -1</clus>
<clus scale="   38.712">  2 10  1 -1</clus>
<clus scale="   91.163">  7  8 -1 -1</clus>
<clus scale="   93.300">  5  6 -1 -1</clus>
<clus scale="  103.361">  1  7  2 -1</clus>
<clus scale="   38.712">  2  5  1 -1</clus>
</clustering>
</event>
<event>
10    2  0.3544405E-006  0.1061248E+03  0.7546771E-02  0.1268824E+00
          2   -1    0    0  503    0 -0.00000000000E+00  0.00000000000E+00  0.11728180528E+04  0.11728180528E+04  0.00000000000E+00 0. -1.
         21   -1    0    0  501  502  0.00000000000E+00 -0.00000000000E+00 -0.57300587928E+02  0.57300587928E+02  0.00000000000E+00 0. -1.
         23    2    1    2    0    0  0.15223064199E+02  0.47718810903E+02  0.49672906013E+03  0.50709400327E+03  0.88857989976E+02 0.  0.
         23    2    1    2    0    0  0.50459241250E+02 -0.56867201133E+02  0.56404594248E+03  0.57637839705E+03  0.91017678330E+02 0.  0.
        -11    1    3    3    0    0 -0.34566821632E+02  0.10351274823E+02  0.12181964667E+03  0.12705132964E+03  0.00000000000E+00 0.  1.
         11    1    3    3    0    0  0.49789885831E+02  0.37367536079E+02  0.37490941346E+03  0.38004267363E+03  0.00000000000E+00 0. -1.
        -13    1    4    4    0    0  0.76300965342E+02 -0.48085643242E+02  0.46355245885E+03  0.47224458547E+03  0.00000000000E+00 0. -1.
         13    1    4    4    0    0 -0.25841724092E+02 -0.87815578915E+01  0.10049348363E+03  0.10413381158E+03  0.00000000000E+00 0.  1.
         21    1    1    2  503  502 -0.23646987333E+02  0.71216048686E+01  0.89011731338E+02  0.92374160790E+02  0.00000000000E+00 0.  1.
          2    1    1    2  501    0 -0.42035318115E+02  0.20267853619E+01 -0.34269269044E+02  0.54272079643E+02  0.00000000000E+00 0. -1.
<scales pt_clust_5="13000.00000" pt_clust_6="13000.00000" pt_clust_7="13000.00000" pt_clust_8="13000.00000" pt_clust_9="24.69610" pt_clust_10="42.30566"></scales>
<clustering>
<clus scale="   24.696">  1  9  2 -1</clus>
<clus scale="   42.306">  2 10  1 -1</clus>
<clus scale="   88.858">  5  6 -1 -1</clus>
<clus scale="   91.018">  7  8 -1 -1</clus>
<clus scale="  104.279">  1  5  2 -1</clus>
<clus scale="   42.306">  2  5  1 -1</clus>
</clustering>
</event>
<event>
10    2  0.3544405E-006  0.2000306E+03  0.7546771E-02  0.1150083E+00
          2   -1    0    0  503    0 -0.00000000000E+00  0.00000000000E+00  0.91995864149E+02  0.91995864149E+02  0.00000000000E+00 0. -1.
         21   -1    0    0  501  502  0.00000000000E+00 -0.00000000000E+00 -0.62993124993E+03  0.62993124993E+03  0.00000000000E+00 0.  1.
         23    2    1    2    0    0 -0.14899904911E+02 -0.17168434970E+03 -0.21193503221E+03  0.28859753767E+03  0.93137306033E+02 0.  0.
         23    2    1    2    0    0  0.32430723200E+02  0.18273682890E+03 -0.23365814268E+03  0.31148135268E+03  0.89330873613E+02 0.  0.
        -11    1    4    4    0    0 -0.10742014378E+02  0.15339023963E+03 -0.17363220544E+03  0.23193123820E+03  0.00000000000E+00 0.  1.
         11    1    4    4    0    0  0.43172737577E+02  0.29346589270E+02 -0.60025937243E+02  0.79550114479E+02  0.00000000000E+00 0. -1.
        -13    1    3    3    0    0 -0.53667707401E-01 -0.64174320582E+02 -0.15113897451E+03  0.16419907405E+03  0.00000000000E+00 0.  1.
         13    1    3    3    0    0 -0.14846237204E+02 -0.10751002912E+03 -0.60796057697E+02  0.12439846363E+03  0.00000000000E+00 0. -1.
         21    1    1    2  503  502 -0.12337712090E+02  0.20577009870E+02  0.11495088654E+00  0.23992617375E+02  0.00000000000E+00 0.  1.
          2    1    1    2  501    0 -0.51931061984E+01 -0.31629489067E+02 -0.92457161781E+02  0.97855606356E+02  0.00000000000E+00 0. -1.
<scales pt_clust_5="13000.00000" pt_clust_6="13000.00000" pt_clust_7="13000.00000" pt_clust_8="13000.00000" pt_clust_9="23.99234" pt_clust_10="31.43923"></scales>
<clustering>
<clus scale="   23.992">  1  9  2 -1</clus>
<clus scale="   31.439">  2 10  1 -1</clus>
<clus scale="   89.331">  5  6 -1 -1</clus>
<clus scale="   93.137">  7  8 -1 -1</clus>
<clus scale="  198.287">  2  5  1 -1</clus>
<clus scale="   31.439">  2  5  1 -1</clus>
</clustering>
</event>
<event>
10    2  0.3544405E-006  0.1660488E+03  0.7546771E-02  0.1203127E+00
          3   -1    0    0  503    0 -0.00000000000E+00  0.00000000000E+00  0.18253549561E+03  0.18253549561E+03  0.00000000000E+00 0. -1.
         21   -1    0    0  501  502  0.00000000000E+00 -0.00000000000E+00 -0.10125393925E+04  0.10125393925E+04  0.00000000000E+00 0.  1.
         23    2    1    2    0    0  0.14008726148E+03  0.48680469809E+02 -0.26761767433E+03  0.31957651965E+03  0.92280568521E+02 0.  0.
         23    2    1    2    0    0 -0.49504311956E+02 -0.45397635716E+02 -0.15673178802E+03  0.19436867593E+03  0.93288298160E+02 0.  0.
        -11    1    4    4    0    0 -0.57088440032E+02 -0.18980956355E+02 -0.35060550186E+02  0.69631952930E+02  0.00000000000E+00 0.  1.
         11    1    4    4    0    0  0.75841280764E+01 -0.26416679361E+02 -0.12167123784E+03  0.12473672300E+03  0.00000000000E+00 0. -1.
        -13    1    3    3    0    0  0.20179483376E+02  0.50884873170E+02 -0.84704368869E+02  0.10085292248E+03  0.00000000000E+00 0. -1.
         13    1    3    3    0    0  0.11990777811E+03 -0.22044033614E+01 -0.18291330546E+03  0.21872359717E+03  0.00000000000E+00 0.  1.
         21    1    1    2  503  502 -0.10625203120E+03 -0.87750856510E+02  0.98704809896E+02  0.16950618410E+03  0.00000000000E+00 0. -1.
          3    1    1    2  501    0  0.15669081671E+02  0.84468022416E+02 -0.50435924441E+03  0.51162350840E+03  0.00000000000E+00 0. -1.
<scales pt_clust_5="13000.00000" pt_clust_6="13000.00000" pt_clust_7="13000.00000" pt_clust_8="13000.00000" pt_clust_9="138.04524" pt_clust_10="85.90906"></scales>
<clustering>
<clus scale="   85.909">  2 10  1 -1</clus>
<clus scale="   92.281">  7  8 -1 -1</clus>
<clus scale="   93.288">  5  6 -1 -1</clus>
<clus scale="  104.401">  2  5  1 -1</clus>
<clus scale="  138.045">  1  9  2 -1</clus>
<clus scale="   85.909">  2  5  1 -1</clus>
</clustering>
</event>
<event>
10    2  0.3544405E-006  0.9419129E+02  0.7546771E-02  0.1294795E+00
         -3   -1    0    0    0  501 -0.00000000000E+00  0.00000000000E+00  0.15627272541E+03  0.15627272541E+03  0.00000000000E+00 0.  1.
         21   -1    0    0  503  502  0.00000000000E+00 -0.00000000000E+00 -0.18364122131E+03  0.18364122131E+03  0.00000000000E+00 0. -1.
         23    2    1    2    0    0  0.65453108352E+01  0.20245488879E+02  0.33372558605E+02  0.95039515970E+02  0.86406371374E+02 0.  0.
         23    2    1    2    0    0 -0.14111198129E+02 -0.14883490822E+01 -0.85068511163E+02  0.12439922015E+03  0.89650283249E+02 0.  0.
        -13    1    3    3    0    0 -0.18194864544E+02  0.48141100344E+02  0.15917308375E+02  0.53870022684E+02  0.00000000000E+00 0.  1.
         13    1    3    3    0    0  0.24740175380E+02 -0.27895611465E+02  0.17455250230E+02  0.41169493286E+02  0.00000000000E+00 0. -1.
        -13    1    4    4    0    0 -0.26919983997E+02  0.23698486867E+02 -0.11853450030E+01  0.35884660524E+02  0.00000000000E+00 0.  1.
         13    1    4    4    0    0  0.12808785868E+02 -0.25186835949E+02 -0.83883166160E+02  0.88514559625E+02  0.00000000000E+00 0. -1.
         21    1    1    2  503  501  0.14497730433E+02  0.20452632821E+02  0.61244390181E+02  0.66176806403E+02  0.00000000000E+00 0. -1.
         -3    1    1    2    0  502 -0.69318431395E+01 -0.39209772617E+02 -0.36916933517E+02  0.54298404196E+02  0.00000000000E+00 0.  1.
<scales pt_clust_5="13000.00000" pt_clust_6="13000.00000" pt_clust_7="13000.00000" pt_clust_8="13000.00000" pt_clust_9="25.06979" pt_clust_10="37.70326"></scales>
<clustering>
<clus scale="   25.070">  1  9  2 -1</clus>
<clus scale="   37.703">  2 10  1 -1</clus>
<clus scale="   86.406">  5  6 -1 -1</clus>
<clus scale="   89.650">  7  8 -1 -1</clus>
<clus scale="   91.109">  1  5  2 -1</clus>
<clus scale="   37.703">  2  5  1 -1</clus>
</clustering>
</event>
<event>
10    2  0.3544405E-006  0.1229872E+03  0.7546771E-02  0.1241621E+00
          1   -1    0    0  503    0 -0.00000000000E+00  0.00000000000E+00  0.26858713090E+03  0.26858713090E+03  0.00000000000E+00 0. -1.
         21   -1    0    0  501  502  0.00000000000E+00 -0.00000000000E+00 -0.17403860598E+03  0.17403860598E+03  0.00000000000E+00 0.  1.
         23    2    1    2    0    0 -0.10432085266E+02 -0.58265385243E+02  0.13273327326E+03  0.17160464488E+03  0.91248829010E+02 0.  0.
         23    2    1    2    0    0  0.85052993279E+02  0.52369164766E+02 -0.48601424812E+01  0.14234856128E+03  0.10130622305E+03 0.  0.
        -13    1    3    3    0    0  0.22850621841E+02 -0.68306354402E+02  0.10398062202E+03  0.12649062703E+03  0.00000000000E+00 0.  1.
         13    1    3    3    0    0 -0.33282707107E+02  0.10040969159E+02  0.28752651241E+02  0.45114017859E+02  0.00000000000E+00 0. -1.
        -13    1    4    4    0    0  0.41051733809E+02 -0.62547830792E+01  0.38966901945E+02  0.56945470472E+02  0.00000000000E+00 0. -1.
         13    1    4    4    0    0  0.44001259470E+02  0.58623947845E+02 -0.43827044426E+02  0.85403090805E+02  0.00000000000E+00 0.  1.
         21    1    1    2  503  502 -0.30493720363E+02  0.37876371580E+01  0.35460989394E+02  0.46922222301E+02  0.00000000000E+00 0. -1.
          1    1    1    2  501    0 -0.44127187649E+02  0.21085833194E+01 -0.68785595250E+02  0.81750308424E+02  0.00000000000E+00 0. -1.
<scales pt_clust_5="13000.00000" pt_clust_6="13000.00000" pt_clust_7="13000.00000" pt_clust_8="13000.00000" pt_clust_9="30.72805" pt_clust_10="45.05103"></scales>
<clustering>
<clus scale="   30.728">  1  9  2 -1</clus>
<clus scale="   45.051">  2 10  1 -1</clus>
<clus scale="   91.249">  5  6 -1 -1</clus>
<clus scale="  101.306">  7  8 -1 -1</clus>
<clus scale="  114.844">  1  5  2 -1</clus>
<clus scale="   45.051">  2  5  1 -1</clus>
</clustering>
</event>
<event>
10    2  0.3544405E-006  0.1361999E+03  0.7546771E-02  0.1225942E+00
         21   -1    0    0  501  502  0.00000000000E+00  0.00000000000E+00  0.12068972246E+03  0.12068972246E+03  0.00000000000E+00 0.  1.
          1   -1    0    0  503    0 -0.00000000000E+00 -0.00000000000E+00 -0.41863342398E+03  0.41863342398E+03  0.00000000000E+00 0. -1.
         23    2    1    2    0    0 -0.33296500339E+02 -0.25725343055E+02 -0.26414312768E+03  0.29103820235E+03  0.11472224333E+03 0.  0.
         23    2    1    2    0    0  0.45897047884E+02  0.84501448919E+02  0.49449513707E+02  0.14110520231E+03  0.90655335414E+02 0.  0.
        -11    1    4    4    0    0  0.21631155680E+02 -0.15301931178E+02 -0.13250353766E+01  0.26529449911E+02  0.00000000000E+00 0. -1.
         11    1    4    4    0    0  0.24265892204E+02  0.99803380096E+02  0.50774549084E+02  0.11457575240E+03  0.00000000000E+00 0.  1.
        -11    1    3    3    0    0 -0.53321844969E+02  0.29829392146E+02 -0.16073916918E+03  0.17195956587E+03  0.00000000000E+00 0.  1.
         11    1    3    3    0    0  0.20025344630E+02 -0.55554735201E+02 -0.10340395851E+03  0.11907863648E+03  0.00000000000E+00 0. -1.
         21    1    1    2  503  502 -0.33902626861E+01 -0.40674408833E+02 -0.74740601046E+02  0.85159021012E+02  0.00000000000E+00 0. -1.
          1    1    1    2  501    0 -0.92102848591E+01 -0.18101697031E+02 -0.85094864949E+01  0.22020720765E+02  0.00000000000E+00 0. -1.
<scales pt_clust_5="13000.00000" pt_clust_6="13000.00000" pt_clust_7="13000.00000" pt_clust_8="13000.00000" pt_clust_9="41.67668" pt_clust_10="20.31012"></scales>
<clustering>
<clus scale="   20.310">  1 10  2 -1</clus>
<clus scale="   41.677">  2  9  1 -1</clus>
<clus scale="   90.655">  5  6 -1 -1</clus>
<clus scale="  114.722">  7  8 -1 -1</clus>
<clus scale="  116.652">  1  5  2 -1</clus>
<clus scale="   20.310">  1  5  2 -1</clus>
</clustering>
</event>
<event>
10    2  0.3544405E-006  0.2835170E+03  0.7546771E-02  0.1093824E+00
         21   -1    0    0  503  502  0.00000000000E+00  0.00000000000E+00  0.19226341279E+03  0.19226341279E+03  0.00000000000E+00 0.  1.
         -1   -1    0    0    0  501 -0.00000000000E+00 -0.00000000000E+00 -0.12217811362E+04  0.12217811362E+04  0.00000000000E+00 0.  1.
         23    2    1    2    0    0 -0.53026107051E+02  0.24523650354E+03 -0.61886318902E+03  0.67444242079E+03  0.94489266778E+02 0.  0.
         23    2    1    2    0    0  0.73106222112E+02 -0.28347471523E+03 -0.45242136038E+03  0.54694193099E+03  0.93583944459E+02 0.  0.
        -11    1    4    4    0    0  0.30575797195E+02 -0.76290652545E+02 -0.20837344474E+03  0.22399695425E+03  0.00000000000E+00 0. -1.
         11    1    4    4    0    0  0.42530424916E+02 -0.20718406268E+03 -0.24404791564E+03  0.32294497674E+03  0.00000000000E+00 0.  1.
        -11    1    3    3    0    0 -0.12202304716E+01  0.16930169820E+03 -0.46910690013E+03  0.49872421008E+03  0.00000000000E+00 0.  1.
         11    1    3    3    0    0 -0.51805876579E+02  0.75934805343E+02 -0.14975628889E+03  0.17571821070E+03  0.00000000000E+00 0. -1.
         21    1    1    2  503  501 -0.26931024071E+02 -0.40699238387E+01 -0.68844031297E+02  0.74036105941E+02  0.00000000000E+00 0.  1.
         -1    1    1    2    0  502  0.68509090099E+01  0.42308135528E+02  0.11061085727E+03  0.11862409128E+03  0.00000000000E+00 0.  1.
<scales pt_clust_5="13000.00000" pt_clust_6="13000.00000" pt_clust_7="13000.00000" pt_clust_8="13000.00000" pt_clust_9="27.23682" pt_clust_10="42.83033"></scales>
<clustering>
<clus scale="   27.237">  2  9  1 -1</clus>
<clus scale="   42.830">  1 10  2 -1</clus>
<clus scale="   93.584">  5  6 -1 -1</clus>
<clus scale="   94.489">  7  8 -1 -1</clus>
<clus scale="  283.217">  1  5  2 -1</clus>
<clus scale="   42.830">  1  5  2 -1</clus>
</clustering>
</event>
<event>
10    2  0.3544405E-006  0.7142180E+03  0.7546771E-02  0.9693264E-01
         21   -1    0    0  501  502  0.00000000000E+00  0.00000000000E+00  0.12914628807E+04  0.12914628807E+04  0.00000000000E+00 0.  1.
          1   -1    0    0  503    0 -0.00000000000E+00 -0.00000000000E+00 -0.73872615034E+03  0.73872615034E+03  0.00000000000E+00 0. -1.
         23    2    1    2    0    0 -0.27450397169E+02  0.62127375990E+03 -0.79887391635E+01  0.62841992042E+03  0.90073122471E+02 0.  0.
         23    2    1    2    0    0  0.18821694418E+02 -0.85343402604E+03  0.51192501151E+03  0.99936968728E+03  0.89267359489E+02 0.  0.
        -11    1    3    3    0    0 -0.48624342571E+02  0.57607762089E+03 -0.12889191137E+02  0.57826973225E+03  0.00000000000E+00 0. -1.
         11    1    3    3    0    0  0.21173945402E+02  0.45196139003E+02  0.49004519736E+01  0.50150188177E+02  0.00000000000E+00 0.  1.
        -13    1    4    4    0    0  0.34888689209E+02 -0.82300450517E+03  0.48775231764E+03  0.95731706322E+03  0.00000000000E+00 0.  1.
         13    1    4    4    0    0 -0.16066994791E+02 -0.30429520871E+02  0.24172693869E+02  0.42052624067E+02  0.00000000000E+00 0. -1.
         21    1    1    2  503  502 -0.31415198085E+01  0.52542977969E+02 -0.13514526125E+03  0.14503404883E+03  0.00000000000E+00 0. -1.
          1    1    1    2  501    0  0.11770222559E+02  0.17961728817E+03  0.18394571922E+03  0.25736537446E+03  0.00000000000E+00 0. -1.
<scales pt_clust_5="13000.00000" pt_clust_6="13000.00000" pt_clust_7="13000.00000" pt_clust_8="13000.00000" pt_clust_9="52.63681" pt_clust_10="183.20554"></scales>
<clustering>
<clus scale="   52.637">  2  9  1 -1</clus>
<clus scale="   89.267">  7  8 -1 -1</clus>
<clus scale="   90.073">  5  6 -1 -1</clus>
<clus scale="  183.206">  1 10  2 -1</clus>
<clus scale="  714.117">  1  7  2 -1</clus>
<clus scale="  183.206">  1  5  2 -1</clus>
</clustering>
</event>
<event>
10    2  0.3544405E-006  0.9195697E+02  0.7546771E-02  0.1306195E+00
          1   -1    0    0  503    0 -0.00000000000E+00  0.00000000000E+00  0.10836835607E+03  0.10836835607E+03  0.00000000000E+00 0. -1.
         21   -1    0    0  501  502  0.00000000000E+00 -0.00000000000E+00 -0.24343500654E+03  0.24343500654E+03  0.00000000000E+00 0.  1.
         23    2    1    2    0    0  0.36483774315E+02  0.42816346962E+01 -0.64597823385E+00  0.83404864705E+02  0.74876938937E+02 0.  0.
         23    2    1    2    0    0 -0.65493262744E+01  0.53112644343E+02 -0.74068252053E+02  0.12693943684E+03  0.88111679139E+02 0.  0.
        -11    1    4    4    0    0  0.18927403468E+02  0.52664484453E+02 -0.82857229385E+02  0.99985573890E+02  0.00000000000E+00 0.  1.
         11    1    4    4    0    0 -0.25476729742E+02  0.44815988943E+00  0.87889773321E+01  0.26953862955E+02  0.00000000000E+00 0. -1.
        -13    1    3    3    0    0  0.58802109945E+02  0.16068113138E+01  0.79100233339E+01  0.59353504073E+02  0.00000000000E+00 0. -1.
         13    1    3    3    0    0 -0.22318335630E+02  0.26748233823E+01 -0.85560015677E+01  0.24051360632E+02  0.00000000000E+00 0.  1.
         21    1    1    2  503  502 -0.31101258455E+02 -0.19237707015E+02  0.27443946238E+02  0.45722509049E+02  0.00000000000E+00 0. -1.
          1    1    1    2  501    0  0.11668104137E+01 -0.38156572024E+02 -0.87796366421E+02  0.95736552016E+02  0.00000000000E+00 0. -1.
<scales pt_clust_5="13000.00000" pt_clust_6="13000.00000" pt_clust_7="13000.00000" pt_clust_8="13000.00000" pt_clust_9="36.57017" pt_clust_10="39.22442"></scales>
<clustering>
<clus scale="   36.570">  1  9  2 -1</clus>
<clus scale="   39.224">  2 10  1 -1</clus>
<clus scale="   74.877">  7  8 -1 -1</clus>
<clus scale="   79.366">  1  7  2 -1</clus>
<clus scale="   88.112">  5  6 -1 -1</clus>
<clus scale="   39.224">  2  5  1 -1</clus>
</clustering>
</event>
<event>
10    2  0.3544405E-006  0.1429958E+03  0.7546771E-02  0.1216753E+00
          2   -1    0    0  503    0 -0.00000000000E+00  0.00000000000E+00  0.47195419053E+03  0.47195419053E+03  0.00000000000E+00 0. -1.
         21   -1    0    0  501  502  0.00000000000E+00 -0.00000000000E+00 -0.28976705777E+03  0.28976705777E+03  0.00000000000E+00 0.  1.
         23    2    1    2    0    0 -0.95694502015E+02 -0.66653228348E+02  0.16848753947E+03  0.22468736652E+03  0.92175219841E+02 0.  0.
         23    2    1    2    0    0  0.49741364258E+02  0.49836492088E+02 -0.56487210602E+01  0.13784784750E+03  0.11837331519E+03 0.  0.
        -11    1    3    3    0    0 -0.81915383891E+02 -0.69952247124E+01  0.12489710388E+03  0.14952708732E+03  0.00000000000E+00 0. -1.
         11    1    3    3    0    0 -0.13779118124E+02 -0.59658003635E+02  0.43590435599E+02  0.75160279202E+02  0.00000000000E+00 0.  1.
        -13    1    4    4    0    0 -0.49162587689E+01  0.76126335031E+02 -0.10492752668E+02  0.77003158014E+02  0.00000000000E+00 0. -1.
         13    1    4    4    0    0  0.54657623027E+02 -0.26289842943E+02  0.48440316081E+01  0.60844689491E+02  0.00000000000E+00 0.  1.
         21    1    1    2  503  502  0.34580657986E+02  0.36806535247E+02  0.20550219880E+03  0.21161686288E+03  0.00000000000E+00 0. -1.
          2    1    1    2  501    0  0.11372479771E+02 -0.19989798987E+02 -0.18615388446E+03  0.18756917140E+03  0.00000000000E+00 0. -1.
<scales pt_clust_5="13000.00000" pt_clust_6="13000.00000" pt_clust_7="13000.00000" pt_clust_8="13000.00000" pt_clust_9="50.30566" pt_clust_10="22.99838"></scales>
<clustering>
<clus scale="   22.998">  2 10  1 -1</clus>
<clus scale="   50.306">  1  9  2 -1</clus>
<clus scale="   92.175">  5  6 -1 -1</clus>
<clus scale="  118.373">  7  8 -1 -1</clus>
<clus scale="  122.196">  1  5  2 -1</clus>
<clus scale="   22.998">  2  5  1 -1</clus>
</clustering>
</event>
<event>
10    2  0.3544405E-006  0.1404249E+03  0.7546771E-02  0.1229954E+00
         21   -1    0    0  501  502  0.00000000000E+00  0.00000000000E+00  0.47587163300E+03  0.47587163300E+03  0.00000000000E+00 0.  1.
          3   -1    0    0  503    0 -0.00000000000E+00 -0.00000000000E+00 -0.13466104033E+03  0.13466104033E+03  0.00000000000E+00 0. -1.
         23    2    1    2    0    0 -0.37579570128E+02 -0.48122547539E+02  0.53321840425E+02  0.12150504348E+03  0.90511067016E+02 0.  0.
         23    2    1    2    0    0  0.65636224096E+02 -0.12242848248E+03  0.14402669735E+03  0.21788610507E+03  0.86219591729E+02 0.  0.
        -11    1    4    4    0    0  0.49797456031E+02 -0.32282307971E+02  0.17780081930E+02  0.61952121420E+02  0.00000000000E+00 0. -1.
         11    1    4    4    0    0  0.15838768065E+02 -0.90146174509E+02  0.12624661542E+03  0.15593398365E+03  0.00000000000E+00 0.  1.
        -13    1    3    3    0    0 -0.13537407377E+02 -0.33445002427E+02  0.76788314108E+02  0.84842647114E+02  0.00000000000E+00 0.  1.
         13    1    3    3    0    0 -0.24042162751E+02 -0.14677545112E+02 -0.23466473683E+02  0.36662396367E+02  0.00000000000E+00 0. -1.
         21    1    1    2  503  502  0.10462898495E+02  0.78078444702E+02 -0.17983112972E+02  0.80802896756E+02  0.00000000000E+00 0. -1.
          3    1    1    2  501    0 -0.38519552464E+02  0.92472585318E+02  0.16184516787E+03  0.19033862803E+03  0.00000000000E+00 0. -1.
<scales pt_clust_5="13000.00000" pt_clust_6="13000.00000" pt_clust_7="13000.00000" pt_clust_8="13000.00000" pt_clust_9="78.77637" pt_clust_10="110.83919"></scales>
<clustering>
<clus scale="   78.776">  2  9  1 -1</clus>
<clus scale="   86.220">  5  6 -1 -1</clus>
<clus scale="   90.511">  7  8 -1 -1</clus>
<clus scale="   97.946">  2  7  1 -1</clus>
<clus scale="  110.839">  1 10  2 -1</clus>
<clus scale="  110.839">  1  5  2 -1</clus>
</clustering>
</event>
<event>
10    2  0.3544405E-006  0.1203065E+03  0.7546771E-02  0.1242626E+00
         -1   -1    0    0    0  501 -0.00000000000E+00  0.00000000000E+00  0.35245781766E+03  0.35245781766E+03  0.00000000000E+00 0.  1.
         21   -1    0    0  503  502  0.00000000000E+00 -0.00000000000E+00 -0.23242973772E+03  0.23242973772E+03  0.00000000000E+00 0.  1.
         23    2    1    2    0    0  0.79949854766E+02  0.34313667542E+02  0.18748734517E+03  0.22619087349E+03  0.91877089592E+02 0.  0.
         23    2    1    2    0    0 -0.80168536538E+02 -0.62366643204E+02  0.44762425802E+01  0.13696021105E+03  0.91768568842E+02 0.  0.
        -13    1    4    4    0    0 -0.44591944275E+02 -0.23311690044E+02  0.47219902342E+02  0.69004315547E+02  0.00000000000E+00 0.  1.
         13    1    4    4    0    0 -0.35576592263E+02 -0.39054953159E+02 -0.42743659762E+02  0.67955895500E+02  0.00000000000E+00 0. -1.
        -13    1    3    3    0    0  0.91953589254E+02  0.98595716175E+01  0.17084088392E+03  0.19426600667E+03  0.00000000000E+00 0.  1.
         13    1    3    3    0    0 -0.12003734488E+02  0.24454095924E+02  0.16646461256E+02  0.31924866820E+02  0.00000000000E+00 0. -1.
         21    1    1    2  503  501 -0.17380131837E+02 -0.14732991119E+02  0.69388035490E+02  0.73033071133E+02  0.00000000000E+00 0.  1.
         -1    1    1    2    0  502  0.17598813609E+02  0.42785966781E+02 -0.14132354330E+03  0.14870339971E+03  0.00000000000E+00 0.  1.
<scales pt_clust_5="13000.00000" pt_clust_6="13000.00000" pt_clust_7="13000.00000" pt_clust_8="13000.00000" pt_clust_9="22.78442" pt_clust_10="45.99870"></scales>
<clustering>
<clus scale="   22.784">  1  9  2 -1</clus>
<clus scale="   45.999">  2 10  1 -1</clus>
<clus scale="   91.769">  5  6 -1 -1</clus>
<clus scale="   91.877">  7  8 -1 -1</clus>
<clus scale="  120.224">  2  5  1 -1</clus>
<clus scale="   45.999">  2  5  1 -1</clus>
</clustering>
</event>
<event>
10    2  0.3544405E-006  0.1300930E+03  0.7546771E-02  0.1227979E+00
         21   -1    0    0  503  502  0.00000000000E+00  0.00000000000E+00  0.22599043159E+03  0.22599043159E+03  0.00000000000E+00 0. -1.
         -3   -1    0    0    0  501 -0.00000000000E+00 -0.00000000000E+00 -0.32126876478E+03  0.32126876478E+03  0.00000000000E+00 0.  1.
         23    2    1    2    0    0  0.43624655420E+02 -0.26420891583E+02 -0.10819189685E+03  0.15071333445E+03  0.91694321341E+02 0.  0.
         23    2    1    2    0    0 -0.96862559939E+02  0.19226274026E+02  0.14817153535E+03  0.19914112803E+03  0.89164902599E+02 0.  0.
        -11    1    4    4    0    0 -0.34664237647E+02  0.25242931444E+02  0.53075639363E+01  0.43208624076E+02  0.00000000000E+00 0.  1.
         11    1    4    4    0    0 -0.62198322292E+02 -0.60166574181E+01  0.14286397141E+03  0.15593250396E+03  0.00000000000E+00 0. -1.
        -13    1    3    3    0    0  0.35791906342E+02  0.13873420259E+01  0.28907747567E+01  0.35935245320E+02  0.00000000000E+00 0. -1.
         13    1    3    3    0    0  0.78327490779E+01 -0.27808233609E+02 -0.11108267160E+03  0.11477808913E+03  0.00000000000E+00 0.  1.
         21    1    1    2  503  501  0.45224014560E+02 -0.42200358451E+02 -0.13372786465E+03  0.14734050200E+03  0.00000000000E+00 0.  1.
         -3    1    1    2    0  502  0.80138899591E+01  0.49394976008E+02 -0.15301070477E+01  0.50064231890E+02  0.00000000000E+00 0.  1.
<scales pt_clust_5="13000.00000" pt_clust_6="13000.00000" pt_clust_7="13000.00000" pt_clust_8="13000.00000" pt_clust_9="60.93213" pt_clust_10="50.04084"></scales>
<clustering>
<clus scale="   50.041">  1 10  2 -1</clus>
<clus scale="   60.932">  2  9  1 -1</clus>
<clus scale="   89.165">  5  6 -1 -1</clus>
<clus scale="   91.694">  7  8 -1 -1</clus>
<clus scale="  128.323">  1  5  2 -1</clus>
<clus scale="   50.041">  1  5  2 -1</clus>
</clustering>
</event>
<event>
10    2  0.3544405E-006  0.2581640E+03  0.7546771E-02  0.1110605E+00
          4   -1    0    0  503    0 -0.00000000000E+00  0.00000000000E+00  0.67236530454E+02  0.67236530454E+02  0.00000000000E+00 0. -1.
         21   -1    0    0  501  502  0.00000000000E+00 -0.00000000000E+00 -0.16199266358E+04  0.16199266358E+04  0.00000000000E+00 0.  1.
         23    2    1    2    0    0  0.22515288100E+03  0.39639981057E+02 -0.45566373272E+03  0.52493488054E+03  0.12514808654E+03 0.  0.
         23    2    1    2    0    0 -0.19568165683E+03 -0.78053061119E+02 -0.10640813721E+04  0.10884741784E+04  0.90129237337E+02 0.  0.
        -11    1    4    4    0    0 -0.10359864979E+03  0.33233840448E+01 -0.40635828771E+03  0.41936950665E+03  0.00000000000E+00 0. -1.
         11    1    4    4    0    0 -0.92083007038E+02 -0.81376445164E+02 -0.65772308442E+03  0.66910467178E+03  0.00000000000E+00 0.  1.
        -13    1    3    3    0    0  0.16862102360E+03 -0.22389341634E+02 -0.35665502290E+03  0.39514192081E+03  0.00000000000E+00 0.  1.
         13    1    3    3    0    0  0.56531857399E+02  0.62029322691E+02 -0.99008709820E+02  0.12979295973E+03  0.00000000000E+00 0. -1.
         21    1    1    2  503  502  0.57831113358E+01  0.26277304368E+02 -0.55127790082E+01  0.27465102111E+02  0.00000000000E+00 0. -1.
          4    1    1    2  501    0 -0.35254335502E+02  0.12135775694E+02 -0.27432221449E+02  0.46289005142E+02  0.00000000000E+00 0. -1.
<scales pt_clust_5="13000.00000" pt_clust_6="13000.00000" pt_clust_7="13000.00000" pt_clust_8="13000.00000" pt_clust_9="26.90615" pt_clust_10="38.06610"></scales>
<clustering>
<clus scale="   26.906">  1  9  2 -1</clus>
<clus scale="   38.066">  2 10  1 -1</clus>
<clus scale="   90.129">  5  6 -1 -1</clus>
<clus scale="  125.148">  7  8 -1 -1</clus>
<clus scale="  243.125">  2  5  1 -1</clus>
<clus scale="   38.066">  2  5  1 -1</clus>
</clustering>
</event>
<event>
10    2  0.3544405E-006  0.9618122E+02  0.7546771E-02  0.1289062E+00
         -1   -1    0    0    0  501 -0.00000000000E+00  0.00000000000E+00  0.68929640675E+02  0.68929640675E+02  0.00000000000E+00 0.  1.
         21   -1    0    0  503  502  0.00000000000E+00 -0.00000000000E+00 -0.44352126784E+03  0.44352126784E+03  0.00000000000E+00 0.  1.
         23    2    1    2    0    0 -0.31118250436E+02 -0.20467904916E+02 -0.89486340791E+02  0.13419803641E+03  0.92811783440E+02 0.  0.
         23    2    1    2    0    0 -0.13630229573E+02  0.41581006647E+02 -0.26739011090E+03  0.28608736376E+03  0.91835423578E+02 0.  0.
        -11    1    3    3    0    0 -0.44258378098E+02 -0.37212046142E+02 -0.19462605418E+02  0.61010928690E+02  0.00000000000E+00 0. -1.
         11    1    3    3    0    0  0.13140127662E+02  0.16744141226E+02 -0.70023735373E+02  0.73187107717E+02  0.00000000000E+00 0.  1.
        -11    1    4    4    0    0 -0.20937225121E+02 -0.38555434911E+01 -0.81528354177E+01  0.22796958936E+02  0.00000000000E+00 0. -1.
         11    1    4    4    0    0  0.73069955487E+01  0.45436550138E+02 -0.25923727549E+03  0.26329040483E+03  0.00000000000E+00 0.  1.
         21    1    1    2  503  501  0.15249893830E+02  0.16746644311E+02  0.20704632491E+02  0.30686986885E+02  0.00000000000E+00 0.  1.
         -1    1    1    2    0  502  0.29498586178E+02 -0.37859746042E+02 -0.38419807956E+02  0.61478521454E+02  0.00000000000E+00 0.  1.
<scales pt_clust_5="13000.00000" pt_clust_6="13000.00000" pt_clust_7="13000.00000" pt_clust_8="13000.00000" pt_clust_9="22.64971" pt_clust_10="47.34747"></scales>
<clustering>
<clus scale="   22.650">  1  9  2 -1</clus>
<clus scale="   47.347">  2 10  1 -1</clus>
<clus scale="   91.835">  7  8 -1 -1</clus>
<clus scale="   92.812">  5  6 -1 -1</clus>
<clus scale="   95.239">  2  7  1 -1</clus>
<clus scale="   47.347">  2  5  1 -1</clus>
</clustering>
</event>
<event>
10    2  0.3544405E-006  0.1112138E+03  0.7546771E-02  0.1262082E+00
         21   -1    0    0  501  502  0.00000000000E+00  0.00000000000E+00  0.16307917244E+03  0.16307917244E+03  0.00000000000E+00 0.  1.
          2   -1    0    0  503    0 -0.00000000000E+00 -0.00000000000E+00 -0.25057825668E+03  0.25057825668E+03  0.00000000000E+00 0. -1.
         23    2    1    2    0    0 -0.46911962955E+02 -0.81957075043E+01 -0.15809023737E+03  0.18853935943E+03  0.91031121119E+02 0.  0.
         23    2    1    2    0    0  0.25885405355E+02 -0.17792314980E+02  0.69273754508E+02  0.12555472611E+03  0.99892519754E+02 0.  0.
        -13    1    3    3    0    0 -0.59549199540E+02 -0.36363246024E+02 -0.12587306947E+03  0.14391811020E+03  0.00000000000E+00 0.  1.
         13    1    3    3    0    0  0.12637236586E+02  0.28167538520E+02 -0.32217167909E+02  0.44621249230E+02  0.00000000000E+00 0. -1.
        -13    1    4    4    0    0  0.49477646214E+02  0.21817143227E+02  0.55385053498E+02  0.77404969894E+02  0.00000000000E+00 0. -1.
         13    1    4    4    0    0 -0.23592240858E+02 -0.39609458206E+02  0.13888701010E+02  0.48149756218E+02  0.00000000000E+00 0.  1.
         21    1    1    2  503  502 -0.61985717156E+01  0.21116874493E+02 -0.42434901432E+02  0.47802359138E+02  0.00000000000E+00 0.  1.
          2    1    1    2  501    0  0.27225129315E+02  0.48711479908E+01  0.43752300060E+02  0.51760984433E+02  0.00000000000E+00 0. -1.
<scales pt_clust_5="13000.00000" pt_clust_6="13000.00000" pt_clust_7="13000.00000" pt_clust_8="13000.00000" pt_clust_9="22.00783" pt_clust_10="27.61433"></scales>
<clustering>
<clus scale="   22.008">  2  9  1 -1</clus>
<clus scale="   27.614">  1 10  2 -1</clus>
<clus scale="   91.031">  5  6 -1 -1</clus>
<clus scale="   99.893">  7  8 -1 -1</clus>
<clus scale="  103.328">  2  5  1 -1</clus>
<clus scale="   27.614">  1  5  2 -1</clus>
</clustering>
</event>
<event>
10    2  0.3544405E-006  0.1524139E+03  0.7546771E-02  0.1198116E+00
         -1   -1    0    0    0  501 -0.00000000000E+00  0.00000000000E+00  0.19489798358E+03  0.19489798358E+03  0.00000000000E+00 0.  1.
         21   -1    0    0  503  502  0.00000000000E+00 -0.00000000000E+00 -0.28665237582E+03  0.28665237582E+03  0.00000000000E+00 0.  1.
         23    2    1    2    0    0 -0.12939434378E+03 -0.35148249233E+02  0.10115667144E+03  0.18982256804E+03  0.88440033549E+02 0.  0.
         23    2    1    2    0    0  0.10732423102E+03 -0.17318618283E+02 -0.10698846096E+03  0.17794546754E+03  0.91649514640E+02 0.  0.
        -11    1    4    4    0    0  0.48499206179E+02  0.20515443581E+02 -0.92619855479E+02  0.10654339048E+03  0.00000000000E+00 0. -1.
         11    1    4    4    0    0  0.58825024844E+02 -0.37834061863E+02 -0.14368605484E+02  0.71402077060E+02  0.00000000000E+00 0.  1.
        -13    1    3    3    0    0 -0.82761013509E+02 -0.33464042682E+02  0.11068247143E+03  0.14219647320E+03  0.00000000000E+00 0.  1.
         13    1    3    3    0    0 -0.46633330272E+02 -0.16842065504E+01 -0.95257999914E+01  0.47626094837E+02  0.00000000000E+00 0. -1.
         21    1    1    2  503  501  0.42023173115E+01  0.22498064715E+02 -0.20944034195E+01  0.22982796009E+02  0.00000000000E+00 0.  1.
         -1    1    1    2    0  502  0.17867795447E+02  0.29968802801E+02 -0.83828199291E+02  0.90799527817E+02  0.00000000000E+00 0.  1.
<scales pt_clust_5="13000.00000" pt_clust_6="13000.00000" pt_clust_7="13000.00000" pt_clust_8="13000.00000" pt_clust_9="22.88717" pt_clust_10="35.29723"></scales>
<clustering>
<clus scale="   22.887">  1  9  2 -1</clus>
<clus scale="   35.297">  2 10  1 -1</clus>
<clus scale="   88.440">  7  8 -1 -1</clus>
<clus scale="   91.650">  5  6 -1 -1</clus>
<clus scale="  150.506">  1  7  2 -1</clus>
<clus scale="   35.297">  2  5  1 -1</clus>
</clustering>
</event>
<event>
10    2  0.3544405E-006  0.2585189E+03  0.7546771E-02  0.1108150E+00
          1   -1    0    0  503    0 -0.00000000000E+00  0.00000000000E+00  0.78307753751E+03  0.78307753751E+03  0.00000000000E+00 0. -1.
         21   -1    0    0  501  502  0.00000000000E+00 -0.00000000000E+00 -0.40744760796E+03  0.40744760796E+03  0.00000000000E+00 0. -1.
         23    2    1    2    0    0 -0.12131707365E+03 -0.77426344430E+02  0.25051828174E+03  0.30293888497E+03  0.91103717652E+02 0.  0.
         23    2    1    2    0    0  0.27666728149E+03  0.45981021721E+02 -0.10918538923E+03  0.31383791183E+03  0.88959241646E+02 0.  0.
        -13    1    4    4    0    0  0.14032418840E+02 -0.18497171584E+02 -0.34689771641E+01  0.23475262249E+02  0.00000000000E+00 0.  1.
         13    1    4    4    0    0  0.26263486265E+03  0.64478193304E+02 -0.10571641207E+03  0.29036264958E+03  0.00000000000E+00 0. -1.
        -13    1    3    3    0    0 -0.10493423702E+03 -0.91855034248E+02  0.24238755706E+03  0.27964311047E+03  0.00000000000E+00 0. -1.
         13    1    3    3    0    0 -0.16382836622E+02  0.14428689818E+02  0.81307246814E+01  0.23295774498E+02  0.00000000000E+00 0.  1.
         21    1    1    2  503  502 -0.12981261351E+03 -0.76475322606E+02  0.36940806134E+03  0.39895125689E+03  0.00000000000E+00 0.  1.
          1    1    1    2  501    0 -0.25537594338E+02  0.10792064532E+03 -0.13511102430E+03  0.17479709178E+03  0.00000000000E+00 0. -1.
<scales pt_clust_5="13000.00000" pt_clust_6="13000.00000" pt_clust_7="13000.00000" pt_clust_8="13000.00000" pt_clust_9="148.87609" pt_clust_10="110.90101"></scales>
<clustering>
<clus scale="   88.959">  5  6 -1 -1</clus>
<clus scale="   91.104">  7  8 -1 -1</clus>
<clus scale="  110.901">  2 10  1 -1</clus>
<clus scale="  148.876">  1  9  2 -1</clus>
<clus scale="  257.771">  2  5  1 -1</clus>
<clus scale="  110.901">  2  5  1 -1</clus>
</clustering>
</event>
<event>
10    2  0.3544405E-006  0.1026189E+03  0.7546771E-02  0.1275713E+00
         -2   -1    0    0    0  501 -0.00000000000E+00  0.00000000000E+00  0.35626288406E+02  0.35626288406E+02  0.00000000000E+00 0.  1.
         21   -1    0    0  503  502  0.00000000000E+00 -0.00000000000E+00 -0.64457090721E+03  0.64457090721E+03  0.00000000000E+00 0.  1.
         23    2    1    2    0    0  0.28097823684E+02 -0.40670601891E+02 -0.16501442287E+03  0.19563476817E+03  0.92734121054E+02 0.  0.
         23    2    1    2    0    0 -0.46192592189E+02  0.17503690436E+02 -0.22552814670E+03  0.24813902687E+03  0.90938973777E+02 0.  0.
        -11    1    4    4    0    0 -0.59146061423E+02 -0.20612076888E+02 -0.12400573463E+03  0.13892637084E+03  0.00000000000E+00 0.  1.
         11    1    4    4    0    0  0.12953469234E+02  0.38115767324E+02 -0.10152241208E+03  0.10921265603E+03  0.00000000000E+00 0. -1.
        -11    1    3    3    0    0  0.10269429587E+02 -0.53128317183E+02 -0.36449186301E+02  0.65242796175E+02  0.00000000000E+00 0.  1.
         11    1    3    3    0    0  0.17828394098E+02  0.12457715292E+02 -0.12856523657E+03  0.13039197200E+03  0.00000000000E+00 0. -1.
         21    1    1    2  503  501 -0.14914009242E+02  0.13467535911E+02 -0.56033026620E+01  0.20861428425E+02  0.00000000000E+00 0.  1.
         -2    1    1    2    0  502  0.33008777747E+02  0.96993755443E+01 -0.21279874656E+03  0.21556197214E+03  0.00000000000E+00 0.  1.
<scales pt_clust_5="13000.00000" pt_clust_6="13000.00000" pt_clust_7="13000.00000" pt_clust_8="13000.00000" pt_clust_9="20.09483" pt_clust_10="33.89610"></scales>
<clustering>
<clus scale="   20.095">  1  9  2 -1</clus>
<clus scale="   33.896">  2 10  1 -1</clus>
<clus scale="   90.939">  5  6 -1 -1</clus>
<clus scale="   92.734">  7  8 -1 -1</clus>
<clus scale="  101.000">  2  5  1 -1</clus>
<clus scale="   33.896">  2  5  1 -1</clus>
</clustering>
</event>
<event>
10    2  0.3544405E-006  0.9380339E+02  0.7546771E-02  0.1295119E+00
         21   -1    0    0  503  502  0.00000000000E+00  0.00000000000E+00  0.13462428849E+03  0.13462428849E+03  0.00000000000E+00 0. -1.
         -1   -1    0    0    0  501 -0.00000000000E+00 -0.00000000000E+00 -0.31825716022E+03  0.31825716022E+03  0.00000000000E+00 0.  1.
         23    2    1    2    0    0  0.17864509082E+02  0.25207193428E+01 -0.16896828570E+03  0.19178565781E+03  0.88915478187E+02 0.  0.
         23    2    1    2    0    0 -0.61324717762E+01  0.35232605650E+02 -0.95989976309E+02  0.13707957262E+03  0.91092205854E+02 0.  0.
        -11    1    3    3    0    0 -0.28735352420E+02 -0.89682328698E+01 -0.11798839618E+03  0.12176785829E+03  0.00000000000E+00 0.  1.
         11    1    3    3    0    0  0.46599861502E+02  0.11488952213E+02 -0.50979889515E+02  0.70017799522E+02  0.00000000000E+00 0. -1.
        -13    1    4    4    0    0 -0.21894819712E+02  0.62158428790E+02 -0.56917264399E+02  0.87078288836E+02  0.00000000000E+00 0.  1.
         13    1    4    4    0    0  0.15762347936E+02 -0.26925823140E+02 -0.39072711909E+02  0.50001283785E+02  0.00000000000E+00 0. -1.
         21    1    1    2  503  501  0.82578376062E+01 -0.20105618754E+02 -0.13450516434E+02  0.25560598189E+02  0.00000000000E+00 0.  1.
         -1    1    1    2    0  502 -0.19989874912E+02 -0.17647706239E+02  0.94775906704E+02  0.98455620083E+02  0.00000000000E+00 0.  1.
<scales pt_clust_5="13000.00000" pt_clust_6="13000.00000" pt_clust_7="13000.00000" pt_clust_8="13000.00000" pt_clust_9="21.73540" pt_clust_10="26.70939"></scales>
<clustering>
<clus scale="   21.735">  2  9  1 -1</clus>
<clus scale="   26.709">  1 10  2 -1</clus>
<clus scale="   88.915">  5  6 -1 -1</clus>
<clus scale="   91.092">  7  8 -1 -1</clus>
<clus scale="   91.691">  2  5  1 -1</clus>
<clus scale="   26.709">  1  5  2 -1</clus>
</clustering>
</event>
<event>
10    2  0.3544405E-006  0.9990592E+02  0.7546771E-02  0.1280826E+00
          1   -1    0    0  503    0 -0.00000000000E+00  0.00000000000E+00  0.12450153135E+03  0.12450153135E+03  0.00000000000E+00 0. -1.
         21   -1    0    0  501  502  0.00000000000E+00 -0.00000000000E+00 -0.50344275255E+03  0.50344275255E+03  0.00000000000E+00 0. -1.
         23    2    1    2    0    0 -0.77963754431E+01  0.37997099133E+02  0.50523962311E+02  0.11032828492E+03  0.90083831359E+02 0.  0.
         23    2    1    2    0    0  0.21750911598E+02  0.30642459073E+02 -0.11312764070E+03  0.14983404172E+03  0.90776178123E+02 0.  0.
        -11    1    4    4    0    0  0.12261033632E+02  0.58743801647E+02 -0.43396479120E+02  0.74056880691E+02  0.00000000000E+00 0. -1.
         11    1    4    4    0    0  0.94898779656E+01 -0.28101342574E+02 -0.69731161584E+02  0.75777161033E+02  0.00000000000E+00 0.  1.
        -13    1    3    3    0    0 -0.36371246928E+02  0.54067061266E+02  0.30869117804E+02  0.72104210356E+02  0.00000000000E+00 0.  1.
         13    1    3    3    0    0  0.28574871485E+02 -0.16069962133E+02  0.19654844507E+02  0.38224074560E+02  0.00000000000E+00 0. -1.
         21    1    1    2  503  502 -0.36322518886E+02  0.27883792097E+02 -0.11452956542E+02  0.47201710282E+02  0.00000000000E+00 0. -1.
          1    1    1    2  501    0  0.22367982731E+02 -0.96523350303E+02 -0.30488458627E+03  0.32058024697E+03  0.00000000000E+00 0. -1.
<scales pt_clust_5="13000.00000" pt_clust_6="13000.00000" pt_clust_7="13000.00000" pt_clust_8="13000.00000" pt_clust_9="45.79117" pt_clust_10="96.50214"></scales>
<clustering>
<clus scale="   45.791">  1  9  2 -1</clus>
<clus scale="   90.084">  7  8 -1 -1</clus>
<clus scale="   90.776">  5  6 -1 -1</clus>
<clus scale="   96.502">  2 10  1 -1</clus>
<clus scale="   99.277">  1  7  2 -1</clus>
<clus scale="   96.502">  2  5  1 -1</clus>
</clustering>
</event>
<event>
10    2  0.3544405E-006  0.3593738E+03  0.7546771E-02  0.1077613E+00
          1   -1    0    0  503    0 -0.00000000000E+00  0.00000000000E+00  0.13705108208E+04  0.13705108208E+04  0.00000000000E+00 0. -1.
         21   -1    0    0  501  502  0.00000000000E+00 -0.00000000000E+00 -0.20034994861E+03  0.20034994861E+03  0.00000000000E+00 0. -1.
         23    2    1    2    0    0 -0.18332283958E+03 -0.61438783624E+02  0.73884067084E+02  0.22583423312E+03  0.90334145473E+02 0.  0.
         23    2    1    2    0    0  0.17118620275E+03 -0.28580947849E+03  0.52397275183E+03  0.62772976190E+03  0.92224916953E+02 0.  0.
        -13    1    4    4    0    0  0.23798990657E+02 -0.12611642071E+03  0.19846234770E+03  0.23634518608E+03  0.00000000000E+00 0.  1.
         13    1    4    4    0    0  0.14738721210E+03 -0.15969305778E+03  0.32551040413E+03  0.39138457582E+03  0.00000000000E+00 0. -1.
        -13    1    3    3    0    0 -0.18514072430E+03 -0.37638296030E+02  0.70834955548E+02  0.20177046377E+03  0.00000000000E+00 0. -1.
         13    1    3    3    0    0  0.18178847192E+01 -0.23800487594E+02  0.30491115365E+01  0.24063769359E+02  0.00000000000E+00 0.  1.
         21    1    1    2  503  502  0.61000205131E+01 -0.40585704504E+02  0.85650420080E+02  0.94975808079E+02  0.00000000000E+00 0.  1.
          1    1    1    2  501    0  0.60366163097E+01  0.38783396662E+03  0.48665363318E+03  0.62232096629E+03  0.00000000000E+00 0. -1.
<scales pt_clust_5="13000.00000" pt_clust_6="13000.00000" pt_clust_7="13000.00000" pt_clust_8="13000.00000" pt_clust_9="41.04156" pt_clust_10="347.33861"></scales>
<clustering>
<clus scale="   41.042">  1  9  2 -1</clus>
<clus scale="   90.334">  7  8 -1 -1</clus>
<clus scale="   92.225">  5  6 -1 -1</clus>
<clus scale="  214.213">  1  7  2 -1</clus>
<clus scale="  347.339">  2 10  1 -1</clus>
<clus scale="  347.339">  2  5  1 -1</clus>
</clustering>
</event>
<event>
10    2  0.3544405E-006  0.1345964E+03  0.7546771E-02  0.1221047E+00
          2   -1    0    0  503    0 -0.00000000000E+00  0.00000000000E+00  0.72942105779E+03  0.72942105779E+03  0.00000000000E+00 0. -1.
         21   -1    0    0  501  502  0.00000000000E+00 -0.00000000000E+00 -0.12383506690E+03  0.12383506690E+03  0.00000000000E+00 0. -1.
         23    2    1    2    0    0  0.84591056060E+02 -0.76536777946E+02  0.50294292939E+03  0.52380292133E+03  0.91675433054E+02 0.  0.
         23    2    1    2    0    0  0.39958047561E+02  0.87482353559E+02  0.22358003046E+02  0.13545374465E+03  0.92725556832E+02 0.  0.
        -11    1    4    4    0    0 -0.22218118335E+02  0.11669244854E+02 -0.16447189939E+02  0.30005434753E+02  0.00000000000E+00 0.  1.
         11    1    4    4    0    0  0.62176165897E+02  0.75813108704E+02  0.38805192985E+02  0.10544830989E+03  0.00000000000E+00 0. -1.
        -11    1    3    3    0    0 -0.13353575077E+02 -0.33174194050E+02  0.18129714168E+03  0.18479041831E+03  0.00000000000E+00 0.  1.
         11    1    3    3    0    0  0.97944631138E+02 -0.43362583896E+02  0.32164578770E+03  0.33901250301E+03  0.00000000000E+00 0. -1.
         21    1    1    2  503  502 -0.32640972618E+02 -0.15897955193E+02  0.94160794487E+02  0.10091795326E+03  0.00000000000E+00 0.  1.
          2    1    1    2  501    0 -0.91908131004E+02  0.49523795804E+01 -0.13875736032E+02  0.93081505459E+02  0.00000000000E+00 0. -1.
<scales pt_clust_5="13000.00000" pt_clust_6="13000.00000" pt_clust_7="13000.00000" pt_clust_8="13000.00000" pt_clust_9="36.30672" pt_clust_10="94.03714"></scales>
<clustering>
<clus scale="   36.307">  1  9  2 -1</clus>
<clus scale="   91.675">  7  8 -1 -1</clus>
<clus scale="   92.726">  5  6 -1 -1</clus>
<clus scale="   94.037">  2 10  1 -1</clus>
<clus scale="  133.875">  1  7  2 -1</clus>
<clus scale="   94.037">  2  5  1 -1</clus>
</clustering>
</event>
<event>
10    2  0.3544405E-006  0.1001056E+03  0.7546771E-02  0.1280697E+00
          1   -1    0    0  503    0 -0.00000000000E+00  0.00000000000E+00  0.49421534493E+03  0.49421534493E+03  0.00000000000E+00 0. -1.
         21   -1    0    0  501  502  0.00000000000E+00 -0.00000000000E+00 -0.10374116999E+03  0.10374116999E+03  0.00000000000E+00 0. -1.
         23    2    1    2    0    0  0.49470703340E+02  0.40107740777E+02  0.23738132914E+03  0.26193330962E+03  0.90571418806E+02 0.  0.
         23    2    1    2    0    0 -0.23437412642E+02  0.58777768557E+01  0.10377088823E+03  0.14067702825E+03  0.91857326663E+02 0.  0.
        -11    1    3    3    0    0  0.73410955255E+02  0.16964198045E+02  0.13955924903E+03  0.15859929495E+03  0.00000000000E+00 0.  1.
         11    1    3    3    0    0 -0.23940251915E+02  0.23143542733E+02  0.97822080112E+02  0.10333401468E+03  0.00000000000E+00 0. -1.
        -13    1    4    4    0    0  0.33729781826E+02  0.13688089383E+02  0.31036822370E+02  0.47836662884E+02  0.00000000000E+00 0.  1.
         13    1    4    4    0    0 -0.57167194469E+02 -0.78103125277E+01  0.72734065862E+02  0.92840365370E+02  0.00000000000E+00 0. -1.
         21    1    1    2  503  502 -0.17431596981E+02 -0.11689243280E+02  0.11706448272E+03  0.11893103925E+03  0.00000000000E+00 0. -1.
          1    1    1    2  501    0 -0.86016937169E+01 -0.34296274354E+02 -0.67742525155E+02  0.76415137792E+02  0.00000000000E+00 0. -1.
<scales pt_clust_5="13000.00000" pt_clust_6="13000.00000" pt_clust_7="13000.00000" pt_clust_8="13000.00000" pt_clust_9="20.98807" pt_clust_10="35.53843"></scales>
<clustering>
<clus scale="   20.988">  1  9  2 -1</clus>
<clus scale="   35.538">  2 10  1 -1</clus>
<clus scale="   90.571">  5  6 -1 -1</clus>
<clus scale="   91.857">  7  8 -1 -1</clus>
<clus scale="   98.927">  1  5  2 -1</clus>
<clus scale="   35.538">  2  5  1 -1</clus>
</clustering>
</event>
<event>
10    2  0.3544405E-006  0.2284154E+03  0.7546771E-02  0.1163685E+00
          2   -1    0    0  503    0 -0.00000000000E+00  0.00000000000E+00  0.54533590036E+02  0.54533590036E+02  0.00000000000E+00 0. -1.
         21   -1    0    0  501  502  0.00000000000E+00 -0.00000000000E+00 -0.19717682228E+04  0.19717682228E+04  0.00000000000E+00 0. -1.
         23    2    1    2    0    0  0.17847216952E+02  0.36623583029E+02 -0.16440809301E+03  0.19227675297E+03  0.90997355445E+02 0.  0.
         23    2    1    2    0    0 -0.88686404928E+02  0.18214208627E+03 -0.41512877689E+03  0.47029001006E+03  0.88316330044E+02 0.  0.
        -11    1    3    3    0    0  0.19156498494E+02 -0.19677188806E+02 -0.11210299825E+03  0.11541769972E+03  0.00000000000E+00 0.  1.
         11    1    3    3    0    0 -0.13092815417E+01  0.56300771835E+02 -0.52305094766E+02  0.76859053246E+02  0.00000000000E+00 0. -1.
        -13    1    4    4    0    0 -0.89062117682E+02  0.10844177405E+03 -0.21229753693E+03  0.25448364064E+03  0.00000000000E+00 0. -1.
         13    1    4    4    0    0  0.37571275373E+00  0.73700312218E+02 -0.20283123995E+03  0.21580636942E+03  0.00000000000E+00 0.  1.
         21    1    1    2  503  502 -0.14431416340E+02 -0.23320558387E+02 -0.39174960859E+02  0.47820411744E+02  0.00000000000E+00 0.  1.
          2    1    1    2  501    0  0.85270604316E+02 -0.19544511091E+03 -0.12985228020E+04  0.13159146381E+04  0.00000000000E+00 0. -1.
<scales pt_clust_5="13000.00000" pt_clust_6="13000.00000" pt_clust_7="13000.00000" pt_clust_8="13000.00000" pt_clust_9="27.42470" pt_clust_10="210.65099"></scales>
<clustering>
<clus scale="   27.425">  1  9  2 -1</clus>
<clus scale="   88.316">  7  8 -1 -1</clus>
<clus scale="   90.997">  5  6 -1 -1</clus>
<clus scale="   96.857">  1  5  2 -1</clus>
<clus scale="  210.651">  2 10  1 -1</clus>
<clus scale="  210.651">  2  5  1 -1</clus>
</clustering>
</event>
<event>
10    2  0.3544405E-006  0.1254877E+03  0.7546771E-02  0.1234717E+00
         -1   -1    0    0    0  501 -0.00000000000E+00  0.00000000000E+00  0.30453120352E+03  0.30453120352E+03  0.00000000000E+00 0.  1.
         21   -1    0    0  503  502  0.00000000000E+00 -0.00000000000E+00 -0.19764216247E+03  0.19764216247E+03  0.00000000000E+00 0. -1.
         23    2    1    2    0    0 -0.98411851082E+02 -0.13368802260E+02  0.76555575243E+01  0.13472223069E+03  0.90707522141E+02 0.  0.
         23    2    1    2    0    0  0.35717946951E+02  0.86851684836E+02 -0.24049986658E+02  0.13374005281E+03  0.92135839785E+02 0.  0.
        -13    1    3    3    0    0 -0.81696665713E+02  0.20480818752E+02 -0.21612976511E+02  0.86953607625E+02  0.00000000000E+00 0. -1.
         13    1    3    3    0    0 -0.16715185369E+02 -0.33849621012E+02  0.29268534036E+02  0.47768623062E+02  0.00000000000E+00 0.  1.
        -13    1    4    4    0    0 -0.23126175296E+02  0.14859221572E+02 -0.29848880097E+02  0.40577975462E+02  0.00000000000E+00 0. -1.
         13    1    4    4    0    0  0.58844122247E+02  0.71992463264E+02  0.57988934393E+01  0.93162077344E+02  0.00000000000E+00 0.  1.
         21    1    1    2  503  501 -0.46401450819E+02  0.36146236632E+01  0.81302566270E+02  0.93681734743E+02  0.00000000000E+00 0. -1.
         -1    1    1    2    0  502  0.10909535495E+03 -0.77097506239E+02  0.41980903912E+02  0.14002934776E+03  0.00000000000E+00 0.  1.
<scales pt_clust_5="13000.00000" pt_clust_6="13000.00000" pt_clust_7="13000.00000" pt_clust_8="13000.00000" pt_clust_9="46.54203" pt_clust_10="117.25102"></scales>
<clustering>
<clus scale="   46.542">  1  9  2 -1</clus>
<clus scale="   90.708">  5  6 -1 -1</clus>
<clus scale="   92.136">  7  8 -1 -1</clus>
<clus scale="  117.251">  2 10  1 -1</clus>
<clus scale="  124.443">  1  5  2 -1</clus>
<clus scale="  117.251">  2  5  1 -1</clus>
</clustering>
</event>
<event>
10    2  0.3544405E-006  0.1541555E+03  0.7546771E-02  0.1195562E+00
         21   -1    0    0  501  502  0.00000000000E+00  0.00000000000E+00  0.36393065660E+03  0.36393065660E+03  0.00000000000E+00 0. -1.
          1   -1    0    0  503    0 -0.00000000000E+00 -0.00000000000E+00 -0.20075588762E+03  0.20075588762E+03  0.00000000000E+00 0. -1.
         23    2    1    2    0    0 -0.10755447228E+03  0.81531125074E+02  0.49558942216E+02  0.17082605671E+03  0.92250550312E+02 0.  0.
         23    2    1    2    0    0  0.12061661899E+03 -0.11916464411E+02  0.24389316065E+02  0.15390678941E+03  0.91662916100E+02 0.  0.
        -11    1    4    4    0    0  0.46007241594E+02  0.65326893806E+01  0.54269702350E+02  0.71446083887E+02  0.00000000000E+00 0.  1.
         11    1    4    4    0    0  0.74609377396E+02 -0.18449153791E+02 -0.29880386285E+02  0.82460705524E+02  0.00000000000E+00 0. -1.
        -11    1    3    3    0    0 -0.28816535849E+02 -0.19029313603E+02  0.19345731438E+02  0.39582380416E+02  0.00000000000E+00 0.  1.
         11    1    3    3    0    0 -0.78737936431E+02  0.10056043868E+03  0.30213210779E+02  0.13124367629E+03  0.00000000000E+00 0. -1.
         21    1    1    2  503  502  0.23660916367E+02 -0.21643864268E+02 -0.66004085315E+02  0.73381435677E+02  0.00000000000E+00 0. -1.
          1    1    1    2  501    0 -0.36723063077E+02 -0.47970796396E+02  0.15523059602E+03  0.16657226242E+03  0.00000000000E+00 0. -1.
<scales pt_clust_5="13000.00000" pt_clust_6="13000.00000" pt_clust_7="13000.00000" pt_clust_8="13000.00000" pt_clust_9="32.06705" pt_clust_10="60.55050"></scales>
<clustering>
<clus scale="   32.067">  2  9  1 -1</clus>
<clus scale="   60.550">  1 10  2 -1</clus>
<clus scale="   91.663">  5  6 -1 -1</clus>
<clus scale="   92.251">  7  8 -1 -1</clus>
<clus scale="  153.805">  1  5  2 -1</clus>
<clus scale="   60.550">  1  5  2 -1</clus>
</clustering>
</event>
<event>
10    2  0.3544405E-006  0.1809543E+03  0.7546771E-02  0.1167100E+00
         21   -1    0    0  501  502  0.00000000000E+00  0.00000000000E+00  0.15665563326E+03  0.15665563326E+03  0.00000000000E+00 0. -1.
          1   -1    0    0  503    0 -0.00000000000E+00 -0.00000000000E+00 -0.78735538326E+03  0.78735538326E+03  0.00000000000E+00 0. -1.
         23    2    1    2    0    0 -0.54285916152E+02 -0.17030969448E+03 -0.42713281925E+03  0.47239158734E+03  0.93589602986E+02 0.  0.
         23    2    1    2    0    0  0.14599090846E+03  0.28193211426E+02 -0.71250439387E+02  0.18872873148E+03  0.91835213548E+02 0.  0.
        -13    1    3    3    0    0 -0.14488022804E+02 -0.15170266182E+03 -0.37122616708E+03  0.40128850910E+03  0.00000000000E+00 0. -1.
         13    1    3    3    0    0 -0.39797893348E+02 -0.18607032661E+02 -0.55906652163E+02  0.71103078242E+02  0.00000000000E+00 0.  1.
        -13    1    4    4    0    0  0.64233845962E+01  0.33198309077E+02 -0.23319404301E+02  0.41075323641E+02  0.00000000000E+00 0.  1.
         13    1    4    4    0    0  0.13956752387E+03 -0.50050976516E+01 -0.47931035086E+02  0.14765340784E+03  0.00000000000E+00 0. -1.
         21    1    1    2  503  502 -0.72932919400E+02  0.42064835070E+02 -0.15699348178E+03  0.17814492528E+03  0.00000000000E+00 0. -1.
          1    1    1    2  501    0 -0.18772072912E+02  0.10005164798E+03  0.24676990410E+02  0.10474577242E+03  0.00000000000E+00 0. -1.
<scales pt_clust_5="13000.00000" pt_clust_6="13000.00000" pt_clust_7="13000.00000" pt_clust_8="13000.00000" pt_clust_9="84.19419" pt_clust_10="105.41763"></scales>
<clustering>
<clus scale="   84.194">  2  9  1 -1</clus>
<clus scale="   91.835">  7  8 -1 -1</clus>
<clus scale="   93.590">  5  6 -1 -1</clus>
<clus scale="  105.418">  1 10  2 -1</clus>
<clus scale="  180.053">  1  7  2 -1</clus>
<clus scale="  105.418">  1  5  2 -1</clus>
</clustering>
</event>
<event>
10    2  0.3544405E-006  0.2030264E+03  0.7546771E-02  0.1162294E+00
         -1   -1    0    0    0  501 -0.00000000000E+00  0.00000000000E+00  0.84510120951E+03  0.84510120951E+03  0.00000000000E+00 0.  1.
         21   -1    0    0  503  502  0.00000000000E+00 -0.00000000000E+00 -0.21575132103E+03  0.21575132103E+03  0.00000000000E+00 0.  1.
         23    2    1    2    0    0  0.78785488960E+02 -0.78486229047E+02  0.52993121264E+02  0.15285641061E+03  0.90496242694E+02 0.  0.
         23    2    1    2    0    0  0.11343854257E+03  0.15584333150E+03  0.46504740795E+03  0.51178568721E+03  0.92195721618E+02 0.  0.
        -13    1    3    3    0    0  0.79364757531E+02 -0.45572626857E+02  0.70544036743E+02  0.11555124481E+03  0.00000000000E+00 0.  1.
         13    1    3    3    0    0 -0.57926857071E+00 -0.32913602190E+02 -0.17550915479E+02  0.37305165800E+02  0.00000000000E+00 0. -1.
        -13    1    4    4    0    0  0.82172385450E+02  0.15976581208E+03  0.41998665477E+03  0.45679996259E+03  0.00000000000E+00 0.  1.
         13    1    4    4    0    0  0.31266157122E+02 -0.39224805819E+01  0.45060753174E+02  0.54985724618E+02  0.00000000000E+00 0. -1.
         21    1    1    2  503  501 -0.22057383053E+02 -0.10782955229E+02  0.19406936640E+03  0.19561625506E+03  0.00000000000E+00 0.  1.
         -1    1    1    2    0  502 -0.17016664848E+03 -0.66574147220E+02 -0.82760007129E+02  0.20059417766E+03  0.00000000000E+00 0.  1.
<scales pt_clust_5="13000.00000" pt_clust_6="13000.00000" pt_clust_7="13000.00000" pt_clust_8="13000.00000" pt_clust_9="24.55199" pt_clust_10="180.88579"></scales>
<clustering>
<clus scale="   24.552">  1  9  2 -1</clus>
<clus scale="   90.496">  5  6 -1 -1</clus>
<clus scale="   92.196">  7  8 -1 -1</clus>
<clus scale="  142.442">  1  5  2 -1</clus>
<clus scale="  180.886">  2 10  1 -1</clus>
<clus scale="  180.886">  2  5  1 -1</clus>
</clustering>
</event>
<event>
10    2  0.3544405E-006  0.1792113E+03  0.7546771E-02  0.1196913E+00
         21   -1    0    0  501  502  0.00000000000E+00  0.00000000000E+00  0.28878090266E+03  0.28878090266E+03  0.00000000000E+00 0.  1.
          2   -1    0    0  503    0 -0.00000000000E+00 -0.00000000000E+00 -0.20915876582E+03  0.20915876582E+03  0.00000000000E+00 0. -1.
         23    2    1    2    0    0 -0.31180518101E+02 -0.28240859823E+01  0.26114635281E+02  0.99370173828E+02  0.90621504623E+02 0.  0.
         23    2    1    2    0    0  0.16395297534E+03 -0.30908353449E+02  0.47408712681E+02  0.19642830165E+03  0.92198629138E+02 0.  0.
        -11    1    3    3    0    0  0.25774233473E+00  0.35379237604E+02 -0.11518755556E+02  0.37208045018E+02  0.00000000000E+00 0.  1.
         11    1    3    3    0    0 -0.31438260436E+02 -0.38203323586E+02  0.37633390837E+02  0.62162128810E+02  0.00000000000E+00 0. -1.
        -13    1    4    4    0    0  0.80209403568E+02  0.27703987969E+02  0.40360438069E+02  0.93968209152E+02  0.00000000000E+00 0.  1.
         13    1    4    4    0    0  0.83743571771E+02 -0.58612341417E+02  0.70482746128E+01  0.10246009250E+03  0.00000000000E+00 0. -1.
         21    1    1    2  503  502  0.11718875176E+02  0.23328913221E+02 -0.42040218838E+02  0.49486869242E+02  0.00000000000E+00 0.  1.
          2    1    1    2  501    0 -0.14449133241E+03  0.10403526210E+02  0.48139007707E+02  0.15265432376E+03  0.00000000000E+00 0. -1.
<scales pt_clust_5="13000.00000" pt_clust_6="13000.00000" pt_clust_7="13000.00000" pt_clust_8="13000.00000" pt_clust_9="26.10690" pt_clust_10="153.67529"></scales>
<clustering>
<clus scale="   26.107">  2  9  1 -1</clus>
<clus scale="   90.622">  5  6 -1 -1</clus>
<clus scale="   92.199">  7  8 -1 -1</clus>
<clus scale="   95.044">  2  5  1 -1</clus>
<clus scale="  153.675">  1 10  2 -1</clus>
<clus scale="  153.675">  1  5  2 -1</clus>
</clustering>
</event>
<event>
10    2  0.3544405E-006  0.1560815E+03  0.7546771E-02  0.1193299E+00
          1   -1    0    0  503    0 -0.00000000000E+00  0.00000000000E+00  0.44899543816E+03  0.44899543816E+03  0.00000000000E+00 0. -1.
         21   -1    0    0  501  502  0.00000000000E+00 -0.00000000000E+00 -0.16065415446E+03  0.16065415446E+03  0.00000000000E+00 0. -1.
         23    2    1    2    0    0 -0.14326783394E+03 -0.15609287984E+02  0.31711149864E+03  0.36021066290E+03  0.91775252537E+02 0.  0.
         23    2    1    2    0    0  0.96426785992E+02  0.29288137714E+01  0.14772444276E+02  0.13354576111E+03  0.91156690337E+02 0.  0.
        -11    1    3    3    0    0 -0.94853646736E+02 -0.27956081028E+02  0.28282449030E+03  0.29961383326E+03  0.00000000000E+00 0. -1.
         11    1    3    3    0    0 -0.48414187203E+02  0.12346793044E+02  0.34287008344E+02  0.60596829638E+02  0.00000000000E+00 0.  1.
        -13    1    4    4    0    0  0.95219661386E+02 -0.29668020148E+02  0.15423623081E+02  0.10092008464E+03  0.00000000000E+00 0. -1.
         13    1    4    4    0    0  0.12071246053E+01  0.32596833919E+02 -0.65117880483E+00  0.32625676471E+02  0.00000000000E+00 0.  1.
         21    1    1    2  503  502  0.11352827898E+02 -0.20045125948E+02  0.23742756453E+02  0.33081902296E+02  0.00000000000E+00 0.  1.
          1    1    1    2  501    0  0.35488220049E+02  0.32725600161E+02 -0.67285415671E+02  0.82811266324E+02  0.00000000000E+00 0. -1.
<scales pt_clust_5="13000.00000" pt_clust_6="13000.00000" pt_clust_7="13000.00000" pt_clust_8="13000.00000" pt_clust_9="23.03679" pt_clust_10="48.17900"></scales>
<clustering>
<clus scale="   23.037">  1  9  2 -1</clus>
<clus scale="   48.179">  2 10  1 -1</clus>
<clus scale="   91.157">  7  8 -1 -1</clus>
<clus scale="   91.775">  5  6 -1 -1</clus>
<clus scale="  155.719">  2  7  1 -1</clus>
<clus scale="   48.179">  2  5  1 -1</clus>
</clustering>
</event>
<event>
10    2  0.3544405E-006  0.9895394E+02  0.7546771E-02  0.1284715E+00
         -1   -1    0    0    0  501 -0.00000000000E+00  0.00000000000E+00  0.45213788995E+03  0.45213788995E+03  0.00000000000E+00 0.  1.
         21   -1    0    0  503  502  0.00000000000E+00 -0.00000000000E+00 -0.64412120522E+02  0.64412120522E+02  0.00000000000E+00 0. -1.
         23    2    1    2    0    0 -0.11647858430E+02 -0.89897963832E+01  0.75246152804E+02  0.11886657739E+03  0.90833862975E+02 0.  0.
         23    2    1    2    0    0  0.19131746449E+02 -0.58362896241E+02  0.10690430257E+03  0.15567611831E+03  0.95048790233E+02 0.  0.
        -11    1    3    3    0    0  0.33334802312E+02 -0.25762000046E+02  0.47198709165E+02  0.63266166617E+02  0.00000000000E+00 0. -1.
         11    1    3    3    0    0 -0.44982660742E+02  0.16772203663E+02  0.28047443640E+02  0.55600410771E+02  0.00000000000E+00 0.  1.
        -13    1    4    4    0    0  0.15176141346E+02 -0.81244669502E+02  0.10311090279E+03  0.13214715231E+03  0.00000000000E+00 0.  1.
         13    1    4    4    0    0  0.39556051028E+01  0.22881773261E+02  0.37933997789E+01  0.23528966004E+02  0.00000000000E+00 0. -1.
         21    1    1    2  503  501  0.46648696346E+02  0.29624374572E+02  0.13243755609E+03  0.14350404421E+03  0.00000000000E+00 0. -1.
         -1    1    1    2    0  502 -0.54132584365E+02  0.37728318052E+02  0.73137757962E+02  0.98503270569E+02  0.00000000000E+00 0.  1.
<scales pt_clust_5="13000.00000" pt_clust_6="13000.00000" pt_clust_7="13000.00000" pt_clust_8="13000.00000" pt_clust_9="55.26033" pt_clust_10="61.74664"></scales>
<clustering>
<clus scale="   55.260">  1  9  2 -1</clus>
<clus scale="   61.747">  2 10  1 -1</clus>
<clus scale="   90.834">  5  6 -1 -1</clus>
<clus scale="   94.913">  1  5  2 -1</clus>
<clus scale="   95.049">  7  8 -1 -1</clus>
<clus scale="   61.747">  2  5  1 -1</clus>
</clustering>
</event>
<event>
10    2  0.3544405E-006  0.1242121E+03  0.7546771E-02  0.1236832E+00
          4   -1    0    0  503    0 -0.00000000000E+00  0.00000000000E+00  0.30667212901E+03  0.30667212901E+03  0.00000000000E+00 0.  1.
         21   -1    0    0  501  502  0.00000000000E+00 -0.00000000000E+00 -0.17117203563E+03  0.17117203563E+03  0.00000000000E+00 0.  1.
         23    2    1    2    0    0 -0.75537153514E+02  0.15531360017E+02  0.13235577162E+03  0.17883787506E+03  0.92292202105E+02 0.  0.
         23    2    1    2    0    0  0.79104838302E+02  0.33076046402E+02  0.40323704426E+02  0.13102505622E+03  0.90498419490E+02 0.  0.
        -11    1    3    3    0    0 -0.16908303122E+02 -0.37548592804E+02  0.44733145909E+02  0.60801660166E+02  0.00000000000E+00 0.  1.
         11    1    3    3    0    0 -0.58628850392E+02  0.53079952821E+02  0.87622625709E+02  0.11803621489E+03  0.00000000000E+00 0. -1.
        -13    1    4    4    0    0  0.22085599818E+02 -0.26087932798E+02 -0.87957587899E+01  0.35294749322E+02  0.00000000000E+00 0.  1.
         13    1    4    4    0    0  0.57019238484E+02  0.59163979200E+02  0.49119463216E+02  0.95730306897E+02  0.00000000000E+00 0. -1.
         21    1    1    2  503  502 -0.23677659538E+02 -0.32496912373E+02  0.57328764305E+02  0.70023339621E+02  0.00000000000E+00 0.  1.
          4    1    1    2  501    0  0.20109974750E+02 -0.16110494045E+02 -0.94508146964E+02  0.97957893737E+02  0.00000000000E+00 0.  1.
<scales pt_clust_5="13000.00000" pt_clust_6="13000.00000" pt_clust_7="13000.00000" pt_clust_8="13000.00000" pt_clust_9="40.36671" pt_clust_10="25.76740"></scales>
<clustering>
<clus scale="   25.767">  2 10  1 -1</clus>
<clus scale="   40.367">  1  9  2 -1</clus>
<clus scale="   90.498">  7  8 -1 -1</clus>
<clus scale="   92.292">  5  6 -1 -1</clus>
<clus scale="  122.885">  2  7  1 -1</clus>
<clus scale="   25.767">  2  5  1 -1</clus>
</clustering>
</event>
<event>
10    2  0.3544405E-006  0.2159303E+03  0.7546771E-02  0.1163701E+00
          1   -1    0    0  503    0 -0.00000000000E+00  0.00000000000E+00  0.91992723242E+03  0.91992723242E+03  0.00000000000E+00 0. -1.
         21   -1    0    0  501  502  0.00000000000E+00 -0.00000000000E+00 -0.19518958016E+03  0.19518958016E+03  0.00000000000E+00 0. -1.
         23    2    1    2    0    0  0.26960293510E+01  0.62138688752E+02  0.25016597298E+03  0.27516817788E+03  0.96260203959E+02 0.  0.
         23    2    1    2    0    0  0.72688165759E+02  0.15651000197E+03  0.33623372069E+03  0.38921937901E+03  0.93057293662E+02 0.  0.
        -13    1    3    3    0    0  0.21457538452E+02  0.38888897298E+02  0.23928584201E+03  0.24337314248E+03  0.00000000000E+00 0. -1.
         13    1    3    3    0    0 -0.18761509101E+02  0.23249791454E+02  0.10880130962E+02  0.31795035401E+02  0.00000000000E+00 0.  1.
        -13    1    4    4    0    0 -0.82105198030E+00  0.95446265391E+02  0.12416082034E+03  0.15660961979E+03  0.00000000000E+00 0.  1.
         13    1    4    4    0    0  0.73509217740E+02  0.61063736580E+02  0.21207290035E+03  0.23260975921E+03  0.00000000000E+00 0. -1.
         21    1    1    2  503  502  0.90743185514E+02 -0.10080351040E+03  0.19663097328E+03  0.23887112232E+03  0.00000000000E+00 0. -1.
          1    1    1    2  501    0 -0.16612738062E+03 -0.11784518033E+03 -0.58293014687E+02  0.21185813338E+03  0.00000000000E+00 0. -1.
<scales pt_clust_5="13000.00000" pt_clust_6="13000.00000" pt_clust_7="13000.00000" pt_clust_8="13000.00000" pt_clust_9="121.78660" pt_clust_10="194.84925"></scales>
<clustering>
<clus scale="   93.057">  7  8 -1 -1</clus>
<clus scale="   96.260">  5  6 -1 -1</clus>
<clus scale="  114.606">  1  5  2 -1</clus>
<clus scale="  121.787">  1  9  2 -1</clus>
<clus scale="  194.849">  2 10  1 -1</clus>
<clus scale="  194.849">  2  5  1 -1</clus>
</clustering>
</event>
<event>
10    2  0.3544405E-006  0.1864848E+03  0.7546771E-02  0.1180735E+00
          2   -1    0    0  503    0 -0.00000000000E+00  0.00000000000E+00  0.93437268833E+03  0.93437268833E+03  0.00000000000E+00 0. -1.
         21   -1    0    0  501  502  0.00000000000E+00 -0.00000000000E+00 -0.81620862945E+03  0.81620862945E+03  0.00000000000E+00 0. -1.
         23    2    1    2    0    0 -0.34350958383E+02 -0.59889651303E+02  0.65645824869E+03  0.66720713528E+03  0.97268547960E+02 0.  0.
         23    2    1    2    0    0  0.13579428440E+03  0.18681305946E+03  0.12992679472E+03  0.28086290132E+03  0.93079484802E+02 0.  0.
        -13    1    4    4    0    0  0.13846042870E+03  0.13959970201E+03  0.12574318978E+03  0.23338962465E+03  0.00000000000E+00 0. -1.
         13    1    4    4    0    0 -0.26661442998E+01  0.47213357459E+02  0.41836049344E+01  0.47473276675E+02  0.00000000000E+00 0.  1.
        -13    1    3    3    0    0  0.91810537829E+01 -0.73014581697E+02  0.38561907698E+03  0.39257800934E+03  0.00000000000E+00 0.  1.
         13    1    3    3    0    0 -0.43532012166E+02  0.13124930394E+02  0.27083917171E+03  0.27462912594E+03  0.00000000000E+00 0. -1.
         21    1    1    2  503  502 -0.14287346338E+03 -0.20732898965E+02 -0.21667462972E+02  0.14598684389E+03  0.00000000000E+00 0.  1.
          2    1    1    2  501    0  0.41430137361E+02 -0.10619050920E+03 -0.64655352156E+03  0.65652443729E+03  0.00000000000E+00 0. -1.
<scales pt_clust_5="13000.00000" pt_clust_6="13000.00000" pt_clust_7="13000.00000" pt_clust_8="13000.00000" pt_clust_9="161.59455" pt_clust_10="113.98632"></scales>
<clustering>
<clus scale="   93.079">  5  6 -1 -1</clus>
<clus scale="   97.269">  7  8 -1 -1</clus>
<clus scale="  113.986">  2 10  1 -1</clus>
<clus scale="  120.681">  1  7  2 -1</clus>
<clus scale="  161.595">  2  9  1 -1</clus>
<clus scale="  113.986">  2  5  1 -1</clus>
</clustering>
</event>
<event>
10    2  0.3544405E-006  0.1647878E+03  0.7546771E-02  0.1183633E+00
          2   -1    0    0  503    0 -0.00000000000E+00  0.00000000000E+00  0.28079746983E+03  0.28079746983E+03  0.00000000000E+00 0. -1.
         21   -1    0    0  501  502  0.00000000000E+00 -0.00000000000E+00 -0.42020919231E+03  0.42020919231E+03  0.00000000000E+00 0. -1.
         23    2    1    2    0    0  0.13048285357E+03 -0.41896640955E+02  0.65166003734E+02  0.17679746553E+03  0.90717320162E+02 0.  0.
         23    2    1    2    0    0 -0.17427920796E+03 -0.51981798922E+02  0.11287478031E+02  0.20425291278E+03  0.92284860478E+02 0.  0.
        -13    1    4    4    0    0 -0.16466592120E+03 -0.69782820975E+02 -0.40138098395E+01  0.17888716661E+03  0.00000000000E+00 0. -1.
         13    1    4    4    0    0 -0.96132867595E+01  0.17801022052E+02  0.15301287871E+02  0.25365746174E+02  0.00000000000E+00 0.  1.
        -13    1    3    3    0    0  0.98379730221E+02 -0.12002728485E+02  0.10540970178E+01  0.99114821949E+02  0.00000000000E+00 0.  1.
         13    1    3    3    0    0  0.32103123349E+02 -0.29893912471E+02  0.64111906716E+02  0.77682643585E+02  0.00000000000E+00 0. -1.
         21    1    1    2  503  502 -0.44350866206E+02  0.37647598683E+02  0.20353328201E+02  0.61632775280E+02  0.00000000000E+00 0. -1.
          2    1    1    2  501    0  0.88147220595E+02  0.56230841195E+02 -0.23621853244E+03  0.25832350855E+03  0.00000000000E+00 0. -1.
<scales pt_clust_5="13000.00000" pt_clust_6="13000.00000" pt_clust_7="13000.00000" pt_clust_8="13000.00000" pt_clust_9="58.17509" pt_clust_10="103.79693"></scales>
<clustering>
<clus scale="   58.175">  1  9  2 -1</clus>
<clus scale="   90.717">  7  8 -1 -1</clus>
<clus scale="   92.285">  5  6 -1 -1</clus>
<clus scale="  103.797">  2 10  1 -1</clus>
<clus scale="  163.915">  1  7  2 -1</clus>
<clus scale="  103.797">  2  5  1 -1</clus>
</clustering>
</event>
<event>
10    2  0.3544405E-006  0.1024595E+03  0.7546771E-02  0.1275408E+00
         21   -1    0    0  501  502  0.00000000000E+00  0.00000000000E+00  0.35370609529E+03  0.35370609529E+03  0.00000000000E+00 0. -1.
          1   -1    0    0  503    0 -0.00000000000E+00 -0.00000000000E+00 -0.10779794305E+03  0.10779794305E+03  0.00000000000E+00 0. -1.
         23    2    1    2    0    0  0.18683771298E+02  0.18980461440E+02 -0.47551585446E+02  0.10829244676E+03  0.93577558856E+02 0.  0.
         23    2    1    2    0    0 -0.80949207411E+01 -0.91140899696E+01  0.20012168965E+03  0.22143757028E+03  0.94006981055E+02 0.  0.
        -11    1    4    4    0    0 -0.98435237674E+01  0.31215168810E+02  0.23580470362E+02  0.40340058336E+02  0.00000000000E+00 0. -1.
         11    1    4    4    0    0  0.17486030263E+01 -0.40329258780E+02  0.17654121928E+03  0.18109751194E+03  0.00000000000E+00 0.  1.
        -13    1    3    3    0    0 -0.29930280828E+02  0.34122368788E+02 -0.30120227037E+02  0.54473716955E+02  0.00000000000E+00 0.  1.
         13    1    3    3    0    0  0.48614052127E+02 -0.15141907348E+02 -0.17431358410E+02  0.53818729810E+02  0.00000000000E+00 0. -1.
         21    1    1    2  503  502  0.15444672384E+02  0.19204476629E+02 -0.57259012729E+01  0.25300904589E+02  0.00000000000E+00 0. -1.
          1    1    1    2  501    0 -0.26033522942E+02 -0.29070848100E+02  0.99063949314E+02  0.10647311670E+03  0.00000000000E+00 0. -1.
<scales pt_clust_5="13000.00000" pt_clust_6="13000.00000" pt_clust_7="13000.00000" pt_clust_8="13000.00000" pt_clust_9="24.64447" pt_clust_10="38.03594"></scales>
<clustering>
<clus scale="   24.644">  2  9  1 -1</clus>
<clus scale="   38.036">  1 10  2 -1</clus>
<clus scale="   93.578">  7  8 -1 -1</clus>
<clus scale="   94.007">  5  6 -1 -1</clus>
<clus scale="  102.066">  2  7  1 -1</clus>
<clus scale="   38.036">  1  5  2 -1</clus>
</clustering>
</event>
<event>
10    2  0.3544405E-006  0.1132782E+03  0.7546771E-02  0.1261540E+00
         21   -1    0    0  503  502  0.00000000000E+00  0.00000000000E+00  0.20777553268E+03  0.20777553268E+03  0.00000000000E+00 0. -1.
         -3   -1    0    0    0  501 -0.00000000000E+00 -0.00000000000E+00 -0.15777389412E+03  0.15777389412E+03  0.00000000000E+00 0.  1.
         23    2    1    2    0    0 -0.29684013672E+00 -0.48694548905E+02  0.56766306189E+01  0.10490823265E+03  0.92748401254E+02 0.  0.
         23    2    1    2    0    0 -0.95211808830E+01 -0.21872318497E+01  0.93347345148E+02  0.14309792808E+03  0.10801783790E+03 0.  0.
        -11    1    3    3    0    0  0.36094053218E+02 -0.19448012531E+02 -0.25945780949E+02  0.48519989882E+02  0.00000000000E+00 0.  1.
         11    1    3    3    0    0 -0.36390893354E+02 -0.29246536374E+02  0.31622411568E+02  0.56388242767E+02  0.00000000000E+00 0. -1.
        -13    1    4    4    0    0  0.32460919151E+02 -0.18037285081E+02 -0.25473943403E+01  0.37222898103E+02  0.00000000000E+00 0.  1.
         13    1    4    4    0    0 -0.41982100034E+02  0.15850053231E+02  0.95894739488E+02  0.10587502998E+03  0.00000000000E+00 0. -1.
         21    1    1    2  503  501 -0.26237926161E+02 -0.11122451457E+02 -0.33817175851E+02  0.44223738853E+02  0.00000000000E+00 0. -1.
         -3    1    1    2    0  502  0.36055947180E+02  0.62004232211E+02 -0.15205161353E+02  0.73319527215E+02  0.00000000000E+00 0.  1.
<scales pt_clust_5="13000.00000" pt_clust_6="13000.00000" pt_clust_7="13000.00000" pt_clust_8="13000.00000" pt_clust_9="28.49803" pt_clust_10="63.54584"></scales>
<clustering>
<clus scale="   28.498">  2  9  1 -1</clus>
<clus scale="   63.546">  1 10  2 -1</clus>
<clus scale="   92.748">  5  6 -1 -1</clus>
<clus scale="   98.825">  2  5  1 -1</clus>
<clus scale="  108.018">  7  8 -1 -1</clus>
<clus scale="   63.546">  1  5  2 -1</clus>
</clustering>
</event>
<event>
10    2  0.3544405E-006  0.1002325E+03  0.7546771E-02  0.1280354E+00
          2   -1    0    0  503    0 -0.00000000000E+00  0.00000000000E+00  0.46481711278E+03  0.46481711278E+03  0.00000000000E+00 0. -1.
         21   -1    0    0  501  502  0.00000000000E+00 -0.00000000000E+00 -0.56910828819E+02  0.56910828819E+02  0.00000000000E+00 0.  1.
         23    2    1    2    0    0 -0.39226438758E+02 -0.21762342163E+02  0.23999089125E+03  0.26062424183E+03  0.91197886545E+02 0.  0.
         23    2    1    2    0    0  0.72165772070E+01  0.57765030191E+02  0.65792873353E+02  0.12580907367E+03  0.90057443520E+02 0.  0.
        -11    1    3    3    0    0  0.34666021645E+01  0.25651111879E+02  0.23616000224E+02  0.35038726258E+02  0.00000000000E+00 0.  1.
         11    1    3    3    0    0 -0.42693040922E+02 -0.47413454042E+02  0.21637489103E+03  0.22558551557E+03  0.00000000000E+00 0. -1.
        -11    1    4    4    0    0 -0.11669316907E+02  0.23547062006E+02  0.80013339444E+02  0.84218593999E+02  0.00000000000E+00 0. -1.
         11    1    4    4    0    0  0.18885894114E+02  0.34217968184E+02 -0.14220466091E+02  0.41590479668E+02  0.00000000000E+00 0.  1.
         21    1    1    2  503  502  0.30628499429E+02 -0.13839817277E+02  0.10734427117E+03  0.11248305683E+03  0.00000000000E+00 0. -1.
          2    1    1    2  501    0  0.13813621217E+01 -0.22162870751E+02 -0.52217518109E+01  0.22811569284E+02  0.00000000000E+00 0. -1.
<scales pt_clust_5="13000.00000" pt_clust_6="13000.00000" pt_clust_7="13000.00000" pt_clust_8="13000.00000" pt_clust_9="34.25245" pt_clust_10="22.20588"></scales>
<clustering>
<clus scale="   22.206">  2 10  1 -1</clus>
<clus scale="   34.252">  1  9  2 -1</clus>
<clus scale="   90.057">  7  8 -1 -1</clus>
<clus scale="   91.198">  5  6 -1 -1</clus>
<clus scale="   99.196">  2  7  1 -1</clus>
<clus scale="   22.206">  2  5  1 -1</clus>
</clustering>
</event>
<event>
10    2  0.3544405E-006  0.3057899E+03  0.7546771E-02  0.1082559E+00
         21   -1    0    0  501  502  0.00000000000E+00  0.00000000000E+00  0.26564141659E+03  0.26564141659E+03  0.00000000000E+00 0. -1.
          2   -1    0    0  503    0 -0.00000000000E+00 -0.00000000000E+00 -0.74259556580E+03  0.74259556580E+03  0.00000000000E+00 0. -1.
         23    2    1    2    0    0  0.28441295967E+03 -0.96752599189E+02 -0.39564768471E+03  0.50428536321E+03  0.86688177132E+02 0.  0.
         23    2    1    2    0    0 -0.31572792986E+03  0.96903657083E+02 -0.12511505151E+01  0.34274837166E+03  0.91653894891E+02 0.  0.
        -11    1    4    4    0    0 -0.16367454169E+02  0.32707098226E+02  0.48073658842E+00  0.36577027462E+02  0.00000000000E+00 0.  1.
         11    1    4    4    0    0 -0.29936047570E+03  0.64196558858E+02 -0.17318871035E+01  0.30617134420E+03  0.00000000000E+00 0. -1.
        -13    1    3    3    0    0  0.12348071006E+03  0.19758749426E+00 -0.17987159174E+03  0.21817725434E+03  0.00000000000E+00 0. -1.
         13    1    3    3    0    0  0.16093224961E+03 -0.96950186683E+02 -0.21577609297E+03  0.28610810887E+03  0.00000000000E+00 0.  1.
         21    1    1    2  503  502 -0.29184437046E+02  0.10539012545E+02 -0.93326531700E+02  0.98349599238E+02  0.00000000000E+00 0. -1.
          2    1    1    2  501    0  0.60499407240E+02 -0.10690070439E+02  0.13271217712E+02  0.62853648279E+02  0.00000000000E+00 0. -1.
<scales pt_clust_5="13000.00000" pt_clust_6="13000.00000" pt_clust_7="13000.00000" pt_clust_8="13000.00000" pt_clust_9="31.02905" pt_clust_10="60.26503"></scales>
<clustering>
<clus scale="   31.029">  2  9  1 -1</clus>
<clus scale="   60.265">  1 10  2 -1</clus>
<clus scale="   86.688">  7  8 -1 -1</clus>
<clus scale="   91.654">  5  6 -1 -1</clus>
<clus scale="  304.338">  2  7  1 -1</clus>
<clus scale="   60.265">  1  5  2 -1</clus>
</clustering>
</event>
<event>
10    2  0.3544405E-006  0.1016437E+03  0.7546771E-02  0.1280054E+00
         -2   -1    0    0    0  501 -0.00000000000E+00  0.00000000000E+00  0.87365694391E+02  0.87365694391E+02  0.00000000000E+00 0.  1.
         21   -1    0    0  503  502  0.00000000000E+00 -0.00000000000E+00 -0.83184734118E+03  0.83184734118E+03  0.00000000000E+00 0.  1.
         23    2    1    2    0    0  0.19182816668E+01 -0.53853383867E+02 -0.16181489288E+03  0.19144423881E+03  0.86965339404E+02 0.  0.
         23    2    1    2    0    0  0.37022078644E+02  0.12420915976E+02 -0.32328309068E+03  0.33879077969E+03  0.93500386210E+02 0.  0.
        -13    1    3    3    0    0  0.40436554675E+02 -0.20716848820E+02 -0.10932515797E+03  0.11839042589E+03  0.00000000000E+00 0.  1.
         13    1    3    3    0    0 -0.38518273008E+02 -0.33136535048E+02 -0.52489734917E+02  0.73053812920E+02  0.00000000000E+00 0. -1.
        -13    1    4    4    0    0 -0.22020629299E+02 -0.20058641740E+02 -0.14869671827E+03  0.15165082014E+03  0.00000000000E+00 0. -1.
         13    1    4    4    0    0  0.59042707943E+02  0.32479557715E+02 -0.17458637241E+03  0.18713995955E+03  0.00000000000E+00 0.  1.
         21    1    1    2  503  501  0.39257414108E+02 -0.16011417654E+01  0.51931699840E+02  0.65119963649E+02  0.00000000000E+00 0.  1.
         -2    1    1    2    0  502 -0.78197774418E+02  0.43033609657E+02 -0.31131536306E+03  0.32385805342E+03  0.00000000000E+00 0.  1.
<scales pt_clust_5="13000.00000" pt_clust_6="13000.00000" pt_clust_7="13000.00000" pt_clust_8="13000.00000" pt_clust_9="39.29005" pt_clust_10="81.69892"></scales>
<clustering>
<clus scale="   39.290">  1  9  2 -1</clus>
<clus scale="   81.699">  2 10  1 -1</clus>
<clus scale="   86.965">  5  6 -1 -1</clus>
<clus scale="   93.500">  7  8 -1 -1</clus>
<clus scale="   95.667">  1  5  2 -1</clus>
<clus scale="   81.699">  2  5  1 -1</clus>
</clustering>
</event>
<event>
10    2  0.3544405E-006  0.1325043E+03  0.7546771E-02  0.1223874E+00
         21   -1    0    0  503  502  0.00000000000E+00  0.00000000000E+00  0.39668063135E+03  0.39668063135E+03  0.00000000000E+00 0. -1.
          2   -1    0    0  502    0 -0.00000000000E+00 -0.00000000000E+00 -0.15169206817E+03  0.15169206817E+03  0.00000000000E+00 0. -1.
         23    2    1    2    0    0 -0.47336762602E+02 -0.71270913637E+02  0.21464076140E+01  0.12575008826E+03  0.92131240132E+02 0.  0.
         23    2    1    2    0    0  0.13635432310E+03  0.22526780750E+02  0.63589641558E+02  0.17767295998E+03  0.91782792042E+02 0.  0.
        -11    1    4    4    0    0  0.74280145989E+02 -0.33837456975E+02  0.24952122012E+02  0.85352925993E+02  0.00000000000E+00 0. -1.
         11    1    4    4    0    0  0.62074177111E+02  0.56364237725E+02  0.38637519546E+02  0.92320033985E+02  0.00000000000E+00 0.  1.
        -11    1    3    3    0    0 -0.38927986492E+01  0.22184990484E+02  0.27265070809E+01  0.22688356595E+02  0.00000000000E+00 0.  1.
         11    1    3    3    0    0 -0.43443963953E+02 -0.93455904121E+02 -0.58009946695E+00  0.10306173167E+03  0.00000000000E+00 0. -1.
         21    1    1    2  503  501  0.11586782224E+02 -0.32730749510E+02  0.21341979074E+02  0.40755803962E+02  0.00000000000E+00 0.  1.
          2    1    1    2  501    0 -0.10060434272E+03  0.81474882397E+02  0.15791053494E+03  0.20419384731E+03  0.00000000000E+00 0. -1.
<scales pt_clust_5="13000.00000" pt_clust_6="13000.00000" pt_clust_7="13000.00000" pt_clust_8="13000.00000" pt_clust_9="34.72111" pt_clust_10="115.15012"></scales>
<clustering>
<clus scale="   34.721">  1  9  2 -1</clus>
<clus scale="   91.783">  5  6 -1 -1</clus>
<clus scale="   92.131">  7  8 -1 -1</clus>
<clus scale="  115.150">  1 10  2 -1</clus>
<clus scale="  132.262">  1  5  2 -1</clus>
<clus scale="   34.721">  1  5  2 -1</clus>
</clustering>
</event>
<event>
10    2  0.3544405E-006  0.9821521E+02  0.7546771E-02  0.1284399E+00
         -3   -1    0    0    0  501 -0.00000000000E+00  0.00000000000E+00  0.21301025173E+03  0.21301025173E+03  0.00000000000E+00 0.  1.
         21   -1    0    0  503  502  0.00000000000E+00 -0.00000000000E+00 -0.91096752293E+02  0.91096752293E+02  0.00000000000E+00 0. -1.
         23    2    1    2    0    0 -0.27508531448E+02 -0.14144156057E+02  0.75032772424E+02  0.12171114360E+03  0.90702310250E+02 0.  0.
         23    2    1    2    0    0  0.53127278254E+02 -0.11205116808E+02  0.65587217579E+01  0.10643416881E+03  0.91308012359E+02 0.  0.
        -11    1    3    3    0    0 -0.31060301650E+02 -0.34480511005E+02  0.26953920992E+01  0.46485622684E+02  0.00000000000E+00 0. -1.
         11    1    3    3    0    0  0.35517702024E+01  0.20336354948E+02  0.72337380325E+02  0.75225520911E+02  0.00000000000E+00 0.  1.
        -13    1    4    4    0    0  0.94965195894E+01 -0.47240992527E+02 -0.57344172185E+01  0.48526063101E+02  0.00000000000E+00 0. -1.
         13    1    4    4    0    0  0.43630758664E+02  0.36035875719E+02  0.12293138976E+02  0.57908105705E+02  0.00000000000E+00 0.  1.
         21    1    1    2  503  501 -0.20937844868E+02 -0.96574263975E+01  0.96043173479E+00  0.23077730856E+02  0.00000000000E+00 0.  1.
         -3    1    1    2    0  502 -0.46809019377E+01  0.35006699263E+02  0.39361573516E+02  0.52883960762E+02  0.00000000000E+00 0.  1.
<scales pt_clust_5="13000.00000" pt_clust_6="13000.00000" pt_clust_7="13000.00000" pt_clust_8="13000.00000" pt_clust_9="23.05774" pt_clust_10="34.79391"></scales>
<clustering>
<clus scale="   23.058">  2  9  1 -1</clus>
<clus scale="   34.794">  2 10  1 -1</clus>
<clus scale="   90.702">  5  6 -1 -1</clus>
<clus scale="   91.308">  7  8 -1 -1</clus>
<clus scale="   97.652">  1  5  2 -1</clus>
<clus scale="   23.058">  2  5  1 -1</clus>
</clustering>
</event>
<event>
10    2  0.3544405E-006  0.1023804E+03  0.7546771E-02  0.1280419E+00
         21   -1    0    0  501  502  0.00000000000E+00  0.00000000000E+00  0.29102150208E+03  0.29102150208E+03  0.00000000000E+00 0.  1.
          2   -1    0    0  503    0 -0.00000000000E+00 -0.00000000000E+00 -0.26880788271E+03  0.26880788271E+03  0.00000000000E+00 0. -1.
         23    2    1    2    0    0  0.35837886936E+02  0.12831322820E+02  0.59172892673E+02  0.11696783263E+03  0.93440064526E+02 0.  0.
         23    2    1    2    0    0 -0.44428197545E+02 -0.29771861041E+02  0.74548989483E+02  0.12373437653E+03  0.83020573687E+02 0.  0.
        -13    1    4    4    0    0 -0.26742708261E+02 -0.41705911674E+02  0.86201276909E+02  0.99424421821E+02  0.00000000000E+00 0.  1.
         13    1    4    4    0    0 -0.17685489284E+02  0.11934050633E+02 -0.11652287425E+02  0.24309954709E+02  0.00000000000E+00 0. -1.
        -13    1    3    3    0    0 -0.19576136828E+02  0.32336445573E+02  0.70932589895E+01  0.38460176397E+02  0.00000000000E+00 0. -1.
         13    1    3    3    0    0  0.55414023764E+02 -0.19505122753E+02  0.52079633683E+02  0.78507656237E+02  0.00000000000E+00 0.  1.
         21    1    1    2  503  502 -0.14642025252E+02 -0.25435233621E+02 -0.20860997010E+03  0.21066432930E+03  0.00000000000E+00 0. -1.
          2    1    1    2  501    0  0.23232335862E+02  0.42375771842E+02  0.97101707319E+02  0.10846284633E+03  0.00000000000E+00 0. -1.
<scales pt_clust_5="13000.00000" pt_clust_6="13000.00000" pt_clust_7="13000.00000" pt_clust_8="13000.00000" pt_clust_9="29.34859" pt_clust_10="45.50956"></scales>
<clustering>
<clus scale="   29.349">  2  9  1 -1</clus>
<clus scale="   45.510">  1 10  2 -1</clus>
<clus scale="   83.021">  5  6 -1 -1</clus>
<clus scale="   92.968">  1  5  2 -1</clus>
<clus scale="   93.440">  7  8 -1 -1</clus>
<clus scale="   45.510">  1  5  2 -1</clus>
</clustering>
</event>
<event>
10    2  0.3544405E-006  0.1553497E+03  0.7546771E-02  0.1194402E+00
         21   -1    0    0  503  502  0.00000000000E+00  0.00000000000E+00  0.31702034433E+03  0.31702034433E+03  0.00000000000E+00 0.  1.
         -3   -1    0    0    0  501 -0.00000000000E+00 -0.00000000000E+00 -0.17754635881E+03  0.17754635881E+03  0.00000000000E+00 0.  1.
         23    2    1    2    0    0 -0.88223019710E+02 -0.47915907471E+02  0.19223039683E+02  0.13797932055E+03  0.92679729441E+02 0.  0.
         23    2    1    2    0    0  0.16395774591E+03  0.77956670211E+02  0.87662359628E+02  0.22272050996E+03  0.94659132602E+02 0.  0.
        -11    1    4    4    0    0  0.43129603510E+02 -0.47405930905E+01 -0.12697243848E+02  0.45209024797E+02  0.00000000000E+00 0. -1.
         11    1    4    4    0    0  0.12082814240E+03  0.82697263302E+02  0.10035960348E+03  0.17751148516E+03  0.00000000000E+00 0.  1.
        -11    1    3    3    0    0 -0.57683842911E+02 -0.70682544143E+02 -0.73597196421E+01  0.91529302700E+02  0.00000000000E+00 0. -1.
         11    1    3    3    0    0 -0.30539176798E+02  0.22766636672E+02  0.26582759325E+02  0.46450017850E+02  0.00000000000E+00 0.  1.
         21    1    1    2  503  501  0.21476652332E+02  0.11217016586E+02  0.55864067127E+01  0.24865156272E+02  0.00000000000E+00 0.  1.
         -3    1    1    2    0  502 -0.97211378537E+02 -0.41257779327E+02  0.27002179502E+02  0.10900171636E+03  0.00000000000E+00 0.  1.
<scales pt_clust_5="13000.00000" pt_clust_6="13000.00000" pt_clust_7="13000.00000" pt_clust_8="13000.00000" pt_clust_9="24.22949" pt_clust_10="99.70792"></scales>
<clustering>
<clus scale="   24.229">  2  9  1 -1</clus>
<clus scale="   92.680">  7  8 -1 -1</clus>
<clus scale="   94.659">  5  6 -1 -1</clus>
<clus scale="   99.708">  1 10  2 -1</clus>
<clus scale="  154.152">  2  7  1 -1</clus>
<clus scale="   99.708">  1  5  2 -1</clus>
</clustering>
</event>
<event>
10    2  0.3544405E-006  0.1160049E+03  0.7546771E-02  0.1251775E+00
          3   -1    0    0  503    0 -0.00000000000E+00  0.00000000000E+00  0.15126886254E+03  0.15126886254E+03  0.00000000000E+00 0. -1.
         21   -1    0    0  501  502  0.00000000000E+00 -0.00000000000E+00 -0.32785833542E+03  0.32785833542E+03  0.00000000000E+00 0. -1.
         23    2    1    2    0    0  0.16299423365E+02  0.54579221980E+02  0.36109718961E+02  0.11267928615E+03  0.90267087302E+02 0.  0.
         23    2    1    2    0    0 -0.42315735727E+02 -0.10215751474E+03 -0.16941785049E+03  0.22378314011E+03  0.95654097797E+02 0.  0.
        -13    1    3    3    0    0  0.31029805110E+02  0.74748102967E+02  0.21480956324E+02  0.83735053513E+02  0.00000000000E+00 0. -1.
         13    1    3    3    0    0 -0.14730381746E+02 -0.20168880987E+02  0.14628762638E+02  0.28944232637E+02  0.00000000000E+00 0.  1.
        -13    1    4    4    0    0 -0.12200131131E+02  0.17988191276E+02 -0.33087105502E+02  0.39587558342E+02  0.00000000000E+00 0.  1.
         13    1    4    4    0    0 -0.30115604595E+02 -0.12014570602E+03 -0.13633074499E+03  0.18419558177E+03  0.00000000000E+00 0. -1.
         21    1    1    2  503  502  0.62800388607E+02  0.64098329662E+02 -0.48502372338E+02  0.10200472929E+03  0.00000000000E+00 0. -1.
          3    1    1    2  501    0 -0.36784076245E+02 -0.16520036902E+02  0.52210309928E+01  0.40660042414E+02  0.00000000000E+00 0. -1.
<scales pt_clust_5="13000.00000" pt_clust_6="13000.00000" pt_clust_7="13000.00000" pt_clust_8="13000.00000" pt_clust_9="80.70499" pt_clust_10="40.32346"></scales>
<clustering>
<clus scale="   40.323">  2 10  1 -1</clus>
<clus scale="   80.705">  2  9  1 -1</clus>
<clus scale="   90.267">  5  6 -1 -1</clus>
<clus scale="   95.654">  7  8 -1 -1</clus>
<clus scale="  111.605">  1  5  2 -1</clus>
<clus scale="   40.323">  2  5  1 -1</clus>
</clustering>
</event>
<event>
10    2  0.3544405E-006  0.1324628E+03  0.7546771E-02  0.1224755E+00
         -2   -1    0    0    0  501 -0.00000000000E+00  0.00000000000E+00  0.48269131874E+02  0.48269131874E+02  0.00000000000E+00 0.  1.
         21   -1    0    0  503  502  0.00000000000E+00 -0.00000000000E+00 -0.85916105472E+03  0.85916105472E+03  0.00000000000E+00 0.  1.
         23    2    1    2    0    0 -0.80773707955E+02 -0.38439768142E+02 -0.14964585402E+03  0.19519636462E+03  0.87782295837E+02 0.  0.
         23    2    1    2    0    0  0.55506045905E+02  0.12006404243E+03 -0.42878582625E+03  0.45794261292E+03  0.91421313259E+02 0.  0.
        -11    1    4    4    0    0  0.37925912225E+02  0.18940989356E+02 -0.23359517954E+03  0.23741070701E+03  0.00000000000E+00 0. -1.
         11    1    4    4    0    0  0.17580133680E+02  0.10112305308E+03 -0.19519064671E+03  0.22053190591E+03  0.00000000000E+00 0.  1.
        -13    1    3    3    0    0  0.65324260241E+01 -0.25543552423E+02 -0.75363562974E+02  0.79842421583E+02  0.00000000000E+00 0. -1.
         13    1    3    3    0    0 -0.87306133979E+02 -0.12896215719E+02 -0.74282291047E+02  0.11535394303E+03  0.00000000000E+00 0.  1.
         21    1    1    2  503  501  0.42958267383E+02 -0.47858506751E+02 -0.13174601685E+03  0.14660444182E+03  0.00000000000E+00 0.  1.
         -2    1    1    2    0  502 -0.17690605334E+02 -0.33765767540E+02 -0.10071422572E+03  0.10768676724E+03  0.00000000000E+00 0.  1.
<scales pt_clust_5="13000.00000" pt_clust_6="13000.00000" pt_clust_7="13000.00000" pt_clust_8="13000.00000" pt_clust_9="67.08832" pt_clust_10="38.11935"></scales>
<clustering>
<clus scale="   38.119">  2 10  1 -1</clus>
<clus scale="   67.088">  2  9  1 -1</clus>
<clus scale="   87.782">  7  8 -1 -1</clus>
<clus scale="   91.421">  5  6 -1 -1</clus>
<clus scale="  129.978">  1  7  2 -1</clus>
<clus scale="   38.119">  2  5  1 -1</clus>
</clustering>
</event>
<event>
10    2  0.3544405E-006  0.1427516E+03  0.7546771E-02  0.1220250E+00
         21   -1    0    0  501  502  0.00000000000E+00  0.00000000000E+00  0.57228386203E+03  0.57228386203E+03  0.00000000000E+00 0.  1.
          1   -1    0    0  503    0 -0.00000000000E+00 -0.00000000000E+00 -0.88614531758E+02  0.88614531758E+02  0.00000000000E+00 0. -1.
         23    2    1    2    0    0  0.81128265048E+02  0.16910499313E+02  0.91440523073E+02  0.15296702473E+03  0.90386840955E+02 0.  0.
         23    2    1    2    0    0  0.18483962690E+02 -0.93675510741E+02  0.16315331961E+03  0.21018018908E+03  0.91869189570E+02 0.  0.
        -13    1    3    3    0    0  0.49059229113E+02 -0.35583044194E+02  0.38424824139E+02  0.71759515783E+02  0.00000000000E+00 0.  1.
         13    1    3    3    0    0  0.32069035935E+02  0.52493543507E+02  0.53015698935E+02  0.81207508946E+02  0.00000000000E+00 0. -1.
        -13    1    4    4    0    0 -0.12007708917E+02 -0.32845640746E+02  0.12974768473E+03  0.13437813394E+03  0.00000000000E+00 0. -1.
         13    1    4    4    0    0  0.30491671607E+02 -0.60829869995E+02  0.33405634880E+02  0.75802055135E+02  0.00000000000E+00 0.  1.
         21    1    1    2  503  502 -0.26763605574E+02 -0.21151993933E+02 -0.43075903134E+01  0.34383902701E+02  0.00000000000E+00 0.  1.
          1    1    1    2  501    0 -0.72848622164E+02  0.97917005361E+02  0.23338307790E+03  0.26336727728E+03  0.00000000000E+00 0. -1.
<scales pt_clust_5="13000.00000" pt_clust_6="13000.00000" pt_clust_7="13000.00000" pt_clust_8="13000.00000" pt_clust_9="34.11301" pt_clust_10="109.26147"></scales>
<clustering>
<clus scale="   34.113">  2  9  1 -1</clus>
<clus scale="   90.387">  5  6 -1 -1</clus>
<clus scale="   91.869">  7  8 -1 -1</clus>
<clus scale="  114.109">  2  5  1 -1</clus>
<clus scale="  109.261">  1 10  2 -1</clus>
<clus scale="  109.261">  1  5  2 -1</clus>
</clustering>
</event>
<event>
10    2  0.3544405E-006  0.1052103E+03  0.7546771E-02  0.1270256E+00
          2   -1    0    0  503    0 -0.00000000000E+00  0.00000000000E+00  0.55479220905E+03  0.55479220905E+03  0.00000000000E+00 0. -1.
         21   -1    0    0  501  502  0.00000000000E+00 -0.00000000000E+00 -0.59173594815E+02  0.59173594815E+02  0.00000000000E+00 0. -1.
         23    2    1    2    0    0 -0.25462164303E+02  0.14589056054E+02  0.21217659529E+03  0.23314124461E+03  0.92058513893E+02 0.  0.
         23    2    1    2    0    0  0.26581530348E+02 -0.83457579641E+02  0.11710550780E+03  0.17212563098E+03  0.90784291189E+02 0.  0.
        -11    1    4    4    0    0 -0.27104082010E+02 -0.52226360932E+02  0.81543075195E+02  0.10055594040E+03  0.00000000000E+00 0. -1.
         11    1    4    4    0    0  0.53685612357E+02 -0.31231218709E+02  0.35562432606E+02  0.71569690575E+02  0.00000000000E+00 0.  1.
        -11    1    3    3    0    0 -0.50137971151E+02 -0.20103615686E+02  0.12159096774E+03  0.13305012195E+03  0.00000000000E+00 0.  1.
         11    1    3    3    0    0  0.24675806849E+02  0.34692671740E+02  0.90585627547E+02  0.10009112265E+03  0.00000000000E+00 0. -1.
         21    1    1    2  503  502 -0.84658242058E+01  0.21689936055E+02  0.15863505692E+03  0.16033466497E+03  0.00000000000E+00 0.  1.
          2    1    1    2  501    0  0.73464581610E+01  0.47178587532E+02  0.77014542242E+01  0.48364263317E+02  0.00000000000E+00 0. -1.
<scales pt_clust_5="13000.00000" pt_clust_6="13000.00000" pt_clust_7="13000.00000" pt_clust_8="13000.00000" pt_clust_9="23.28355" pt_clust_10="49.18158"></scales>
<clustering>
<clus scale="   23.284">  1  9  2 -1</clus>
<clus scale="   49.182">  2 10  1 -1</clus>
<clus scale="   90.784">  5  6 -1 -1</clus>
<clus scale="   92.059">  7  8 -1 -1</clus>
<clus scale="  104.097">  2  5  1 -1</clus>
<clus scale="   49.182">  2  5  1 -1</clus>
</clustering>
</event>
<event>
10    2  0.3544405E-006  0.1228733E+03  0.7546771E-02  0.1238880E+00
          2   -1    0    0  503    0 -0.00000000000E+00  0.00000000000E+00  0.40878449700E+03  0.40878449700E+03  0.00000000000E+00 0. -1.
         21   -1    0    0  501  502  0.00000000000E+00 -0.00000000000E+00 -0.12475758340E+03  0.12475758340E+03  0.00000000000E+00 0. -1.
         23    2    1    2    0    0 -0.92618307261E+02  0.11802177057E+02  0.19415436226E+03  0.23337344123E+03  0.89720702531E+02 0.  0.
         23    2    1    2    0    0  0.49745984559E+02 -0.40961752888E+02  0.53411780289E+02  0.12157975455E+03  0.88183276549E+02 0.  0.
        -13    1    4    4    0    0  0.16465970397E+02  0.16188655517E+02  0.50329478442E+02  0.55373794785E+02  0.00000000000E+00 0.  1.
         13    1    4    4    0    0  0.33280014162E+02 -0.57150408405E+02  0.30823018461E+01  0.66205959763E+02  0.00000000000E+00 0. -1.
        -13    1    3    3    0    0 -0.17072332951E+02  0.22986000812E+02  0.45824735354E+01  0.28996893789E+02  0.00000000000E+00 0.  1.
         13    1    3    3    0    0 -0.75545974310E+02 -0.11183823754E+02  0.18957188873E+03  0.20437654744E+03  0.00000000000E+00 0. -1.
         21    1    1    2  503  502 -0.12001919359E+02  0.27288392512E+02  0.94263653515E+02  0.98865255820E+02  0.00000000000E+00 0. -1.
          2    1    1    2  501    0  0.54874242061E+02  0.18711833179E+01 -0.57802882467E+02  0.79723628808E+02  0.00000000000E+00 0. -1.
<scales pt_clust_5="13000.00000" pt_clust_6="13000.00000" pt_clust_7="13000.00000" pt_clust_8="13000.00000" pt_clust_9="29.81111" pt_clust_10="54.52636"></scales>
<clustering>
<clus scale="   29.811">  1  9  2 -1</clus>
<clus scale="   54.526">  2 10  1 -1</clus>
<clus scale="   88.183">  5  6 -1 -1</clus>
<clus scale="   89.721">  7  8 -1 -1</clus>
<clus scale="  121.755">  2  5  1 -1</clus>
<clus scale="   54.526">  2  5  1 -1</clus>
</clustering>
</event>
<event>
10    2  0.3544405E-006  0.1611235E+03  0.7546771E-02  0.1188098E+00
         -3   -1    0    0    0  501 -0.00000000000E+00  0.00000000000E+00  0.69586110993E+02  0.69586110993E+02  0.00000000000E+00 0.  1.
         21   -1    0    0  503  502  0.00000000000E+00 -0.00000000000E+00 -0.87490069896E+03  0.87490069896E+03  0.00000000000E+00 0.  1.
         23    2    1    2    0    0  0.11752937060E+03 -0.26590609846E+01 -0.90938722815E+02  0.17281010896E+03  0.88166086985E+02 0.  0.
         23    2    1    2    0    0 -0.12388349881E+03 -0.38867027005E+02 -0.43644554361E+03  0.46461686125E+03  0.92338226935E+02 0.  0.
        -11    1    3    3    0    0  0.11377773038E+03 -0.23978341468E+02 -0.50145029980E+02  0.12662881514E+03  0.00000000000E+00 0.  1.
         11    1    3    3    0    0  0.37516402159E+01  0.21319280483E+02 -0.40793692835E+02  0.46181293829E+02  0.00000000000E+00 0. -1.
        -13    1    4    4    0    0 -0.87888243965E+02  0.58919082589E+01 -0.34937539673E+03  0.36030851482E+03  0.00000000000E+00 0. -1.
         13    1    4    4    0    0 -0.35995254845E+02 -0.44758935264E+02 -0.87070146883E+02  0.10430834643E+03  0.00000000000E+00 0.  1.
         21    1    1    2  503  501  0.27256763585E+02  0.83795557166E+01 -0.22456855391E+01  0.28604041999E+02  0.00000000000E+00 0.  1.
         -3    1    1    2    0  502 -0.20902635375E+02  0.33146532273E+02 -0.27568463600E+03  0.27845579774E+03  0.00000000000E+00 0.  1.
<scales pt_clust_5="13000.00000" pt_clust_6="13000.00000" pt_clust_7="13000.00000" pt_clust_8="13000.00000" pt_clust_9="28.51575" pt_clust_10="39.00973"></scales>
<clustering>
<clus scale="   28.516">  1  9  2 -1</clus>
<clus scale="   39.010">  2 10  1 -1</clus>
<clus scale="   88.166">  5  6 -1 -1</clus>
<clus scale="   92.338">  7  8 -1 -1</clus>
<clus scale="  158.769">  1  5  2 -1</clus>
<clus scale="   39.010">  2  5  1 -1</clus>
</clustering>
</event>
<event>
10    2  0.3544405E-006  0.2072704E+03  0.7546771E-02  0.1146273E+00
          2   -1    0    0  503    0 -0.00000000000E+00  0.00000000000E+00  0.14500946158E+04  0.14500946158E+04  0.00000000000E+00 0. -1.
         21   -1    0    0  501  502  0.00000000000E+00 -0.00000000000E+00 -0.25256621222E+03  0.25256621222E+03  0.00000000000E+00 0. -1.
         23    2    1    2    0    0  0.32125726718E+02 -0.12501737276E+03  0.40691368329E+03  0.44207231639E+03  0.11483806624E+03 0.  0.
         23    2    1    2    0    0 -0.70562529959E+02  0.22278049434E+03  0.66513810693E+03  0.71085666877E+03  0.91094911827E+02 0.  0.
        -11    1    3    3    0    0  0.74920178163E+02 -0.68587529384E+02  0.25388953612E+03  0.27345416222E+03  0.00000000000E+00 0.  1.
         11    1    3    3    0    0 -0.42794451446E+02 -0.56429843373E+02  0.15302414717E+03  0.16861815417E+03  0.00000000000E+00 0. -1.
        -13    1    4    4    0    0 -0.27939112250E+01  0.15250667202E+03  0.38010251377E+03  0.40956563812E+03  0.00000000000E+00 0.  1.
         13    1    4    4    0    0 -0.67768618734E+02  0.70273822317E+02  0.28503559315E+03  0.30129103065E+03  0.00000000000E+00 0. -1.
         21    1    1    2  503  502  0.44890405396E+02  0.34319897399E+02  0.31422654564E+03  0.31926685678E+03  0.00000000000E+00 0.  1.
          2    1    1    2  501    0 -0.64536021552E+01 -0.13208301898E+03 -0.18874993227E+03  0.23046498610E+03  0.00000000000E+00 0. -1.
<scales pt_clust_5="13000.00000" pt_clust_6="13000.00000" pt_clust_7="13000.00000" pt_clust_8="13000.00000" pt_clust_9="56.50667" pt_clust_10="131.57182"></scales>
<clustering>
<clus scale="   56.507">  1  9  2 -1</clus>
<clus scale="   91.095">  7  8 -1 -1</clus>
<clus scale="  114.838">  5  6 -1 -1</clus>
<clus scale="  131.572">  2 10  1 -1</clus>
<clus scale="  195.119">  2  7  1 -1</clus>
<clus scale="  131.572">  2  5  1 -1</clus>
</clustering>
</event>
<event>
10    2  0.3544405E-006  0.9498338E+02  0.7546771E-02  0.1292784E+00
          2   -1    0    0  503    0 -0.00000000000E+00  0.00000000000E+00  0.25351449144E+03  0.25351449144E+03  0.00000000000E+00 0. -1.
         21   -1    0    0  501  502  0.00000000000E+00 -0.00000000000E+00 -0.22005944469E+03  0.22005944469E+03  0.00000000000E+00 0.  1.
         23    2    1    2    0    0 -0.29461296793E+02  0.32538572869E+02 -0.15404615128E+02  0.10370820562E+03  0.92689605740E+02 0.  0.
         23    2    1    2    0    0 -0.18852163330E+02 -0.22076411971E+02 -0.56919281696E+02  0.11027237093E+03  0.89874463189E+02 0.  0.
        -11    1    4    4    0    0  0.84323381145E+01  0.32089905143E+02 -0.26257736436E+02  0.42312351162E+02  0.00000000000E+00 0.  1.
         11    1    4    4    0    0 -0.27284501444E+02 -0.54166317114E+02 -0.30661545260E+02  0.67960019765E+02  0.00000000000E+00 0. -1.
        -13    1    3    3    0    0 -0.92416240266E+01  0.38016970150E+02  0.32860345410E+02  0.51093051724E+02  0.00000000000E+00 0.  1.
         13    1    3    3    0    0 -0.20219672766E+02 -0.54783972815E+01 -0.48264960538E+02  0.52615153894E+02  0.00000000000E+00 0. -1.
         21    1    1    2  503  502  0.51268657357E+02 -0.34628144157E+02  0.17531890592E+03  0.18591477179E+03  0.00000000000E+00 0. -1.
          2    1    1    2  501    0 -0.29551972341E+01  0.24165983259E+02 -0.69539962347E+02  0.73678587804E+02  0.00000000000E+00 0. -1.
<scales pt_clust_5="13000.00000" pt_clust_6="13000.00000" pt_clust_7="13000.00000" pt_clust_8="13000.00000" pt_clust_9="61.30085" pt_clust_10="24.34600"></scales>
<clustering>
<clus scale="   24.346">  2 10  1 -1</clus>
<clus scale="   61.301">  1  9  2 -1</clus>
<clus scale="   89.874">  5  6 -1 -1</clus>
<clus scale="   92.238">  2  5  1 -1</clus>
<clus scale="   92.690">  7  8 -1 -1</clus>
<clus scale="   24.346">  2  5  1 -1</clus>
</clustering>
</event>
<event>
10    2  0.3544405E-006  0.9982320E+02  0.7546771E-02  0.1280788E+00
         21   -1    0    0  501  502  0.00000000000E+00  0.00000000000E+00  0.15547726869E+03  0.15547726869E+03  0.00000000000E+00 0.  1.
          1   -1    0    0  503    0 -0.00000000000E+00 -0.00000000000E+00 -0.12898405197E+03  0.12898405197E+03  0.00000000000E+00 0. -1.
         23    2    1    2    0    0 -0.89355792067E+01 -0.35604663750E+02 -0.43539799189E+02  0.10668897299E+03  0.90217992590E+02 0.  0.
         23    2    1    2    0    0  0.22357067686E+02  0.20054048467E+02  0.72724062334E+02  0.11989719122E+03  0.90468469009E+02 0.  0.
        -11    1    4    4    0    0 -0.11323117360E+02 -0.17348108167E+02 -0.10047235012E+02  0.23024264920E+02  0.00000000000E+00 0.  1.
         11    1    4    4    0    0  0.33680185047E+02  0.37402156635E+02  0.82771297346E+02  0.96872926301E+02  0.00000000000E+00 0. -1.
        -13    1    3    3    0    0  0.29729834298E+02  0.10313910915E+01 -0.44367249190E+02  0.53417034882E+02  0.00000000000E+00 0. -1.
         13    1    3    3    0    0 -0.38665413505E+02 -0.36636054842E+02  0.82745000077E+00  0.53271938104E+02  0.00000000000E+00 0.  1.
         21    1    1    2  503  502 -0.10637074477E+02 -0.19313129169E+02 -0.56930320665E+01  0.22771801111E+02  0.00000000000E+00 0.  1.
          1    1    1    2  501    0 -0.27844140027E+01  0.34863744452E+02  0.30019856319E+01  0.35103355342E+02  0.00000000000E+00 0. -1.
<scales pt_clust_5="13000.00000" pt_clust_6="13000.00000" pt_clust_7="13000.00000" pt_clust_8="13000.00000" pt_clust_9="22.04868" pt_clust_10="32.44488"></scales>
<clustering>
<clus scale="   22.049">  2  9  1 -1</clus>
<clus scale="   32.445">  1 10  2 -1</clus>
<clus scale="   90.218">  7  8 -1 -1</clus>
<clus scale="   90.468">  5  6 -1 -1</clus>
<clus scale="   99.596">  2  7  1 -1</clus>
<clus scale="   32.445">  1  5  2 -1</clus>
</clustering>
</event>
<event>
10    2  0.3544405E-006  0.1870598E+03  0.7546771E-02  0.1192522E+00
         21   -1    0    0  501  502  0.00000000000E+00  0.00000000000E+00  0.26674386440E+03  0.26674386440E+03  0.00000000000E+00 0. -1.
          4   -1    0    0  503    0 -0.00000000000E+00 -0.00000000000E+00 -0.59565278202E+03  0.59565278202E+03  0.00000000000E+00 0. -1.
         23    2    1    2    0    0  0.51678683537E+01  0.10845628570E+01 -0.11803145982E+03  0.14966164744E+03  0.91865663162E+02 0.  0.
         23    2    1    2    0    0 -0.27984240217E+02  0.35645014030E+02 -0.11152847350E+03  0.15159549284E+03  0.92135271858E+02 0.  0.
        -11    1    4    4    0    0 -0.47471252424E+02  0.55926269829E+02 -0.69696572514E+02  0.10118734943E+03  0.00000000000E+00 0.  1.
         11    1    4    4    0    0  0.19487012207E+02 -0.20281255799E+02 -0.41831900990E+02  0.50408143409E+02  0.00000000000E+00 0. -1.
        -11    1    3    3    0    0  0.31443151530E+02 -0.91561551022E+01 -0.11694104419E+03  0.12144016951E+03  0.00000000000E+00 0. -1.
         11    1    3    3    0    0 -0.26275283176E+02  0.10240717959E+02 -0.10904156268E+01  0.28221477930E+02  0.00000000000E+00 0.  1.
         21    1    1    2  503  502 -0.14963946771E+03  0.47465137992E+02 -0.26474532342E+03  0.30779050651E+03  0.00000000000E+00 0.  1.
          4    1    1    2  501    0  0.17245583958E+03 -0.84194714879E+02  0.16539633913E+03  0.25334899963E+03  0.00000000000E+00 0. -1.
<scales pt_clust_5="13000.00000" pt_clust_6="13000.00000" pt_clust_7="13000.00000" pt_clust_8="13000.00000" pt_clust_9="187.05983" pt_clust_10="13000.00000"></scales>
<clustering>
<clus scale="   91.866">  7  8 -1 -1</clus>
<clus scale="   92.017">  2  7  1 -1</clus>
<clus scale="   92.135">  5  6 -1 -1</clus>
<clus scale="  102.394">  2  5  1 -1</clus>
<clus scale="  187.060">  2  9  1 -1</clus>
<clus scale="  187.060">  1  5  2 -1</clus>
</clustering>
</event>
<event>
10    2  0.2007184E-005  0.5405540E+03  0.7546771E-02  0.1003744E+00
          2   -1    0    0  503    0 -0.00000000000E+00  0.00000000000E+00  0.14286105384E+04  0.14286105384E+04  0.00000000000E+00 0. -1.
         21   -1    0    0  501  502  0.00000000000E+00 -0.00000000000E+00 -0.34335529032E+03  0.34335529032E+03  0.00000000000E+00 0. -1.
         23    2    1    2    0    0  0.43459415801E+03 -0.35835435959E+03  0.98088357918E+03  0.11349100885E+04  0.92727470591E+02 0.  0.
         23    2    1    2    0    0 -0.34988978158E+03  0.34468046368E+03  0.75195424469E+02  0.50472933348E+03  0.88712270396E+02 0.  0.
        -13    1    4    4    0    0 -0.37350867514E+02  0.31961787487E+02  0.35880383946E+02  0.60860866865E+02  0.00000000000E+00 0.  1.
         13    1    4    4    0    0 -0.31253891406E+03  0.31271867619E+03  0.39315040523E+02  0.44386846661E+03  0.00000000000E+00 0. -1.
        -13    1    3    3    0    0  0.47562238361E+02 -0.33088818812E+02  0.54452929922E+02  0.79511999254E+02  0.00000000000E+00 0.  1.
         13    1    3    3    0    0  0.38703191965E+03 -0.32526554078E+03  0.92643064926E+03  0.10553980892E+04  0.00000000000E+00 0. -1.
         21    1    1    2  503  502 -0.48575672341E+02 -0.21650026920E+02  0.54206601624E+02  0.75938628304E+02  0.00000000000E+00 0. -1.
          2    1    1    2  501    0 -0.36128704089E+02  0.35323922831E+02 -0.25030357164E+02  0.56387778490E+02  0.00000000000E+00 0. -1.
<scales pt_clust_5="13000.00000" pt_clust_6="13000.00000" pt_clust_7="13000.00000" pt_clust_8="13000.00000" pt_clust_9="53.87685" pt_clust_10="50.52784"></scales>
<clustering>
<clus scale="   50.528">  2 10  1 -1</clus>
<clus scale="   53.877">  1  9  2 -1</clus>
<clus scale="   88.712">  5  6 -1 -1</clus>
<clus scale="   92.727">  7  8 -1 -1</clus>
<clus scale="  539.880">  2  5  1 -1</clus>
<clus scale="   50.528">  2  5  1 -1</clus>
</clustering>
</event>
<event>
10    2  0.3544405E-006  0.1245494E+03  0.7546771E-02  0.1236303E+00
         21   -1    0    0  501  502  0.00000000000E+00  0.00000000000E+00  0.43028280309E+02  0.43028280309E+02  0.00000000000E+00 0.  1.
          2   -1    0    0  503    0 -0.00000000000E+00 -0.00000000000E+00 -0.90563023739E+03  0.90563023739E+03  0.00000000000E+00 0. -1.
         23    2    1    2    0    0 -0.43262874475E+02 -0.87474079030E+02 -0.49636431961E+03  0.51426564689E+03  0.92564717789E+02 0.  0.
         23    2    1    2    0    0  0.41728151448E+02  0.45238217918E+02 -0.20450117212E+03  0.23346900266E+03  0.94336158614E+02 0.  0.
        -13    1    3    3    0    0  0.18703971614E+02  0.80357772910E+01 -0.88332718036E+02  0.90648118273E+02  0.00000000000E+00 0. -1.
         13    1    3    3    0    0 -0.61966846089E+02 -0.95509856321E+02 -0.40803160157E+03  0.42361752862E+03  0.00000000000E+00 0.  1.
        -13    1    4    4    0    0  0.63566552401E+02  0.36023078163E+01 -0.13851007956E+03  0.15244253128E+03  0.00000000000E+00 0.  1.
         13    1    4    4    0    0 -0.21838400953E+02  0.41635910102E+02 -0.65991092563E+02  0.81026471377E+02  0.00000000000E+00 0. -1.
         21    1    1    2  503  502 -0.22259645608E+02  0.21557643357E+02 -0.16621903319E+03  0.16908279275E+03  0.00000000000E+00 0. -1.
          2    1    1    2  501    0  0.23794368636E+02  0.20678217755E+02  0.44825678336E+01  0.31841075401E+02  0.00000000000E+00 0. -1.
<scales pt_clust_5="13000.00000" pt_clust_6="13000.00000" pt_clust_7="13000.00000" pt_clust_8="13000.00000" pt_clust_9="30.98748" pt_clust_10="31.47985"></scales>
<clustering>
<clus scale="   30.987">  2  9  1 -1</clus>
<clus scale="   31.480">  1 10  2 -1</clus>
<clus scale="   92.565">  5  6 -1 -1</clus>
<clus scale="   94.336">  7  8 -1 -1</clus>
<clus scale="  123.213">  2  5  1 -1</clus>
<clus scale="   31.480">  1  5  2 -1</clus>
</clustering>
</event>
<event>
10    2  0.3544405E-006  0.1090598E+03  0.7546771E-02  0.1263764E+00
         21   -1    0    0  501  502  0.00000000000E+00  0.00000000000E+00  0.27765616860E+03  0.27765616860E+03  0.00000000000E+00 0.  1.
          1   -1    0    0  503    0 -0.00000000000E+00 -0.00000000000E+00 -0.19239726882E+03  0.19239726882E+03  0.00000000000E+00 0. -1.
         23    2    1    2    0    0  0.33647436902E+02  0.10276279328E+02 -0.13227828591E+03  0.16469625134E+03  0.91594532334E+02 0.  0.
         23    2    1    2    0    0 -0.72539549550E+02  0.16751333435E+02  0.94613064491E+02  0.14910033348E+03  0.87958422276E+02 0.  0.
        -13    1    3    3    0    0  0.40110427017E+02 -0.23335934939E+02 -0.26325685906E+02  0.53352169153E+02  0.00000000000E+00 0.  1.
         13    1    3    3    0    0 -0.64629901147E+01  0.33612214267E+02 -0.10595260001E+03  0.11134408218E+03  0.00000000000E+00 0. -1.
        -13    1    4    4    0    0 -0.83966272503E+02  0.34310037792E+02  0.89730458244E+02  0.12758945391E+03  0.00000000000E+00 0.  1.
         13    1    4    4    0    0  0.11426722952E+02 -0.17558704356E+02  0.48826062466E+01  0.21510879570E+02  0.00000000000E+00 0. -1.
         21    1    1    2  503  502  0.27540729660E+02 -0.46533286458E+01 -0.27840264880E+01  0.28069486301E+02  0.00000000000E+00 0. -1.
          1    1    1    2  501    0  0.11351382988E+02 -0.22374284117E+02  0.12570814769E+03  0.12818736631E+03  0.00000000000E+00 0. -1.
<scales pt_clust_5="13000.00000" pt_clust_6="13000.00000" pt_clust_7="13000.00000" pt_clust_8="13000.00000" pt_clust_9="29.23174" pt_clust_10="25.08909"></scales>
<clustering>
<clus scale="   25.089">  1 10  2 -1</clus>
<clus scale="   29.232">  2  9  1 -1</clus>
<clus scale="   87.958">  7  8 -1 -1</clus>
<clus scale="   91.595">  5  6 -1 -1</clus>
<clus scale="  106.024">  1  7  2 -1</clus>
<clus scale="   25.089">  1  5  2 -1</clus>
</clustering>
</event>
<event>
10    2  0.3544405E-006  0.2786248E+03  0.7546771E-02  0.1096476E+00
         21   -1    0    0  501  502  0.00000000000E+00  0.00000000000E+00  0.18604031810E+03  0.18604031810E+03  0.00000000000E+00 0. -1.
          1   -1    0    0  503    0 -0.00000000000E+00 -0.00000000000E+00 -0.12585004939E+04  0.12585004939E+04  0.00000000000E+00 0. -1.
         23    2    1    2    0    0 -0.24845712553E+03 -0.71058217986E+02 -0.74738279762E+03  0.79609189328E+03  0.91657202676E+02 0.  0.
         23    2    1    2    0    0  0.23885343204E+03 -0.20666563412E+02 -0.15661819116E+03  0.30045599240E+03  0.90920166776E+02 0.  0.
        -11    1    4    4    0    0  0.21877672273E+03 -0.20812248802E+02 -0.10203303971E+03  0.24229557425E+03  0.00000000000E+00 0. -1.
         11    1    4    4    0    0  0.20076709312E+02  0.14568538992E+00 -0.54585151445E+02  0.58160418150E+02  0.00000000000E+00 0.  1.
        -13    1    3    3    0    0 -0.77303668623E+02  0.27599489111E+01 -0.33058725189E+03  0.33951642907E+03  0.00000000000E+00 0.  1.
         13    1    3    3    0    0 -0.17115345691E+03 -0.73818166897E+02 -0.41679554573E+03  0.45657546421E+03  0.00000000000E+00 0. -1.
         21    1    1    2  503  502 -0.27966307763E+02 -0.11574330317E+02 -0.22316832113E+03  0.22521140967E+03  0.00000000000E+00 0. -1.
          1    1    1    2  501    0  0.37570001249E+02  0.10329911172E+03  0.54709134099E+02  0.12278151664E+03  0.00000000000E+00 0. -1.
<scales pt_clust_5="13000.00000" pt_clust_6="13000.00000" pt_clust_7="13000.00000" pt_clust_8="13000.00000" pt_clust_9="30.26681" pt_clust_10="109.24909"></scales>
<clustering>
<clus scale="   30.267">  2  9  1 -1</clus>
<clus scale="   90.920">  5  6 -1 -1</clus>
<clus scale="   91.657">  7  8 -1 -1</clus>
<clus scale="  109.249">  1 10  2 -1</clus>
<clus scale="  278.383">  1  5  2 -1</clus>
<clus scale="  109.249">  1  5  2 -1</clus>
</clustering>
</event>
<event>
10    2  0.3544405E-006  0.1020563E+03  0.7546771E-02  0.1276963E+00
         21   -1    0    0  503  502  0.00000000000E+00  0.00000000000E+00  0.61892247120E+03  0.61892247120E+03  0.00000000000E+00 0.  1.
         -2   -1    0    0    0  501 -0.00000000000E+00 -0.00000000000E+00 -0.11824567954E+03  0.11824567954E+03  0.00000000000E+00 0.  1.
         23    2    1    2    0    0  0.39269943503E+02 -0.34533122684E+02 -0.69980631761E+02  0.12669860341E+03  0.91763730637E+02 0.  0.
         23    2    1    2    0    0 -0.36740432949E+02  0.48009172928E+02  0.39723780731E+03  0.41259973434E+03  0.93733265808E+02 0.  0.
        -11    1    4    4    0    0  0.13663739039E+02 -0.20587179894E+02  0.12288811869E+03  0.12534759453E+03  0.00000000000E+00 0. -1.
         11    1    4    4    0    0 -0.50404171988E+02  0.68596352822E+02  0.27434968862E+03  0.28725213980E+03  0.00000000000E+00 0.  1.
        -13    1    3    3    0    0  0.31954885787E+01  0.29703939658E+02 -0.94087298493E+01  0.31321867375E+02  0.00000000000E+00 0. -1.
         13    1    3    3    0    0  0.36074454924E+02 -0.64237062341E+02 -0.60571901911E+02  0.95376736039E+02  0.00000000000E+00 0.  1.
         21    1    1    2  503  501 -0.33990924244E+01  0.21446632631E+02  0.77688757916E+00  0.21728217479E+02  0.00000000000E+00 0.  1.
         -2    1    1    2    0  502  0.86958187071E+00 -0.34922682875E+02  0.17264272854E+03  0.17614159551E+03  0.00000000000E+00 0.  1.
<scales pt_clust_5="13000.00000" pt_clust_6="13000.00000" pt_clust_7="13000.00000" pt_clust_8="13000.00000" pt_clust_9="21.71432" pt_clust_10="34.58413"></scales>
<clustering>
<clus scale="   21.714">  2  9  1 -1</clus>
<clus scale="   34.584">  1 10  2 -1</clus>
<clus scale="   91.764">  7  8 -1 -1</clus>
<clus scale="   93.733">  5  6 -1 -1</clus>
<clus scale="  100.250">  2  7  1 -1</clus>
<clus scale="   34.584">  1  5  2 -1</clus>
</clustering>
</event>
<event>
10    2  0.3544405E-006  0.1098361E+03  0.7546771E-02  0.1261209E+00
         21   -1    0    0  501  502  0.00000000000E+00  0.00000000000E+00  0.25758901710E+03  0.25758901710E+03  0.00000000000E+00 0. -1.
          2   -1    0    0  503    0 -0.00000000000E+00 -0.00000000000E+00 -0.26979510952E+03  0.26979510952E+03  0.00000000000E+00 0. -1.
         23    2    1    2    0    0 -0.22474942487E+02  0.25619834156E+02 -0.19663584000E+02  0.10014574770E+03  0.92092428058E+02 0.  0.
         23    2    1    2    0    0  0.12930096450E+03  0.33739675764E+02  0.58300428257E+02  0.17198688750E+03  0.91232912883E+02 0.  0.
        -13    1    4    4    0    0  0.15703795786E+02 -0.16131767143E+02  0.40931773785E+02  0.46714593206E+02  0.00000000000E+00 0.  1.
         13    1    4    4    0    0  0.11359716872E+03  0.49871442907E+02  0.17368654472E+02  0.12527229429E+03  0.00000000000E+00 0. -1.
        -13    1    3    3    0    0 -0.46138073461E+02  0.44544771954E+02 -0.25979098163E+02  0.69194451168E+02  0.00000000000E+00 0. -1.
         13    1    3    3    0    0  0.23663130974E+02 -0.18924937798E+02  0.63155141628E+01  0.30951296536E+02  0.00000000000E+00 0.  1.
         21    1    1    2  503  502 -0.26359544788E+02 -0.34570906771E+02 -0.13159409812E+03  0.13858924870E+03  0.00000000000E+00 0. -1.
          2    1    1    2  501    0 -0.80466477229E+02 -0.24788603150E+02  0.80751161437E+02  0.11666224272E+03  0.00000000000E+00 0. -1.
<scales pt_clust_5="13000.00000" pt_clust_6="13000.00000" pt_clust_7="13000.00000" pt_clust_8="13000.00000" pt_clust_9="43.47382" pt_clust_10="88.97658"></scales>
<clustering>
<clus scale="   43.474">  2  9  1 -1</clus>
<clus scale="   88.977">  1 10  2 -1</clus>
<clus scale="   91.233">  5  6 -1 -1</clus>
<clus scale="   92.092">  7  8 -1 -1</clus>
<clus scale="  109.116">  1  5  2 -1</clus>
<clus scale="   88.977">  1  5  2 -1</clus>
</clustering>
</event>
<event>
10    2  0.3544405E-006  0.2227005E+03  0.7546771E-02  0.1131888E+00
         -1   -1    0    0    0  501 -0.00000000000E+00  0.00000000000E+00  0.11191810554E+04  0.11191810554E+04  0.00000000000E+00 0.  1.
         21   -1    0    0  503  502  0.00000000000E+00 -0.00000000000E+00 -0.72888647812E+02  0.72888647812E+02  0.00000000000E+00 0. -1.
         23    2    1    2    0    0  0.13801688968E+03 -0.13735950805E+03  0.48791699435E+03  0.53307255733E+03  0.90482383480E+02 0.  0.
         23    2    1    2    0    0 -0.10865069332E+03  0.18494068431E+03  0.32103328263E+03  0.39655013522E+03  0.90452259876E+02 0.  0.
        -11    1    3    3    0    0  0.45967596843E+02 -0.85802779180E+02  0.14785759906E+03  0.17702261572E+03  0.00000000000E+00 0. -1.
         11    1    3    3    0    0  0.92049292837E+02 -0.51556728866E+02  0.34005939528E+03  0.35604994161E+03  0.00000000000E+00 0.  1.
        -13    1    4    4    0    0 -0.67502657879E+02  0.32814259951E+02  0.11001140806E+03  0.13317617798E+03  0.00000000000E+00 0.  1.
         13    1    4    4    0    0 -0.41148035443E+02  0.15212642436E+03  0.21102187457E+03  0.26337395724E+03  0.00000000000E+00 0. -1.
         21    1    1    2  503  501  0.30432719935E+02  0.49649208425E+01  0.87460615990E+02  0.92737048858E+02  0.00000000000E+00 0. -1.
         -1    1    1    2    0  502 -0.59798916294E+02 -0.52546097104E+02  0.14988151467E+03  0.16970996185E+03  0.00000000000E+00 0.  1.
<scales pt_clust_5="13000.00000" pt_clust_6="13000.00000" pt_clust_7="13000.00000" pt_clust_8="13000.00000" pt_clust_9="30.83506" pt_clust_10="75.58930"></scales>
<clustering>
<clus scale="   30.835">  1  9  2 -1</clus>
<clus scale="   75.589">  2 10  1 -1</clus>
<clus scale="   90.452">  7  8 -1 -1</clus>
<clus scale="   90.482">  5  6 -1 -1</clus>
<clus scale="  222.688">  2  7  1 -1</clus>
<clus scale="   75.589">  2  5  1 -1</clus>
</clustering>
</event>
<event>
10    2  0.3544405E-006  0.2464547E+03  0.7546771E-02  0.1116159E+00
         21   -1    0    0  501  502  0.00000000000E+00  0.00000000000E+00  0.23106125794E+03  0.23106125794E+03  0.00000000000E+00 0. -1.
          1   -1    0    0  503    0 -0.00000000000E+00 -0.00000000000E+00 -0.82614004671E+03  0.82614004671E+03  0.00000000000E+00 0. -1.
         23    2    1    2    0    0  0.21629036526E+03  0.81167523401E+01 -0.42335350779E+03  0.48593889445E+03  0.10030460016E+03 0.  0.
         23    2    1    2    0    0 -0.23959807089E+03  0.58899516623E+02 -0.26055076705E+03  0.37018268596E+03  0.90951251448E+02 0.  0.
        -11    1    3    3    0    0  0.59097115779E+02 -0.15887082205E+02 -0.21677065500E+03  0.22524294737E+03  0.00000000000E+00 0. -1.
         11    1    3    3    0    0  0.15719324948E+03  0.24003834545E+02 -0.20658285279E+03  0.26069594708E+03  0.00000000000E+00 0.  1.
        -11    1    4    4    0    0 -0.10990498392E+03 -0.19183900224E+02 -0.10897823881E+03  0.15595955903E+03  0.00000000000E+00 0. -1.
         11    1    4    4    0    0 -0.12969308697E+03  0.78083416847E+02 -0.15157252824E+03  0.21422312693E+03  0.00000000000E+00 0.  1.
         21    1    1    2  503  502 -0.54149751467E+00  0.23456403482E+02 -0.37283931893E+02  0.44052101667E+02  0.00000000000E+00 0.  1.
          1    1    1    2  501    0  0.23849203141E+02 -0.90472672445E+02  0.12610941797E+03  0.15702762257E+03  0.00000000000E+00 0. -1.
<scales pt_clust_5="13000.00000" pt_clust_6="13000.00000" pt_clust_7="13000.00000" pt_clust_8="13000.00000" pt_clust_9="23.46265" pt_clust_10="93.11423"></scales>
<clustering>
<clus scale="   23.463">  2  9  1 -1</clus>
<clus scale="   90.951">  7  8 -1 -1</clus>
<clus scale="   93.114">  1 10  2 -1</clus>
<clus scale="  100.305">  5  6 -1 -1</clus>
<clus scale="  242.798">  1  7  2 -1</clus>
<clus scale="   93.114">  1  5  2 -1</clus>
</clustering>
</event>
<event>
10    2  0.3544405E-006  0.1877520E+03  0.7546771E-02  0.1169671E+00
         21   -1    0    0  501  502  0.00000000000E+00  0.00000000000E+00  0.72484221793E+03  0.72484221793E+03  0.00000000000E+00 0. -1.
          1   -1    0    0  503    0 -0.00000000000E+00 -0.00000000000E+00 -0.16525220323E+03  0.16525220323E+03  0.00000000000E+00 0. -1.
         23    2    1    2    0    0  0.19922110003E+02 -0.12155603320E+03  0.26741845421E+03  0.30862154275E+03  0.92530358928E+02 0.  0.
         23    2    1    2    0    0 -0.18044457887E+03  0.82315500742E+02 -0.14708070222E+02  0.21827979473E+03  0.89964736160E+02 0.  0.
        -13    1    3    3    0    0  0.33339772694E+02 -0.20327688775E+02  0.13995009237E+03  0.14529550485E+03  0.00000000000E+00 0.  1.
         13    1    3    3    0    0 -0.13417662691E+02 -0.10122834442E+03  0.12746836183E+03  0.16332603790E+03  0.00000000000E+00 0. -1.
        -13    1    4    4    0    0 -0.27232038094E+02  0.25027852078E+02 -0.38034067564E+02  0.53052498281E+02  0.00000000000E+00 0.  1.
         13    1    4    4    0    0 -0.15321254077E+03  0.57287648664E+02  0.23325997342E+02  0.16522729645E+03  0.00000000000E+00 0. -1.
         21    1    1    2  503  502 -0.14416021878E+01  0.20208001962E+02  0.62864269530E+01  0.21212277671E+02  0.00000000000E+00 0. -1.
          1    1    1    2  501    0  0.16196407105E+03  0.19032530494E+02  0.30059320377E+03  0.34198080601E+03  0.00000000000E+00 0. -1.
<scales pt_clust_5="13000.00000" pt_clust_6="13000.00000" pt_clust_7="13000.00000" pt_clust_8="13000.00000" pt_clust_9="20.25936" pt_clust_10="164.79428"></scales>
<clustering>
<clus scale="   20.259">  2  9  1 -1</clus>
<clus scale="   89.965">  7  8 -1 -1</clus>
<clus scale="   92.530">  5  6 -1 -1</clus>
<clus scale="  151.963">  2  5  1 -1</clus>
<clus scale="  164.794">  1 10  2 -1</clus>
<clus scale="  164.794">  1  5  2 -1</clus>
</clustering>
</event>
<event>
10    2  0.3544405E-006  0.1003594E+03  0.7546771E-02  0.1282037E+00
         21   -1    0    0  503  502  0.00000000000E+00  0.00000000000E+00  0.13246657068E+03  0.13246657068E+03  0.00000000000E+00 0.  1.
         -1   -1    0    0    0  501 -0.00000000000E+00 -0.00000000000E+00 -0.25317167570E+03  0.25317167570E+03  0.00000000000E+00 0.  1.
         23    2    1    2    0    0  0.12418557797E+02  0.17554371138E+02 -0.13103081569E+03  0.16257463000E+03  0.93803300236E+02 0.  0.
         23    2    1    2    0    0 -0.20574306480E+02 -0.28536355749E+02 -0.41401248588E+02  0.11252631138E+03  0.98541776324E+02 0.  0.
        -11    1    4    4    0    0 -0.14691318926E+02 -0.63450104169E+02 -0.11400172820E+02  0.66118942151E+02  0.00000000000E+00 0.  1.
         11    1    4    4    0    0 -0.58829875537E+01  0.34913748420E+02 -0.30001075768E+02  0.46407369226E+02  0.00000000000E+00 0. -1.
        -13    1    3    3    0    0 -0.39877404653E+02  0.47761603763E+01 -0.73681657507E+02  0.83916659626E+02  0.00000000000E+00 0. -1.
         13    1    3    3    0    0  0.52295962450E+02  0.12778210762E+02 -0.57349158182E+02  0.78657970372E+02  0.00000000000E+00 0.  1.
         21    1    1    2  503  501 -0.82998652777E+01 -0.20298828277E+02 -0.20567099537E+02  0.30065524715E+02  0.00000000000E+00 0. -1.
         -1    1    1    2    0  502  0.16455613961E+02  0.31280812888E+02  0.72294058796E+02  0.80471780290E+02  0.00000000000E+00 0.  1.
<scales pt_clust_5="13000.00000" pt_clust_6="13000.00000" pt_clust_7="13000.00000" pt_clust_8="13000.00000" pt_clust_9="21.93012" pt_clust_10="34.95341"></scales>
<clustering>
<clus scale="   21.930">  2  9  1 -1</clus>
<clus scale="   34.953">  1 10  2 -1</clus>
<clus scale="   93.803">  7  8 -1 -1</clus>
<clus scale="   95.711">  2  7  1 -1</clus>
<clus scale="   98.542">  5  6 -1 -1</clus>
<clus scale="   34.953">  1  5  2 -1</clus>
</clustering>
</event>
<event>
10    2  0.3544405E-006  0.4294382E+03  0.7546771E-02  0.1034048E+00
          1   -1    0    0  503    0 -0.00000000000E+00  0.00000000000E+00  0.52007900112E+03  0.52007900112E+03  0.00000000000E+00 0. -1.
         21   -1    0    0  501  502  0.00000000000E+00 -0.00000000000E+00 -0.65205686893E+03  0.65205686893E+03  0.00000000000E+00 0.  1.
         23    2    1    2    0    0 -0.17607771584E+03  0.41195932775E+03 -0.63237490314E+01  0.45729918003E+03  0.91480601905E+02 0.  0.
         23    2    1    2    0    0  0.23161625454E+03 -0.31928863652E+03 -0.89210286333E+02  0.41448966085E+03  0.90839864498E+02 0.  0.
        -11    1    3    3    0    0 -0.53996473434E+02  0.17073120878E+03 -0.43821951326E+02  0.18435055794E+03  0.00000000000E+00 0.  1.
         11    1    3    3    0    0 -0.12208124240E+03  0.24122811896E+03  0.37498202295E+02  0.27294862209E+03  0.00000000000E+00 0. -1.
        -13    1    4    4    0    0  0.20035162137E+03 -0.31046185423E+03 -0.68025221128E+02  0.37570569044E+03  0.00000000000E+00 0. -1.
         13    1    4    4    0    0  0.31264633173E+02 -0.88267822906E+01 -0.21185065204E+02  0.38783970410E+02  0.00000000000E+00 0.  1.
         21    1    1    2  503  502 -0.21802447815E+02 -0.15801088263E+02  0.11990284305E+03  0.12288902674E+03  0.00000000000E+00 0. -1.
          1    1    1    2  501    0 -0.33736090894E+02 -0.76869602966E+02 -0.15634667549E+03  0.17745800243E+03  0.00000000000E+00 0. -1.
<scales pt_clust_5="13000.00000" pt_clust_6="13000.00000" pt_clust_7="13000.00000" pt_clust_8="13000.00000" pt_clust_9="26.92622" pt_clust_10="84.56260"></scales>
<clustering>
<clus scale="   26.926">  1  9  2 -1</clus>
<clus scale="   84.563">  2 10  1 -1</clus>
<clus scale="   90.840">  7  8 -1 -1</clus>
<clus scale="   91.481">  5  6 -1 -1</clus>
<clus scale="  429.302">  2  7  1 -1</clus>
<clus scale="   84.563">  2  5  1 -1</clus>
</clustering>
</event>
<event>
10    2  0.3544405E-006  0.2000916E+03  0.7546771E-02  0.1180700E+00
          2   -1    0    0  503    0 -0.00000000000E+00  0.00000000000E+00  0.10600840741E+04  0.10600840741E+04  0.00000000000E+00 0. -1.
         21   -1    0    0  501  502  0.00000000000E+00 -0.00000000000E+00 -0.83568342269E+02  0.83568342269E+02  0.00000000000E+00 0. -1.
         23    2    1    2    0    0 -0.21960973772E+01  0.25984734140E+02  0.18536287711E+03  0.20814116441E+03  0.91012740106E+02 0.  0.
         23    2    1    2    0    0 -0.15764169191E+03  0.80535455900E+02  0.47586511677E+03  0.51545379993E+03  0.88927767476E+02 0.  0.
        -11    1    4    4    0    0 -0.19733965429E+02  0.53542669041E+02  0.12110214365E+03  0.13387298456E+03  0.00000000000E+00 0.  1.
         11    1    4    4    0    0 -0.13790772648E+03  0.26992786859E+02  0.35476297312E+03  0.38158081537E+03  0.00000000000E+00 0. -1.
        -13    1    3    3    0    0 -0.37533224164E+02  0.38000677415E+02  0.13705018701E+03  0.14709027215E+03  0.00000000000E+00 0.  1.
         13    1    3    3    0    0  0.35337126786E+02 -0.12015943275E+02  0.48312690096E+02  0.61050892267E+02  0.00000000000E+00 0. -1.
         21    1    1    2  503  502  0.46257348625E+02  0.38896636348E+02  0.18380609143E+03  0.19348738942E+03  0.00000000000E+00 0. -1.
          2    1    1    2  501    0  0.11358044066E+03 -0.14541682639E+03  0.13148164657E+03  0.22657006263E+03  0.00000000000E+00 0. -1.
<scales pt_clust_5="13000.00000" pt_clust_6="13000.00000" pt_clust_7="13000.00000" pt_clust_8="13000.00000" pt_clust_9="60.43749" pt_clust_10="179.24423"></scales>
<clustering>
<clus scale="   60.437">  1  9  2 -1</clus>
<clus scale="   88.928">  5  6 -1 -1</clus>
<clus scale="   91.013">  7  8 -1 -1</clus>
<clus scale="   97.776">  1  7  2 -1</clus>
<clus scale="  179.244">  2 10  1 -1</clus>
<clus scale="  179.244">  2  5  1 -1</clus>
</clustering>
</event>
<event>
10    2  0.3544405E-006  0.1719468E+03  0.7546771E-02  0.1198708E+00
         21   -1    0    0  501  502  0.00000000000E+00  0.00000000000E+00  0.12111071446E+03  0.12111071446E+03  0.00000000000E+00 0.  1.
          1   -1    0    0  503    0 -0.00000000000E+00 -0.00000000000E+00 -0.45605117231E+03  0.45605117231E+03  0.00000000000E+00 0. -1.
         23    2    1    2    0    0  0.47391065769E+02  0.18879480258E+02 -0.13912182744E+03  0.17406630666E+03  0.91333719706E+02 0.  0.
         23    2    1    2    0    0 -0.15368455924E+03 -0.79293581835E+02 -0.10954342430E+03  0.22450662013E+03  0.92179416388E+02 0.  0.
        -13    1    4    4    0    0 -0.85988503445E+02 -0.92320790331E+02 -0.60608939598E+02  0.13996640530E+03  0.00000000000E+00 0.  1.
         13    1    4    4    0    0 -0.67696055791E+02  0.13027208496E+02 -0.48934484699E+02  0.84540214830E+02  0.00000000000E+00 0. -1.
        -13    1    3    3    0    0  0.38713393770E+02 -0.30767366033E+02 -0.42993575781E+02  0.65527133526E+02  0.00000000000E+00 0. -1.
         13    1    3    3    0    0  0.86776719996E+01  0.49646846291E+02 -0.96128251661E+02  0.10853917314E+03  0.00000000000E+00 0.  1.
         21    1    1    2  503  502 -0.15272936975E+02  0.16488704212E+02 -0.30312165644E+02  0.37735492000E+02  0.00000000000E+00 0. -1.
          1    1    1    2  501    0  0.12156643044E+03  0.43925397365E+02 -0.55963040461E+02  0.14085346798E+03  0.00000000000E+00 0. -1.
<scales pt_clust_5="13000.00000" pt_clust_6="13000.00000" pt_clust_7="13000.00000" pt_clust_8="13000.00000" pt_clust_9="22.47532" pt_clust_10="145.15049"></scales>
<clustering>
<clus scale="   22.475">  2  9  1 -1</clus>
<clus scale="   91.334">  7  8 -1 -1</clus>
<clus scale="   92.179">  5  6 -1 -1</clus>
<clus scale="  103.478">  2  7  1 -1</clus>
<clus scale="  145.150">  1 10  2 -1</clus>
<clus scale="  145.150">  1  5  2 -1</clus>
</clustering>
</event>
<event>
10    2  0.3544405E-006  0.1221611E+03  0.7546771E-02  0.1240028E+00
         21   -1    0    0  501  502  0.00000000000E+00  0.00000000000E+00  0.45072921425E+03  0.45072921425E+03  0.00000000000E+00 0. -1.
          4   -1    0    0  503    0 -0.00000000000E+00 -0.00000000000E+00 -0.52104585049E+03  0.52104585049E+03  0.00000000000E+00 0. -1.
         23    2    1    2    0    0  0.28797277317E+02  0.84761951568E+01 -0.31623040548E+02  0.10042902016E+03  0.90470118444E+02 0.  0.
         23    2    1    2    0    0 -0.84230718735E+02  0.10887038783E+03  0.14361893483E+03  0.21916149426E+03  0.91966226404E+02 0.  0.
        -11    1    3    3    0    0 -0.14997129682E+02  0.29104125763E+02  0.12385960425E+02  0.35005371742E+02  0.00000000000E+00 0.  1.
         11    1    3    3    0    0  0.43794406999E+02 -0.20627930607E+02 -0.44009000973E+02  0.65423648417E+02  0.00000000000E+00 0. -1.
        -11    1    4    4    0    0 -0.30200282120E+01  0.30885175021E+02 -0.63058398620E+01  0.31666673694E+02  0.00000000000E+00 0. -1.
         11    1    4    4    0    0 -0.81210690523E+02  0.77985212814E+02  0.14992477469E+03  0.18749482057E+03  0.00000000000E+00 0.  1.
         21    1    1    2  503  502  0.66930705212E+02 -0.52562644683E+02 -0.40816526604E+03  0.41694296411E+03  0.00000000000E+00 0. -1.
          4    1    1    2  501    0 -0.11497263794E+02 -0.64783938308E+02  0.22585273553E+03  0.23524158621E+03  0.00000000000E+00 0. -1.
<scales pt_clust_5="13000.00000" pt_clust_6="13000.00000" pt_clust_7="13000.00000" pt_clust_8="13000.00000" pt_clust_9="85.72832" pt_clust_10="65.79624"></scales>
<clustering>
<clus scale="   65.796">  1 10  2 -1</clus>
<clus scale="   85.728">  2  9  1 -1</clus>
<clus scale="   90.470">  5  6 -1 -1</clus>
<clus scale="   91.966">  7  8 -1 -1</clus>
<clus scale="  121.039">  2  5  1 -1</clus>
<clus scale="   65.796">  1  5  2 -1</clus>
</clustering>
</event>
<event>
10    2  0.3544405E-006  0.1386963E+03  0.7546771E-02  0.1215151E+00
         21   -1    0    0  503  502  0.00000000000E+00  0.00000000000E+00  0.40533100076E+03  0.40533100076E+03  0.00000000000E+00 0.  1.
         -1   -1    0    0    0  501 -0.00000000000E+00 -0.00000000000E+00 -0.28708800742E+03  0.28708800742E+03  0.00000000000E+00 0.  1.
         23    2    1    2    0    0 -0.16832750137E+02 -0.69895039542E+02 -0.20479939423E+03  0.23568478317E+03  0.91846976607E+02 0.  0.
         23    2    1    2    0    0  0.26230260632E+02  0.81028881908E+02  0.17883051721E+03  0.21844004798E+03  0.92097743735E+02 0.  0.
        -11    1    4    4    0    0  0.45603445288E+02  0.11619212459E+02  0.38950192666E+02  0.61088442680E+02  0.00000000000E+00 0.  1.
         11    1    4    4    0    0 -0.19373184657E+02  0.69409669449E+02  0.13988032455E+03  0.15735160530E+03  0.00000000000E+00 0. -1.
        -11    1    3    3    0    0  0.12931761141E+02 -0.23727545286E+02 -0.37684643031E+01  0.27284211088E+02  0.00000000000E+00 0. -1.
         11    1    3    3    0    0 -0.29764511278E+02 -0.46167494257E+02 -0.20103092992E+03  0.20840057208E+03  0.00000000000E+00 0.  1.
         21    1    1    2  503  501 -0.28476283494E+02 -0.31413702353E+02 -0.36197230128E+02  0.55749070720E+02  0.00000000000E+00 0.  1.
         -1    1    1    2    0  502  0.19078772999E+02  0.20279859988E+02  0.18040910048E+03  0.18254510631E+03  0.00000000000E+00 0.  1.
<scales pt_clust_5="13000.00000" pt_clust_6="13000.00000" pt_clust_7="13000.00000" pt_clust_8="13000.00000" pt_clust_9="41.18377" pt_clust_10="27.84371"></scales>
<clustering>
<clus scale="   27.844">  1 10  2 -1</clus>
<clus scale="   41.184">  2  9  1 -1</clus>
<clus scale="   91.847">  7  8 -1 -1</clus>
<clus scale="   92.098">  5  6 -1 -1</clus>
<clus scale="  138.530">  2  7  1 -1</clus>
<clus scale="   27.844">  1  5  2 -1</clus>
</clustering>
</event>
<event>
10    2  0.3544405E-006  0.1007165E+03  0.7546771E-02  0.1279981E+00
         21   -1    0    0  501  502  0.00000000000E+00  0.00000000000E+00  0.28525322214E+03  0.28525322214E+03  0.00000000000E+00 0.  1.
          1   -1    0    0  503    0 -0.00000000000E+00 -0.00000000000E+00 -0.13448819773E+03  0.13448819773E+03  0.00000000000E+00 0. -1.
         23    2    1    2    0    0  0.51042134260E+02  0.38961222861E+01  0.10372753790E+02  0.10701889897E+03  0.93407555781E+02 0.  0.
         23    2    1    2    0    0 -0.25233495131E+02  0.42003813461E+02  0.83750233864E+02  0.13301317075E+03  0.90979955478E+02 0.  0.
        -11    1    3    3    0    0  0.24521514808E+02 -0.39018367636E+02 -0.17604945887E+02  0.49332259437E+02  0.00000000000E+00 0.  1.
         11    1    3    3    0    0  0.26520619452E+02  0.42914489922E+02  0.27977699678E+02  0.57686639533E+02  0.00000000000E+00 0. -1.
        -13    1    4    4    0    0  0.11947964919E+02  0.35546194845E+02  0.87393672986E+02  0.95099631502E+02  0.00000000000E+00 0.  1.
         13    1    4    4    0    0 -0.37181460050E+02  0.64576186164E+01 -0.36434391225E+01  0.37913539248E+02  0.00000000000E+00 0. -1.
         21    1    1    2  503  502 -0.32141063224E+02 -0.24993240586E+02 -0.53607662318E+02  0.67316353729E+02  0.00000000000E+00 0.  1.
          1    1    1    2  501    0  0.63324240947E+01 -0.20906695162E+02  0.11024969908E+03  0.11239299642E+03  0.00000000000E+00 0. -1.
<scales pt_clust_5="13000.00000" pt_clust_6="13000.00000" pt_clust_7="13000.00000" pt_clust_8="13000.00000" pt_clust_9="41.03161" pt_clust_10="21.84467"></scales>
<clustering>
<clus scale="   21.845">  1 10  2 -1</clus>
<clus scale="   41.032">  2  9  1 -1</clus>
<clus scale="   90.980">  7  8 -1 -1</clus>
<clus scale="   93.408">  5  6 -1 -1</clus>
<clus scale="   98.469">  1  7  2 -1</clus>
<clus scale="   21.845">  1  5  2 -1</clus>
</clustering>
</event>
<event>
10    2  0.3544405E-006  0.1609931E+03  0.7546771E-02  0.1187644E+00
         21   -1    0    0  501  502  0.00000000000E+00  0.00000000000E+00  0.21470800844E+03  0.21470800844E+03  0.00000000000E+00 0.  1.
          1   -1    0    0  503    0 -0.00000000000E+00 -0.00000000000E+00 -0.25168605989E+03  0.25168605989E+03  0.00000000000E+00 0. -1.
         23    2    1    2    0    0  0.99347537391E+02  0.14290986177E+03 -0.18992323375E+02  0.19735550391E+03  0.91078673670E+02 0.  0.
         23    2    1    2    0    0 -0.56285857809E+02 -0.87939880957E+02  0.38808176690E+02  0.14362899681E+03  0.90673555648E+02 0.  0.
        -11    1    3    3    0    0  0.22207092961E+02  0.11024554139E+03 -0.15377499650E+02  0.11350639572E+03  0.00000000000E+00 0. -1.
         11    1    3    3    0    0  0.77140444430E+02  0.32664320384E+02 -0.36148237243E+01  0.83849108186E+02  0.00000000000E+00 0.  1.
        -13    1    4    4    0    0 -0.38793236564E+01 -0.85729749218E+02  0.25149177261E+02  0.89426618911E+02  0.00000000000E+00 0.  1.
         13    1    4    4    0    0 -0.52406534153E+02 -0.22101317391E+01  0.13658999429E+02  0.54202377897E+02  0.00000000000E+00 0. -1.
         21    1    1    2  503  502 -0.15004258137E+02 -0.67202109936E+02 -0.10122503894E+02  0.69596813341E+02  0.00000000000E+00 0.  1.
          1    1    1    2  501    0 -0.28057421444E+02  0.12232129119E+02 -0.46671400867E+02  0.55812754275E+02  0.00000000000E+00 0. -1.
<scales pt_clust_5="13000.00000" pt_clust_6="13000.00000" pt_clust_7="13000.00000" pt_clust_8="13000.00000" pt_clust_9="68.16529" pt_clust_10="30.60792"></scales>
<clustering>
<clus scale="   30.608">  1 10  2 -1</clus>
<clus scale="   68.165">  2  9  1 -1</clus>
<clus scale="   90.674">  7  8 -1 -1</clus>
<clus scale="   91.079">  5  6 -1 -1</clus>
<clus scale="  160.764">  1  7  2 -1</clus>
<clus scale="   30.608">  1  5  2 -1</clus>
</clustering>
</event>
<event>
10    2  0.3544405E-006  0.1167839E+03  0.7546771E-02  0.1249027E+00
         21   -1    0    0  503  502  0.00000000000E+00  0.00000000000E+00  0.14883749732E+03  0.14883749732E+03  0.00000000000E+00 0.  1.
         -1   -1    0    0    0  501 -0.00000000000E+00 -0.00000000000E+00 -0.87257178175E+03  0.87257178175E+03  0.00000000000E+00 0.  1.
         23    2    1    2    0    0  0.62426701174E+00  0.76067849907E+02 -0.47980653447E+03  0.49418031022E+03  0.90626491667E+02 0.  0.
         23    2    1    2    0    0 -0.26922187388E+02 -0.95640487123E+02 -0.17461786151E+03  0.22104705863E+03  0.92187296405E+02 0.  0.
        -13    1    3    3    0    0  0.25024149828E+02 -0.48051500773E+01 -0.49640934781E+02  0.55798924254E+02  0.00000000000E+00 0.  1.
         13    1    3    3    0    0 -0.24399882816E+02  0.80872999984E+02 -0.43016559969E+03  0.43838138597E+03  0.00000000000E+00 0. -1.
        -13    1    4    4    0    0  0.10713188808E+01 -0.58148956605E+02 -0.16267309555E+03  0.17275701113E+03  0.00000000000E+00 0. -1.
         13    1    4    4    0    0 -0.27993506269E+02 -0.37491530518E+02 -0.11944765965E+02  0.48290047502E+02  0.00000000000E+00 0.  1.
         21    1    1    2  503  501  0.35058401129E+02 -0.29563591477E+02 -0.17947311366E+03  0.18523956369E+03  0.00000000000E+00 0.  1.
         -1    1    1    2    0  502 -0.87604807526E+01  0.49136228694E+02  0.11016322521E+03  0.12094234652E+03  0.00000000000E+00 0.  1.
<scales pt_clust_5="13000.00000" pt_clust_6="13000.00000" pt_clust_7="13000.00000" pt_clust_8="13000.00000" pt_clust_9="45.85954" pt_clust_10="49.63629"></scales>
<clustering>
<clus scale="   45.860">  2  9  1 -1</clus>
<clus scale="   49.636">  1 10  2 -1</clus>
<clus scale="   90.626">  5  6 -1 -1</clus>
<clus scale="   92.187">  7  8 -1 -1</clus>
<clus scale="  115.556">  2  5  1 -1</clus>
<clus scale="   49.636">  1  5  2 -1</clus>
</clustering>
</event>
<event>
10    2  0.3544405E-006  0.2078651E+03  0.7546771E-02  0.1143311E+00
          2   -1    0    0  503    0 -0.00000000000E+00  0.00000000000E+00  0.35465057958E+03  0.35465057958E+03  0.00000000000E+00 0. -1.
         21   -1    0    0  501  502  0.00000000000E+00 -0.00000000000E+00 -0.41465462048E+03  0.41465462048E+03  0.00000000000E+00 0.  1.
         23    2    1    2    0    0  0.14809784549E+03 -0.31831458926E+02  0.11029405530E+03  0.20861492169E+03  0.91701653759E+02 0.  0.
         23    2    1    2    0    0 -0.21288902747E+03 -0.58255711748E+02 -0.17340101792E+03  0.29543592095E+03  0.92190045013E+02 0.  0.
        -11    1    3    3    0    0  0.46022434247E+02 -0.39705588078E+02  0.82604594103E+02  0.10255787218E+03  0.00000000000E+00 0.  1.
         11    1    3    3    0    0  0.10207541124E+03  0.78741291521E+01  0.27689461194E+02  0.10605704951E+03  0.00000000000E+00 0. -1.
        -13    1    4    4    0    0 -0.51433306285E+02  0.25378877792E+02 -0.42739198766E+02  0.71526998710E+02  0.00000000000E+00 0.  1.
         13    1    4    4    0    0 -0.16145572119E+03 -0.83634589540E+02 -0.13066181916E+03  0.22390892224E+03  0.00000000000E+00 0. -1.
         21    1    1    2  503  502  0.42303895850E+02  0.71422943643E+02  0.11935582524E+03  0.14538455730E+03  0.00000000000E+00 0. -1.
          2    1    1    2  501    0  0.22487286131E+02  0.18664227032E+02 -0.11625290351E+03  0.11986980013E+03  0.00000000000E+00 0. -1.
<scales pt_clust_5="13000.00000" pt_clust_6="13000.00000" pt_clust_7="13000.00000" pt_clust_8="13000.00000" pt_clust_9="84.21979" pt_clust_10="29.22382"></scales>
<clustering>
<clus scale="   29.224">  2 10  1 -1</clus>
<clus scale="   84.220">  1  9  2 -1</clus>
<clus scale="   91.702">  5  6 -1 -1</clus>
<clus scale="   92.190">  7  8 -1 -1</clus>
<clus scale="  207.649">  1  5  2 -1</clus>
<clus scale="   29.224">  2  5  1 -1</clus>
</clustering>
</event>
<event>
10    2  0.3544405E-006  0.1220734E+03  0.7546771E-02  0.1240182E+00
         -1   -1    0    0    0  501 -0.00000000000E+00  0.00000000000E+00  0.18654528961E+03  0.18654528961E+03  0.00000000000E+00 0.  1.
         21   -1    0    0  503  502  0.00000000000E+00 -0.00000000000E+00 -0.22298199103E+03  0.22298199103E+03  0.00000000000E+00 0. -1.
         23    2    1    2    0    0  0.31959069187E+02  0.25498216472E+02  0.74701439959E+02  0.12405487665E+03  0.90209567904E+02 0.  0.
         23    2    1    2    0    0 -0.83784741467E+02 -0.18313692480E+02 -0.69782259901E+02  0.14367437676E+03  0.91746871907E+02 0.  0.
        -13    1    3    3    0    0 -0.29790032894E+02  0.22150089473E+02  0.25626985708E+02  0.45108922842E+02  0.00000000000E+00 0.  1.
         13    1    3    3    0    0  0.61749102081E+02  0.33481269991E+01  0.49074454252E+02  0.78945953806E+02  0.00000000000E+00 0. -1.
        -13    1    4    4    0    0 -0.16326456372E+02 -0.37219326153E+02 -0.60672311383E+02  0.73027123628E+02  0.00000000000E+00 0. -1.
         13    1    4    4    0    0 -0.67458285096E+02  0.18905633673E+02 -0.91099485181E+01  0.70647253129E+02  0.00000000000E+00 0.  1.
         21    1    1    2  503  501  0.78841184453E+02 -0.38697051058E+01  0.13948252649E+02  0.80158971647E+02  0.00000000000E+00 0. -1.
         -1    1    1    2    0  502 -0.27015512173E+02 -0.33148188867E+01 -0.55304134126E+02  0.61639055587E+02  0.00000000000E+00 0.  1.
<scales pt_clust_5="13000.00000" pt_clust_6="13000.00000" pt_clust_7="13000.00000" pt_clust_8="13000.00000" pt_clust_9="73.54476" pt_clust_10="27.21812"></scales>
<clustering>
<clus scale="   27.218">  2 10  1 -1</clus>
<clus scale="   73.545">  1  9  2 -1</clus>
<clus scale="   90.210">  5  6 -1 -1</clus>
<clus scale="   91.747">  7  8 -1 -1</clus>
<clus scale="  120.922">  1  5  2 -1</clus>
<clus scale="   27.218">  2  5  1 -1</clus>
</clustering>
</event>
<event>
10    2  0.3544405E-006  0.9800042E+02  0.7546771E-02  0.1284875E+00
          2   -1    0    0  503    0 -0.00000000000E+00  0.00000000000E+00  0.55249770583E+03  0.55249770583E+03  0.00000000000E+00 0. -1.
         21   -1    0    0  501  502  0.00000000000E+00 -0.00000000000E+00 -0.77206332062E+02  0.77206332062E+02  0.00000000000E+00 0. -1.
         23    2    1    2    0    0 -0.75573550899E+01 -0.56245013147E+01  0.23150671827E+03  0.24790303562E+03  0.88157846142E+02 0.  0.
         23    2    1    2    0    0  0.67149063866E+02  0.29774688428E+02  0.13357331031E+03  0.17576909792E+03  0.87506672350E+02 0.  0.
        -13    1    3    3    0    0  0.37924234571E+02 -0.12758141275E+02  0.13790057920E+03  0.14358825676E+03  0.00000000000E+00 0.  1.
         13    1    3    3    0    0 -0.45481589661E+02  0.71336399601E+01  0.93606139066E+02  0.10431477886E+03  0.00000000000E+00 0. -1.
        -13    1    4    4    0    0  0.38626735445E+02  0.76416906280E+01  0.21025697248E+01  0.39431471266E+02  0.00000000000E+00 0.  1.
         13    1    4    4    0    0  0.28522328422E+02  0.22132997800E+02  0.13147074059E+03  0.13633762665E+03  0.00000000000E+00 0. -1.
         21    1    1    2  503  502 -0.25891037261E+02 -0.36358267829E+02  0.14762144442E+03  0.15422178933E+03  0.00000000000E+00 0. -1.
          2    1    1    2  501    0 -0.33700671516E+02  0.12208080715E+02 -0.37410099229E+02  0.51810115032E+02  0.00000000000E+00 0. -1.
<scales pt_clust_5="13000.00000" pt_clust_6="13000.00000" pt_clust_7="13000.00000" pt_clust_8="13000.00000" pt_clust_9="45.74103" pt_clust_10="35.84372"></scales>
<clustering>
<clus scale="   35.844">  2 10  1 -1</clus>
<clus scale="   45.741">  1  9  2 -1</clus>
<clus scale="   87.507">  7  8 -1 -1</clus>
<clus scale="   88.158">  5  6 -1 -1</clus>
<clus scale="   97.415">  2  7  1 -1</clus>
<clus scale="   35.844">  2  5  1 -1</clus>
</clustering>
</event>
<event>
10    2  0.3544405E-006  0.1730775E+03  0.7546771E-02  0.1181183E+00
          2   -1    0    0  503    0 -0.00000000000E+00  0.00000000000E+00  0.71386015356E+03  0.71386015356E+03  0.00000000000E+00 0. -1.
         21   -1    0    0  501  502  0.00000000000E+00 -0.00000000000E+00 -0.34365832701E+03  0.34365832701E+03  0.00000000000E+00 0. -1.
         23    2    1    2    0    0  0.56652558668E+02  0.89122027529E+02  0.48762402986E+03  0.50729264981E+03  0.91740884316E+02 0.  0.
         23    2    1    2    0    0  0.10827959066E+03 -0.10709836132E+03  0.32263823156E+02  0.17929560559E+03  0.88946226175E+02 0.  0.
        -11    1    3    3    0    0  0.80374750013E+01  0.81276632029E+02  0.38364386808E+03  0.39224113685E+03  0.00000000000E+00 0. -1.
         11    1    3    3    0    0  0.48615083667E+02  0.78453955000E+01  0.10398016178E+03  0.11505151296E+03  0.00000000000E+00 0.  1.
        -13    1    4    4    0    0  0.69942267936E+02 -0.11415826910E+03  0.96471042178E+01  0.13422778351E+03  0.00000000000E+00 0.  1.
         13    1    4    4    0    0  0.38337322722E+02  0.70599077818E+01  0.22616718938E+02  0.45067822079E+02  0.00000000000E+00 0. -1.
         21    1    1    2  503  502 -0.85189196735E+01  0.22407940402E+02  0.85304518723E+02  0.88608965122E+02  0.00000000000E+00 0. -1.
          2    1    1    2  501    0 -0.15641322965E+03 -0.44316066155E+01 -0.23499054519E+03  0.28232126005E+03  0.00000000000E+00 0. -1.
<scales pt_clust_5="13000.00000" pt_clust_6="13000.00000" pt_clust_7="13000.00000" pt_clust_8="13000.00000" pt_clust_9="23.97265" pt_clust_10="148.47349"></scales>
<clustering>
<clus scale="   23.973">  1  9  2 -1</clus>
<clus scale="   88.946">  7  8 -1 -1</clus>
<clus scale="   91.741">  5  6 -1 -1</clus>
<clus scale="  149.445">  1  5  2 -1</clus>
<clus scale="  148.473">  2 10  1 -1</clus>
<clus scale="  148.473">  2  5  1 -1</clus>
</clustering>
</event>
<event>
10    2  0.3544405E-006  0.1246935E+03  0.7546771E-02  0.1235638E+00
         21   -1    0    0  503  502  0.00000000000E+00  0.00000000000E+00  0.56466334090E+02  0.56466334090E+02  0.00000000000E+00 0. -1.
         -1   -1    0    0    0  501 -0.00000000000E+00 -0.00000000000E+00 -0.57633148818E+03  0.57633148818E+03  0.00000000000E+00 0.  1.
         23    2    1    2    0    0 -0.84488978889E+02  0.30672428213E+02 -0.36416778510E+03  0.38596785450E+03  0.90960560673E+02 0.  0.
         23    2    1    2    0    0  0.67981182463E+02 -0.24488873036E+02 -0.92364150151E+02  0.14860191587E+03  0.91270187336E+02 0.  0.
        -11    1    4    4    0    0  0.24148699144E+02 -0.56914563228E+02 -0.46656230941E+02  0.77454703300E+02  0.00000000000E+00 0. -1.
         11    1    4    4    0    0  0.43832483320E+02  0.32425690192E+02 -0.45707919210E+02  0.71147212573E+02  0.00000000000E+00 0.  1.
        -11    1    3    3    0    0 -0.43526544276E+02 -0.30861497767E+02 -0.13450418704E+03  0.14470096210E+03  0.00000000000E+00 0. -1.
         11    1    3    3    0    0 -0.40962434614E+02  0.61533925980E+02 -0.22966359806E+03  0.24126689240E+03  0.00000000000E+00 0.  1.
         21    1    1    2  503  501  0.40205877911E+02  0.17710502642E+01 -0.61056738290E+02  0.73127112128E+02  0.00000000000E+00 0.  1.
         -1    1    1    2    0  502 -0.23698081485E+02 -0.79546054417E+01 -0.22764805573E+01  0.25100939774E+02  0.00000000000E+00 0.  1.
<scales pt_clust_5="13000.00000" pt_clust_6="13000.00000" pt_clust_7="13000.00000" pt_clust_8="13000.00000" pt_clust_9="37.03814" pt_clust_10="24.99750"></scales>
<clustering>
<clus scale="   24.997">  1 10  2 -1</clus>
<clus scale="   37.038">  1  9  2 -1</clus>
<clus scale="   90.961">  7  8 -1 -1</clus>
<clus scale="   91.270">  5  6 -1 -1</clus>
<clus scale="  124.467">  2  7  1 -1</clus>
<clus scale="   24.997">  1  5  2 -1</clus>
</clustering>
</event>
<event>
10    2  0.3544405E-006  0.1202819E+03  0.7546771E-02  0.1242992E+00
         -3   -1    0    0    0  501 -0.00000000000E+00  0.00000000000E+00  0.18352547489E+03  0.18352547489E+03  0.00000000000E+00 0.  1.
         21   -1    0    0  503  502  0.00000000000E+00 -0.00000000000E+00 -0.50503000771E+03  0.50503000771E+03  0.00000000000E+00 0.  1.
         23    2    1    2    0    0  0.14594992352E+02 -0.44642885918E+02  0.12763022479E+03  0.16337834253E+03  0.90537326357E+02 0.  0.
         23    2    1    2    0    0  0.31035446168E+02  0.76262611096E+02 -0.20740784087E+03  0.24125282590E+03  0.91682761628E+02 0.  0.
        -11    1    4    4    0    0  0.38007597410E+02  0.42833132187E+02 -0.38680637841E+02  0.69104604894E+02  0.00000000000E+00 0.  1.
         11    1    4    4    0    0 -0.69721512420E+01  0.33429478909E+02 -0.16872720303E+03  0.17214822100E+03  0.00000000000E+00 0. -1.
        -13    1    3    3    0    0  0.42420844496E+02 -0.39568955897E+02  0.37895400972E+02  0.69291353958E+02  0.00000000000E+00 0.  1.
         13    1    3    3    0    0 -0.27825852144E+02 -0.50739300212E+01  0.89734823818E+02  0.94086988575E+02  0.00000000000E+00 0. -1.
         21    1    1    2  503  501  0.30588997086E+02 -0.33808039975E+02 -0.20619602057E+02  0.50038368265E+02  0.00000000000E+00 0.  1.
         -3    1    1    2    0  502 -0.76219435606E+02  0.21883147971E+01 -0.22110731468E+03  0.23388594591E+03  0.00000000000E+00 0.  1.
<scales pt_clust_5="13000.00000" pt_clust_6="13000.00000" pt_clust_7="13000.00000" pt_clust_8="13000.00000" pt_clust_9="45.59244" pt_clust_10="75.06721"></scales>
<clustering>
<clus scale="   45.592">  1  9  2 -1</clus>
<clus scale="   75.067">  2 10  1 -1</clus>
<clus scale="   90.537">  7  8 -1 -1</clus>
<clus scale="   91.683">  5  6 -1 -1</clus>
<clus scale="  119.411">  1  7  2 -1</clus>
<clus scale="   75.067">  2  5  1 -1</clus>
</clustering>
</event>
<event>
10    2  0.3544405E-006  0.2174959E+03  0.7546771E-02  0.1135838E+00
         21   -1    0    0  501  502  0.00000000000E+00  0.00000000000E+00  0.21700080267E+03  0.21700080267E+03  0.00000000000E+00 0. -1.
          1   -1    0    0  503    0 -0.00000000000E+00 -0.00000000000E+00 -0.48478069887E+03  0.48478069887E+03  0.00000000000E+00 0. -1.
         23    2    1    2    0    0 -0.20098951325E+03  0.75018802432E+02 -0.25847906126E+03  0.34822938521E+03  0.91802366305E+02 0.  0.
         23    2    1    2    0    0  0.19317673588E+03 -0.46229231295E+01 -0.27984945142E+02  0.21614481975E+03  0.92718947615E+02 0.  0.
        -11    1    3    3    0    0 -0.17806597334E+03  0.88328731185E+02 -0.25197175755E+03  0.32093491897E+03  0.00000000000E+00 0.  1.
         11    1    3    3    0    0 -0.22923539916E+02 -0.13309928753E+02 -0.65073037095E+01  0.27294466239E+02  0.00000000000E+00 0. -1.
        -13    1    4    4    0    0  0.62219451927E+02 -0.45517856984E+02 -0.80719075124E+01  0.77513167871E+02  0.00000000000E+00 0.  1.
         13    1    4    4    0    0  0.13095728395E+03  0.40894933854E+02 -0.19913037630E+02  0.13863165188E+03  0.00000000000E+00 0. -1.
         21    1    1    2  503  502  0.27892709354E+02  0.12675357687E+02 -0.26701290280E+02  0.40640211985E+02  0.00000000000E+00 0.  1.
          1    1    1    2  501    0 -0.20079931977E+02 -0.83071236989E+02  0.45385400478E+02  0.96767084588E+02  0.00000000000E+00 0. -1.
<scales pt_clust_5="13000.00000" pt_clust_6="13000.00000" pt_clust_7="13000.00000" pt_clust_8="13000.00000" pt_clust_9="30.63769" pt_clust_10="84.39995"></scales>
<clustering>
<clus scale="   30.638">  2  9  1 -1</clus>
<clus scale="   84.400">  1 10  2 -1</clus>
<clus scale="   91.802">  5  6 -1 -1</clus>
<clus scale="   92.719">  7  8 -1 -1</clus>
<clus scale="  217.107">  2  5  1 -1</clus>
<clus scale="   84.400">  1  5  2 -1</clus>
</clustering>
</event>
<event>
10    2  0.3544405E-006  0.1010893E+03  0.7546771E-02  0.1280493E+00
         -3   -1    0    0    0  501 -0.00000000000E+00  0.00000000000E+00  0.32507008375E+03  0.32507008375E+03  0.00000000000E+00 0.  1.
         21   -1    0    0  503  502  0.00000000000E+00 -0.00000000000E+00 -0.46011907652E+03  0.46011907652E+03  0.00000000000E+00 0. -1.
         23    2    1    2    0    0  0.19368152612E+02  0.29909483747E+02  0.10278880834E+03  0.14160727893E+03  0.90649764327E+02 0.  0.
         23    2    1    2    0    0  0.60429549371E+02 -0.51530690851E+02  0.10481891945E+02  0.12471075927E+03  0.95581174312E+02 0.  0.
        -11    1    4    4    0    0  0.37461791384E+02  0.23705175045E+02  0.12367099181E+02  0.46024626884E+02  0.00000000000E+00 0.  1.
         11    1    4    4    0    0  0.22967757987E+02 -0.75235865896E+02 -0.18852072362E+01  0.78686132389E+02  0.00000000000E+00 0. -1.
        -11    1    3    3    0    0  0.13584111509E+02  0.61216527084E+02  0.83355824338E+02  0.10430812396E+03  0.00000000000E+00 0.  1.
         11    1    3    3    0    0  0.57840411032E+01 -0.31307043337E+02  0.19432983997E+02  0.37299154964E+02  0.00000000000E+00 0. -1.
         21    1    1    2  503  501 -0.20577699398E+02 -0.97725477938E+01  0.13135995102E+03  0.13332059532E+03  0.00000000000E+00 0.  1.
         -3    1    1    2    0  502 -0.59220002586E+02  0.31393754898E+02 -0.37967964408E+03  0.38555052675E+03  0.00000000000E+00 0.  1.
<scales pt_clust_5="13000.00000" pt_clust_6="13000.00000" pt_clust_7="13000.00000" pt_clust_8="13000.00000" pt_clust_9="22.78035" pt_clust_10="67.23446"></scales>
<clustering>
<clus scale="   22.780">  1  9  2 -1</clus>
<clus scale="   67.234">  2 10  1 -1</clus>
<clus scale="   90.650">  7  8 -1 -1</clus>
<clus scale="   95.581">  5  6 -1 -1</clus>
<clus scale="   96.440">  1  7  2 -1</clus>
<clus scale="   67.234">  2  5  1 -1</clus>
</clustering>
</event>
<event>
10    2  0.3544405E-006  0.1350157E+03  0.7546771E-02  0.1221482E+00
         21   -1    0    0  501  502  0.00000000000E+00  0.00000000000E+00  0.12571738077E+03  0.12571738077E+03  0.00000000000E+00 0.  1.
          2   -1    0    0  503    0 -0.00000000000E+00 -0.00000000000E+00 -0.35303948157E+03  0.35303948157E+03  0.00000000000E+00 0. -1.
         23    2    1    2    0    0  0.10018428037E+03  0.38220971410E+02 -0.18350274980E+03  0.23361884449E+03  0.96988518012E+02 0.  0.
         23    2    1    2    0    0 -0.79020727285E+02  0.76818131979E+01 -0.58992918566E+02  0.13503443314E+03  0.91928494483E+02 0.  0.
        -11    1    3    3    0    0  0.10113792001E+03 -0.41923018155E+01 -0.14094172778E+03  0.17352528602E+03  0.00000000000E+00 0.  1.
         11    1    3    3    0    0 -0.95363963344E+00  0.42413273226E+02 -0.42561022022E+02  0.60093558472E+02  0.00000000000E+00 0. -1.
        -13    1    4    4    0    0 -0.34926585215E+02  0.49406591682E+02 -0.33821592775E+02  0.69316504487E+02  0.00000000000E+00 0. -1.
         13    1    4    4    0    0 -0.44094142070E+02 -0.41724778484E+02 -0.25171325791E+02  0.65717928654E+02  0.00000000000E+00 0.  1.
         21    1    1    2  503  502  0.19391178352E+02 -0.50043133892E+02 -0.18975729513E+02  0.56924611182E+02  0.00000000000E+00 0.  1.
          2    1    1    2  501    0 -0.40554731439E+02  0.41403492843E+01  0.34149297087E+02  0.53178973531E+02  0.00000000000E+00 0. -1.
<scales pt_clust_5="13000.00000" pt_clust_6="13000.00000" pt_clust_7="13000.00000" pt_clust_8="13000.00000" pt_clust_9="50.09658" pt_clust_10="40.76553"></scales>
<clustering>
<clus scale="   40.766">  1 10  2 -1</clus>
<clus scale="   50.097">  1  9  2 -1</clus>
<clus scale="   91.928">  7  8 -1 -1</clus>
<clus scale="   96.989">  5  6 -1 -1</clus>
<clus scale="  131.428">  1  7  2 -1</clus>
<clus scale="   40.766">  1  5  2 -1</clus>
</clustering>
</event>
<event>
10    2  0.3544405E-006  0.9197130E+02  0.7546771E-02  0.1300483E+00
         21   -1    0    0  501  502  0.00000000000E+00  0.00000000000E+00  0.45015285479E+03  0.45015285479E+03  0.00000000000E+00 0.  1.
          1   -1    0    0  503    0 -0.00000000000E+00 -0.00000000000E+00 -0.35813023973E+02  0.35813023973E+02  0.00000000000E+00 0. -1.
         23    2    1    2    0    0 -0.47977878531E+01 -0.13797110128E+02  0.11296056227E+03  0.14289644458E+03  0.86289780550E+02 0.  0.
         23    2    1    2    0    0 -0.29210066612E+02  0.12469168229E+02  0.13160977524E+03  0.16271024378E+03  0.90248447886E+02 0.  0.
        -13    1    3    3    0    0  0.27982035214E+02 -0.33512926879E+02  0.34633287747E+02  0.55727687758E+02  0.00000000000E+00 0.  1.
         13    1    3    3    0    0 -0.32779823067E+02  0.19715816751E+02  0.78327274527E+02  0.87168756818E+02  0.00000000000E+00 0. -1.
        -13    1    4    4    0    0 -0.52734090679E+02 -0.13187610206E+02  0.10720480404E+03  0.12019845004E+03  0.00000000000E+00 0.  1.
         13    1    4    4    0    0  0.23524024066E+02  0.25656778435E+02  0.24404971192E+02  0.42511793738E+02  0.00000000000E+00 0. -1.
         21    1    1    2  503  502  0.10863002237E+02 -0.20504620483E+02  0.35793938289E+02  0.42657359236E+02  0.00000000000E+00 0.  1.
          1    1    1    2  501    0  0.23144852228E+02  0.21832562382E+02  0.13397555502E+03  0.13770183117E+03  0.00000000000E+00 0. -1.
<scales pt_clust_5="13000.00000" pt_clust_6="13000.00000" pt_clust_7="13000.00000" pt_clust_8="13000.00000" pt_clust_9="23.20440" pt_clust_10="31.48880"></scales>
<clustering>
<clus scale="   23.204">  2  9  1 -1</clus>
<clus scale="   31.489">  1 10  2 -1</clus>
<clus scale="   86.290">  5  6 -1 -1</clus>
<clus scale="   88.090">  2  5  1 -1</clus>
<clus scale="   90.248">  7  8 -1 -1</clus>
<clus scale="   31.489">  1  5  2 -1</clus>
</clustering>
</event>
<event>
10    2  0.3544405E-006  0.1655322E+03  0.7546771E-02  0.1182763E+00
         21   -1    0    0  501  502  0.00000000000E+00  0.00000000000E+00  0.21003187339E+03  0.21003187339E+03  0.00000000000E+00 0.  1.
          2   -1    0    0  503    0 -0.00000000000E+00 -0.00000000000E+00 -0.49689892187E+03  0.49689892187E+03  0.00000000000E+00 0. -1.
         23    2    1    2    0    0 -0.95528085358E+02 -0.18024317896E+02 -0.24274920736E+03  0.27766733473E+03  0.93388864282E+02 0.  0.
         23    2    1    2    0    0  0.11789067743E+03  0.10310292787E+03 -0.71132663123E+02  0.19518448511E+03  0.92242625215E+02 0.  0.
        -11    1    4    4    0    0  0.62062516973E+02 -0.22611315369E+01 -0.30681235935E+02  0.69269090996E+02  0.00000000000E+00 0.  1.
         11    1    4    4    0    0  0.55828160454E+02  0.10536405941E+03 -0.40451427188E+02  0.12591539412E+03  0.00000000000E+00 0. -1.
        -13    1    3    3    0    0 -0.39339400129E+02 -0.51442135868E+02 -0.84621566535E+02  0.10655839370E+03  0.00000000000E+00 0.  1.
         13    1    3    3    0    0 -0.56188685229E+02  0.33417817972E+02 -0.15812764083E+03  0.17110894103E+03  0.00000000000E+00 0. -1.
         21    1    1    2  503  502 -0.50174363497E+02 -0.73309201528E+02 -0.82038398486E+02  0.12092148117E+03  0.00000000000E+00 0.  1.
          2    1    1    2  501    0  0.27811771428E+02 -0.11769408446E+02  0.10905322050E+03  0.11315749426E+03  0.00000000000E+00 0. -1.
<scales pt_clust_5="13000.00000" pt_clust_6="13000.00000" pt_clust_7="13000.00000" pt_clust_8="13000.00000" pt_clust_9="87.84975" pt_clust_10="30.19956"></scales>
<clustering>
<clus scale="   30.200">  1 10  2 -1</clus>
<clus scale="   87.850">  2  9  1 -1</clus>
<clus scale="   92.243">  5  6 -1 -1</clus>
<clus scale="   93.389">  7  8 -1 -1</clus>
<clus scale="  164.888">  1  5  2 -1</clus>
<clus scale="   30.200">  1  5  2 -1</clus>
</clustering>
</event>
<event>
10    2  0.3544405E-006  0.9944418E+02  0.7546771E-02  0.1281524E+00
         -1   -1    0    0    0  501 -0.00000000000E+00  0.00000000000E+00  0.16003184351E+03  0.16003184351E+03  0.00000000000E+00 0.  1.
         21   -1    0    0  503  502  0.00000000000E+00 -0.00000000000E+00 -0.56809407847E+03  0.56809407847E+03  0.00000000000E+00 0.  1.
         23    2    1    2    0    0 -0.21445190782E+02 -0.19507678904E+02  0.95048780622E+02  0.13532508567E+03  0.91859470770E+02 0.  0.
         23    2    1    2    0    0 -0.62569901768E+02  0.53446839596E+02 -0.11759521725E+03  0.17034643802E+03  0.91748114729E+02 0.  0.
        -11    1    3    3    0    0 -0.39541220879E+02  0.60640778005E+01  0.95981422589E+02  0.10398420395E+03  0.00000000000E+00 0.  1.
         11    1    3    3    0    0  0.18096030097E+02 -0.25571756704E+02 -0.93264196711E+00  0.31340881724E+02  0.00000000000E+00 0. -1.
        -11    1    4    4    0    0 -0.59032028290E+02 -0.87948022241E+01 -0.45594404161E+02  0.75106448464E+02  0.00000000000E+00 0.  1.
         11    1    4    4    0    0 -0.35378734784E+01  0.62241641820E+02 -0.72000813094E+02  0.95239989560E+02  0.00000000000E+00 0. -1.
         21    1    1    2  503  501  0.54881440200E+02  0.20964183033E+02 -0.39249502604E+02  0.70654036709E+02  0.00000000000E+00 0.  1.
         -1    1    1    2    0  502  0.29133652350E+02 -0.54903343726E+02 -0.34626629573E+03  0.35180036158E+03  0.00000000000E+00 0.  1.
<scales pt_clust_5="13000.00000" pt_clust_6="13000.00000" pt_clust_7="13000.00000" pt_clust_8="13000.00000" pt_clust_9="58.74921" pt_clust_10="62.30240"></scales>
<clustering>
<clus scale="   58.749">  1  9  2 -1</clus>
<clus scale="   62.302">  2 10  1 -1</clus>
<clus scale="   91.748">  7  8 -1 -1</clus>
<clus scale="   91.859">  5  6 -1 -1</clus>
<clus scale="   99.341">  2  7  1 -1</clus>
<clus scale="   62.302">  2  5  1 -1</clus>
</clustering>
</event>
<event>
10    2  0.3544405E-006  0.1428264E+03  0.7546771E-02  0.1210216E+00
         -3   -1    0    0    0  501 -0.00000000000E+00  0.00000000000E+00  0.21678925157E+03  0.21678925157E+03  0.00000000000E+00 0.  1.
         21   -1    0    0  503  502  0.00000000000E+00 -0.00000000000E+00 -0.29783724675E+03  0.29783724675E+03  0.00000000000E+00 0.  1.
         23    2    1    2    0    0 -0.12199614461E+03  0.50488505249E+02  0.95861721534E+02  0.18692804067E+03  0.91216633734E+02 0.  0.
         23    2    1    2    0    0  0.55408714721E+02 -0.14423107121E+02 -0.36925147595E+02  0.11624412582E+03  0.94186403349E+02 0.  0.
        -13    1    4    4    0    0  0.35151699190E+02  0.35641774168E+02  0.13017236372E+01  0.50076666285E+02  0.00000000000E+00 0. -1.
         13    1    4    4    0    0  0.20257015531E+02 -0.50064881289E+02 -0.38226871232E+02  0.66167459532E+02  0.00000000000E+00 0.  1.
        -13    1    3    3    0    0 -0.87091308275E+02  0.67234819211E+02  0.36239117924E+02  0.11583907182E+03  0.00000000000E+00 0.  1.
         13    1    3    3    0    0 -0.34904836335E+02 -0.16746313962E+02  0.59622603610E+02  0.71088968850E+02  0.00000000000E+00 0. -1.
         21    1    1    2  503  501 -0.24315805071E+02  0.99705756208E+01  0.11663726983E+02  0.28752622169E+02  0.00000000000E+00 0. -1.
         -3    1    1    2    0  502  0.90903234960E+02 -0.46035973749E+02 -0.15164829610E+03  0.18270170966E+03  0.00000000000E+00 0.  1.
<scales pt_clust_5="13000.00000" pt_clust_6="13000.00000" pt_clust_7="13000.00000" pt_clust_8="13000.00000" pt_clust_9="26.28062" pt_clust_10="99.82655"></scales>
<clustering>
<clus scale="   26.281">  1  9  2 -1</clus>
<clus scale="   91.217">  7  8 -1 -1</clus>
<clus scale="   94.186">  5  6 -1 -1</clus>
<clus scale="   99.827">  2 10  1 -1</clus>
<clus scale="  140.886">  1  7  2 -1</clus>
<clus scale="   99.827">  2  5  1 -1</clus>
</clustering>
</event>
<event>
10    2  0.3544405E-006  0.9862001E+02  0.7546771E-02  0.1283902E+00
         -3   -1    0    0    0  501 -0.00000000000E+00  0.00000000000E+00  0.68621483271E+02  0.68621483271E+02  0.00000000000E+00 0.  1.
         21   -1    0    0  503  502  0.00000000000E+00 -0.00000000000E+00 -0.36345016597E+03  0.36345016597E+03  0.00000000000E+00 0. -1.
         23    2    1    2    0    0 -0.28085047738E+02  0.12985811573E+02 -0.87222218093E+02  0.12977599606E+03  0.90976329974E+02 0.  0.
         23    2    1    2    0    0  0.33418593510E+02 -0.25188913909E+02 -0.12871965322E+03  0.16383729126E+03  0.92318064887E+02 0.  0.
        -13    1    3    3    0    0 -0.18307091979E+02  0.50925260344E+02 -0.65550720329E+02  0.85002521689E+02  0.00000000000E+00 0.  1.
         13    1    3    3    0    0 -0.97779557586E+01 -0.37939448771E+02 -0.21671497764E+02  0.44773474371E+02  0.00000000000E+00 0. -1.
        -13    1    4    4    0    0  0.41934069016E+02  0.16090019631E+02 -0.23936825698E+02  0.50895250274E+02  0.00000000000E+00 0.  1.
         13    1    4    4    0    0 -0.85154755056E+01 -0.41278933541E+02 -0.10478282752E+03  0.11294204098E+03  0.00000000000E+00 0. -1.
         21    1    1    2  503  501  0.24358589907E+02  0.25074745153E+02  0.15822717698E+02  0.38372413816E+02  0.00000000000E+00 0.  1.
         -3    1    1    2    0  502 -0.29692135679E+02 -0.12871642817E+02 -0.94709529082E+02  0.10008594811E+03  0.00000000000E+00 0.  1.
<scales pt_clust_5="13000.00000" pt_clust_6="13000.00000" pt_clust_7="13000.00000" pt_clust_8="13000.00000" pt_clust_9="33.69434" pt_clust_10="32.36205"></scales>
<clustering>
<clus scale="   32.362">  2 10  1 -1</clus>
<clus scale="   33.694">  1  9  2 -1</clus>
<clus scale="   90.976">  5  6 -1 -1</clus>
<clus scale="   92.318">  7  8 -1 -1</clus>
<clus scale="   97.365">  1  5  2 -1</clus>
<clus scale="   32.362">  2  5  1 -1</clus>
</clustering>
</event>
<event>
10    2  0.3544405E-006  0.1480439E+03  0.7546771E-02  0.1203396E+00
          2   -1    0    0  503    0 -0.00000000000E+00  0.00000000000E+00  0.71248808361E+03  0.71248808361E+03  0.00000000000E+00 0. -1.
         21   -1    0    0  501  502  0.00000000000E+00 -0.00000000000E+00 -0.26120992460E+03  0.26120992460E+03  0.00000000000E+00 0.  1.
         23    2    1    2    0    0 -0.57222545647E+02 -0.90357883985E+01  0.37397907834E+02  0.11737750237E+03  0.94988469569E+02 0.  0.
         23    2    1    2    0    0  0.17278036966E+03 -0.73979972674E+01 -0.42139349351E+02  0.20059734382E+03  0.92497476080E+02 0.  0.
        -13    1    4    4    0    0  0.12329175570E+03 -0.18497203912E+02 -0.69743788089E+02  0.14285376983E+03  0.00000000000E+00 0.  1.
         13    1    4    4    0    0  0.49488613957E+02  0.11099206645E+02  0.27604438739E+02  0.57743573994E+02  0.00000000000E+00 0. -1.
        -13    1    3    3    0    0  0.28304731668E+01  0.30965411691E+02  0.32616663242E+02  0.45063455489E+02  0.00000000000E+00 0.  1.
         13    1    3    3    0    0 -0.60053018813E+02 -0.40001200089E+02  0.47812445919E+01  0.72314046886E+02  0.00000000000E+00 0. -1.
         21    1    1    2  503  502 -0.93257068534E+02  0.36168120027E+02  0.54902733651E+03  0.55806453925E+03  0.00000000000E+00 0. -1.
          2    1    1    2  501    0 -0.22300755480E+02 -0.19734334361E+02 -0.93007735981E+02  0.97658622762E+02  0.00000000000E+00 0. -1.
<scales pt_clust_5="13000.00000" pt_clust_6="13000.00000" pt_clust_7="13000.00000" pt_clust_8="13000.00000" pt_clust_9="100.39965" pt_clust_10="29.77864"></scales>
<clustering>
<clus scale="   29.779">  2 10  1 -1</clus>
<clus scale="   92.497">  5  6 -1 -1</clus>
<clus scale="   94.988">  7  8 -1 -1</clus>
<clus scale="  100.400">  1  9  2 -1</clus>
<clus scale="  146.458">  2  5  1 -1</clus>
<clus scale="   29.779">  2  5  1 -1</clus>
</clustering>
</event>
<event>
10    2  0.3544405E-006  0.1401822E+03  0.7546771E-02  0.1215931E+00
          2   -1    0    0  503    0 -0.00000000000E+00  0.00000000000E+00  0.23099939453E+03  0.23099939453E+03  0.00000000000E+00 0. -1.
         21   -1    0    0  501  502  0.00000000000E+00 -0.00000000000E+00 -0.27893613894E+03  0.27893613894E+03  0.00000000000E+00 0.  1.
         23    2    1    2    0    0  0.12245012454E+02 -0.95620075484E+02 -0.43124710876E+02  0.13990866129E+03  0.91769023376E+02 0.  0.
         23    2    1    2    0    0 -0.40976643262E+02  0.85428320966E+02 -0.25017484924E+02  0.14233090505E+03  0.10322368267E+03 0.  0.
        -11    1    3    3    0    0 -0.21128226463E+02 -0.82344073298E+02 -0.16281329046E+01  0.85027049682E+02  0.00000000000E+00 0. -1.
         11    1    3    3    0    0  0.33373238917E+02 -0.13276002185E+02 -0.41496577972E+02  0.54881611612E+02  0.00000000000E+00 0.  1.
        -13    1    4    4    0    0  0.29816599832E+02  0.75323070242E+01 -0.20529858358E+02  0.36976213420E+02  0.00000000000E+00 0. -1.
         13    1    4    4    0    0 -0.70793243094E+02  0.77896013942E+02 -0.44876265660E+01  0.10535469163E+03  0.00000000000E+00 0.  1.
         21    1    1    2  503  502  0.71078620874E+01  0.20999460652E+02  0.12152589745E+03  0.12353154578E+03  0.00000000000E+00 0.  1.
          2    1    1    2  501    0  0.21623768720E+02 -0.10807706134E+02 -0.10132044606E+03  0.10416442135E+03  0.00000000000E+00 0. -1.
<scales pt_clust_5="13000.00000" pt_clust_6="13000.00000" pt_clust_7="13000.00000" pt_clust_8="13000.00000" pt_clust_9="22.16978" pt_clust_10="24.13623"></scales>
<clustering>
<clus scale="   22.170">  1  9  2 -1</clus>
<clus scale="   24.136">  2 10  1 -1</clus>
<clus scale="   91.769">  5  6 -1 -1</clus>
<clus scale="  103.224">  7  8 -1 -1</clus>
<clus scale="  131.975">  1  5  2 -1</clus>
<clus scale="   24.136">  2  5  1 -1</clus>
</clustering>
</event>
<event>
10    2  0.3544405E-006  0.1832354E+03  0.7546771E-02  0.1164880E+00
         21   -1    0    0  501  502  0.00000000000E+00  0.00000000000E+00  0.24740923416E+03  0.24740923416E+03  0.00000000000E+00 0.  1.
          1   -1    0    0  503    0 -0.00000000000E+00 -0.00000000000E+00 -0.12478775107E+04  0.12478775107E+04  0.00000000000E+00 0. -1.
         23    2    1    2    0    0  0.73277100859E+02 -0.17321338003E+03 -0.73335281973E+03  0.76260588336E+03  0.91591301942E+02 0.  0.
         23    2    1    2    0    0 -0.15849931564E+03  0.14295068107E+02  0.10885815794E+03  0.21408121433E+03  0.93028413646E+02 0.  0.
        -11    1    3    3    0    0  0.31433141383E+02 -0.28776219996E+01 -0.15753987409E+03  0.16067089037E+03  0.00000000000E+00 0.  1.
         11    1    3    3    0    0  0.41843959476E+02 -0.17033575803E+03 -0.57581294565E+03  0.60193499299E+03  0.00000000000E+00 0. -1.
        -13    1    4    4    0    0 -0.13499478301E+03  0.16622244101E+02  0.40740487407E+02  0.14198478001E+03  0.00000000000E+00 0.  1.
         13    1    4    4    0    0 -0.23504532630E+02 -0.23271759935E+01  0.68117670537E+02  0.72096434320E+02  0.00000000000E+00 0. -1.
         21    1    1    2  503  502  0.62386623758E+02  0.87270569532E+02 -0.41862197494E+03  0.43214881815E+03  0.00000000000E+00 0. -1.
          1    1    1    2  501    0  0.22835591025E+02  0.71647742393E+02  0.42648360198E+02  0.86450829002E+02  0.00000000000E+00 0. -1.
<scales pt_clust_5="13000.00000" pt_clust_6="13000.00000" pt_clust_7="13000.00000" pt_clust_8="13000.00000" pt_clust_9="109.92681" pt_clust_10="75.19882"></scales>
<clustering>
<clus scale="   75.199">  1 10  2 -1</clus>
<clus scale="   91.591">  5  6 -1 -1</clus>
<clus scale="   93.028">  7  8 -1 -1</clus>
<clus scale="  109.927">  2  9  1 -1</clus>
<clus scale="  182.510">  2  5  1 -1</clus>
<clus scale="   75.199">  1  5  2 -1</clus>
</clustering>
</event>
<event>
10    2  0.3544405E-006  0.1183585E+03  0.7546771E-02  0.1247550E+00
          2   -1    0    0  503    0 -0.00000000000E+00  0.00000000000E+00  0.54520985325E+03  0.54520985325E+03  0.00000000000E+00 0. -1.
         21   -1    0    0  501  502  0.00000000000E+00 -0.00000000000E+00 -0.18185519450E+03  0.18185519450E+03  0.00000000000E+00 0. -1.
         23    2    1    2    0    0 -0.45764634682E+02  0.51309691378E+02  0.36808680710E+03  0.38512332049E+03  0.90027707997E+02 0.  0.
         23    2    1    2    0    0  0.38172278972E+02 -0.55543171991E+02  0.54029476219E+02  0.12095835610E+03  0.84673329769E+02 0.  0.
        -11    1    3    3    0    0 -0.70529703406E+02  0.20866919339E+02  0.25647831006E+03  0.26681639927E+03  0.00000000000E+00 0.  1.
         11    1    3    3    0    0  0.24765068724E+02  0.30442772039E+02  0.11160849704E+03  0.11830692122E+03  0.00000000000E+00 0. -1.
        -11    1    4    4    0    0  0.43053378358E+02 -0.32945386072E+02 -0.79640275875E+01  0.54794320754E+02  0.00000000000E+00 0.  1.
         11    1    4    4    0    0 -0.48810993860E+01 -0.22597785919E+02  0.61993503806E+02  0.66164035350E+02  0.00000000000E+00 0. -1.
         21    1    1    2  503  502  0.14630270959E+02  0.29099952347E+02  0.76568328603E+02  0.83207938323E+02  0.00000000000E+00 0. -1.
          2    1    1    2  501    0 -0.70379152487E+01 -0.24866471735E+02 -0.13532995317E+03  0.13777543283E+03  0.00000000000E+00 0. -1.
<scales pt_clust_5="13000.00000" pt_clust_6="13000.00000" pt_clust_7="13000.00000" pt_clust_8="13000.00000" pt_clust_9="30.71309" pt_clust_10="25.84325"></scales>
<clustering>
<clus scale="   25.843">  2 10  1 -1</clus>
<clus scale="   30.713">  1  9  2 -1</clus>
<clus scale="   84.673">  7  8 -1 -1</clus>
<clus scale="   90.028">  5  6 -1 -1</clus>
<clus scale="  114.339">  2  7  1 -1</clus>
<clus scale="   25.843">  2  5  1 -1</clus>
</clustering>
</event>
<event>
10    2  0.3544405E-006  0.1421110E+03  0.7546771E-02  0.1211977E+00
         -2   -1    0    0    0  501 -0.00000000000E+00  0.00000000000E+00  0.20839149070E+03  0.20839149070E+03  0.00000000000E+00 0.  1.
         21   -1    0    0  503  502  0.00000000000E+00 -0.00000000000E+00 -0.35236045409E+03  0.35236045409E+03  0.00000000000E+00 0.  1.
         23    2    1    2    0    0  0.12527453453E+02 -0.10239191451E+03  0.47372827673E+02  0.14984521237E+03  0.97818002541E+02 0.  0.
         23    2    1    2    0    0 -0.33099486607E+02  0.67166841276E+02 -0.65171588551E+02  0.13492245376E+03  0.91377086816E+02 0.  0.
        -13    1    3    3    0    0  0.20739098367E+02  0.12674244959E+02  0.19515492677E+02  0.31170517172E+02  0.00000000000E+00 0. -1.
         13    1    3    3    0    0 -0.82116449134E+01 -0.11506615947E+03  0.27857334996E+02  0.11867469519E+03  0.00000000000E+00 0.  1.
        -13    1    4    4    0    0 -0.59591184845E+02  0.26366625399E+02 -0.54890882851E+02  0.85201627134E+02  0.00000000000E+00 0.  1.
         13    1    4    4    0    0  0.26491698238E+02  0.40800215877E+02 -0.10280705700E+02  0.49720826631E+02  0.00000000000E+00 0. -1.
         21    1    1    2  503  501  0.43451717129E+02 -0.61453931459E+02  0.37831857236E+02  0.84237087053E+02  0.00000000000E+00 0. -1.
         -2    1    1    2    0  502 -0.22879683976E+02  0.96679004690E+02 -0.16400205975E+03  0.19174719161E+03  0.00000000000E+00 0.  1.
<scales pt_clust_5="13000.00000" pt_clust_6="13000.00000" pt_clust_7="13000.00000" pt_clust_8="13000.00000" pt_clust_9="75.26379" pt_clust_10="92.81524"></scales>
<clustering>
<clus scale="   75.264">  1  9  2 -1</clus>
<clus scale="   91.377">  7  8 -1 -1</clus>
<clus scale="   92.815">  2 10  1 -1</clus>
<clus scale="   97.818">  5  6 -1 -1</clus>
<clus scale="  137.757">  2  7  1 -1</clus>
<clus scale="   92.815">  2  5  1 -1</clus>
</clustering>
</event>
<event>
10    2  0.3544405E-006  0.9187244E+02  0.7546771E-02  0.1314659E+00
         -3   -1    0    0    0  501 -0.00000000000E+00  0.00000000000E+00  0.37446546833E+03  0.37446546833E+03  0.00000000000E+00 0.  1.
         21   -1    0    0  503  502  0.00000000000E+00 -0.00000000000E+00 -0.39208310081E+03  0.39208310081E+03  0.00000000000E+00 0.  1.
         23    2    1    2    0    0 -0.51755444757E+02  0.18043192646E+02  0.11648183336E+03  0.15807901978E+03  0.91742989529E+02 0.  0.
         23    2    1    2    0    0 -0.11173806415E+02  0.23653848198E+02 -0.20608991946E+03  0.21861634749E+03  0.68085931024E+02 0.  0.
        -11    1    3    3    0    0  0.10325289277E+02  0.39295845584E+02  0.52977271917E+02  0.66763511131E+02  0.00000000000E+00 0.  1.
         11    1    3    3    0    0 -0.62080734034E+02 -0.21252652937E+02  0.63504561448E+02  0.91315508649E+02  0.00000000000E+00 0. -1.
        -11    1    4    4    0    0 -0.38258101985E+02  0.34147619794E+01 -0.94214249489E+02  0.10174314608E+03  0.00000000000E+00 0.  1.
         11    1    4    4    0    0  0.27084295571E+02  0.20239086219E+02 -0.11187566997E+03  0.11687320142E+03  0.00000000000E+00 0. -1.
         21    1    1    2  503  501  0.48791493939E+02 -0.13588641738E+02  0.22654033622E+03  0.23213311914E+03  0.00000000000E+00 0. -1.
         -3    1    1    2    0  502  0.14137757233E+02 -0.28108399107E+02 -0.15454988261E+03  0.15772008273E+03  0.00000000000E+00 0.  1.
<scales pt_clust_5="13000.00000" pt_clust_6="13000.00000" pt_clust_7="13000.00000" pt_clust_8="13000.00000" pt_clust_9="50.89995" pt_clust_10="31.46360"></scales>
<clustering>
<clus scale="   31.464">  2 10  1 -1</clus>
<clus scale="   50.900">  1  9  2 -1</clus>
<clus scale="   68.086">  7  8 -1 -1</clus>
<clus scale="   68.260">  2  7  1 -1</clus>
<clus scale="   91.743">  5  6 -1 -1</clus>
<clus scale="   31.464">  2  5  1 -1</clus>
</clustering>
</event>
<event>
10    2  0.3544405E-006  0.1159156E+03  0.7546771E-02  0.1250138E+00
          4   -1    0    0  503    0 -0.00000000000E+00  0.00000000000E+00  0.54471831149E+03  0.54471831149E+03  0.00000000000E+00 0. -1.
         21   -1    0    0  501  502  0.00000000000E+00 -0.00000000000E+00 -0.17402383588E+03  0.17402383588E+03  0.00000000000E+00 0.  1.
         23    2    1    2    0    0  0.57691018854E+02  0.18064141505E+02  0.17265236439E+03  0.20664641554E+03  0.96121460972E+02 0.  0.
         23    2    1    2    0    0 -0.25342531844E+02  0.95790987347E+02  0.72074694626E+02  0.15547943469E+03  0.95712777775E+02 0.  0.
        -13    1    4    4    0    0  0.10159338856E+02  0.86333496616E+02  0.15921865139E+02  0.88375282707E+02  0.00000000000E+00 0.  1.
         13    1    4    4    0    0 -0.35501870700E+02  0.94574907306E+01  0.56152829487E+02  0.67104151985E+02  0.00000000000E+00 0. -1.
        -13    1    3    3    0    0  0.63770496319E+02 -0.22018569104E+02  0.13677999200E+03  0.15251314631E+03  0.00000000000E+00 0. -1.
         13    1    3    3    0    0 -0.60794774647E+01  0.40082710609E+02  0.35872372391E+02  0.54133269225E+02  0.00000000000E+00 0.  1.
         21    1    1    2  503  502 -0.13131765202E+02 -0.98266770563E+02  0.22958977361E+03  0.25008051824E+03  0.00000000000E+00 0. -1.
          4    1    1    2  501    0 -0.19216721808E+02 -0.15588358289E+02 -0.10362235702E+03  0.10653577890E+03  0.00000000000E+00 0. -1.
<scales pt_clust_5="13000.00000" pt_clust_6="13000.00000" pt_clust_7="13000.00000" pt_clust_8="13000.00000" pt_clust_9="101.84589" pt_clust_10="24.74428"></scales>
<clustering>
<clus scale="   24.744">  2 10  1 -1</clus>
<clus scale="   95.713">  5  6 -1 -1</clus>
<clus scale="   96.121">  7  8 -1 -1</clus>
<clus scale="  101.846">  1  9  2 -1</clus>
<clus scale="  115.577">  2  5  1 -1</clus>
<clus scale="   24.744">  2  5  1 -1</clus>
</clustering>
</event>
<event>
10    2  0.3544405E-006  0.4422735E+03  0.7546771E-02  0.1048435E+00
         21   -1    0    0  501  502  0.00000000000E+00  0.00000000000E+00  0.14696215284E+03  0.14696215284E+03  0.00000000000E+00 0. -1.
          1   -1    0    0  503    0 -0.00000000000E+00 -0.00000000000E+00 -0.44081666210E+04  0.44081666210E+04  0.00000000000E+00 0. -1.
         23    2    1    2    0    0  0.27525728309E+03  0.56734046672E+02 -0.12944452783E+04  0.13276909202E+04  0.90494624363E+02 0.  0.
         23    2    1    2    0    0 -0.31480686813E+03 -0.10039063030E+03 -0.26780690186E+03  0.43413699340E+03  0.87021546045E+02 0.  0.
        -11    1    4    4    0    0 -0.12587753291E+03 -0.56622048988E+02 -0.16336915488E+03  0.21387073313E+03  0.00000000000E+00 0.  1.
         11    1    4    4    0    0 -0.18892933522E+03 -0.43768581311E+02 -0.10443774698E+03  0.22026626027E+03  0.00000000000E+00 0. -1.
        -13    1    3    3    0    0  0.91242115286E+02  0.59371710305E+02 -0.40272340052E+03  0.41717653447E+03  0.00000000000E+00 0.  1.
         13    1    3    3    0    0  0.18401516780E+03 -0.26376636324E+01 -0.89172187780E+03  0.91051438572E+03  0.00000000000E+00 0. -1.
         21    1    1    2  503  502  0.29499900541E+03  0.65152805751E+02 -0.22954974877E+04  0.23152922099E+04  0.00000000000E+00 0. -1.
          1    1    1    2  501    0 -0.25544942037E+03 -0.21496222124E+02 -0.40345480031E+03  0.47800865037E+03  0.00000000000E+00 0. -1.
<scales pt_clust_5="13000.00000" pt_clust_6="13000.00000" pt_clust_7="13000.00000" pt_clust_8="13000.00000" pt_clust_9="433.62781" pt_clust_10="256.35228"></scales>
<clustering>
<clus scale="   87.022">  5  6 -1 -1</clus>
<clus scale="   90.495">  7  8 -1 -1</clus>
<clus scale="  256.352">  1 10  2 -1</clus>
<clus scale="  258.847">  2  7  1 -1</clus>
<clus scale="  433.628">  2  9  1 -1</clus>
<clus scale="  256.352">  1  5  2 -1</clus>
</clustering>
</event>
<event>
10    2  0.3544405E-006  0.9974743E+02  0.7546771E-02  0.1280908E+00
          2   -1    0    0  503    0 -0.00000000000E+00  0.00000000000E+00  0.49869213633E+03  0.49869213633E+03  0.00000000000E+00 0. -1.
         21   -1    0    0  501  502  0.00000000000E+00 -0.00000000000E+00 -0.15811568879E+03  0.15811568879E+03  0.00000000000E+00 0. -1.
         23    2    1    2    0    0  0.39220351357E+02  0.51803316892E+02  0.29704963208E+03  0.31735402912E+03  0.90847544151E+02 0.  0.
         23    2    1    2    0    0 -0.26549833427E+02  0.22860085735E+02  0.14279747561E+03  0.17274695123E+03  0.90680278692E+02 0.  0.
        -13    1    3    3    0    0  0.64641753148E+02  0.55156577530E+02  0.20805829697E+03  0.22474220617E+03  0.00000000000E+00 0.  1.
         13    1    3    3    0    0 -0.25421401791E+02 -0.33532606378E+01  0.88991335107E+02  0.92611822950E+02  0.00000000000E+00 0. -1.
        -13    1    4    4    0    0 -0.52064680930E+02  0.59943588480E+01  0.12891045190E+03  0.13915663099E+03  0.00000000000E+00 0. -1.
         13    1    4    4    0    0  0.25514847503E+02  0.16865726887E+02  0.13887023710E+02  0.33590320243E+02  0.00000000000E+00 0.  1.
         21    1    1    2  503  502  0.20354807068E+02 -0.45984611202E+01  0.17055901541E+02  0.26951211343E+02  0.00000000000E+00 0. -1.
          2    1    1    2  501    0 -0.33025324998E+02 -0.70064941507E+02 -0.11632656169E+03  0.13975563343E+03  0.00000000000E+00 0. -1.
<scales pt_clust_5="13000.00000" pt_clust_6="13000.00000" pt_clust_7="13000.00000" pt_clust_8="13000.00000" pt_clust_9="20.86777" pt_clust_10="77.34874"></scales>
<clustering>
<clus scale="   20.868">  1  9  2 -1</clus>
<clus scale="   77.349">  2 10  1 -1</clus>
<clus scale="   90.680">  7  8 -1 -1</clus>
<clus scale="   90.848">  5  6 -1 -1</clus>
<clus scale="   99.595">  2  7  1 -1</clus>
<clus scale="   77.349">  2  5  1 -1</clus>
</clustering>
</event>
<event>
10    2  0.3544405E-006  0.2798567E+03  0.7546771E-02  0.1099985E+00
          1   -1    0    0  503    0 -0.00000000000E+00  0.00000000000E+00  0.13029599521E+04  0.13029599521E+04  0.00000000000E+00 0. -1.
         21   -1    0    0  501  502  0.00000000000E+00 -0.00000000000E+00 -0.66330339831E+03  0.66330339831E+03  0.00000000000E+00 0. -1.
         23    2    1    2    0    0  0.16888417281E+03  0.16387840059E+03 -0.95996953307E+02  0.26906021235E+03  0.88317545363E+02 0.  0.
         23    2    1    2    0    0  0.12724464357E+03 -0.29108730643E+03  0.10487425643E+04  0.10997525441E+04  0.93121816388E+02 0.  0.
        -11    1    4    4    0    0 -0.10812575292E+02 -0.24730924113E+02  0.48713727610E+02  0.55691629977E+02  0.00000000000E+00 0.  1.
         11    1    4    4    0    0  0.13805721886E+03 -0.26635638232E+03  0.10000288367E+04  0.10440609141E+04  0.00000000000E+00 0. -1.
        -13    1    3    3    0    0  0.28676842461E+02  0.80846061083E+01 -0.43955076967E+02  0.53101515427E+02  0.00000000000E+00 0.  1.
         13    1    3    3    0    0  0.14020733035E+03  0.15579379449E+03 -0.52041876339E+02  0.21595869692E+03  0.00000000000E+00 0. -1.
         21    1    1    2  503  502 -0.47329895554E+02  0.34900654603E+02  0.94371157774E+02  0.11119393025E+03  0.00000000000E+00 0.  1.
          1    1    1    2  501    0 -0.24879892082E+03  0.92308251237E+02 -0.40746021498E+03  0.48625666375E+03  0.00000000000E+00 0. -1.
<scales pt_clust_5="13000.00000" pt_clust_6="13000.00000" pt_clust_7="13000.00000" pt_clust_8="13000.00000" pt_clust_9="58.80625" pt_clust_10="263.90931"></scales>
<clustering>
<clus scale="   58.806">  1  9  2 -1</clus>
<clus scale="   88.318">  7  8 -1 -1</clus>
<clus scale="   93.122">  5  6 -1 -1</clus>
<clus scale="  250.735">  1  7  2 -1</clus>
<clus scale="  263.909">  2 10  1 -1</clus>
<clus scale="  263.909">  2  5  1 -1</clus>
</clustering>
</event>
<event>
10    2  0.3544405E-006  0.9854258E+02  0.7546771E-02  0.1285052E+00
         21   -1    0    0  501  502  0.00000000000E+00  0.00000000000E+00  0.11152022032E+03  0.11152022032E+03  0.00000000000E+00 0.  1.
          1   -1    0    0  503    0 -0.00000000000E+00 -0.00000000000E+00 -0.21616844477E+03  0.21616844477E+03  0.00000000000E+00 0. -1.
         23    2    1    2    0    0 -0.43638008952E+02  0.87454836339E+01 -0.70040507815E+02  0.12593374623E+03  0.94725267988E+02 0.  0.
         23    2    1    2    0    0  0.25524393624E+02 -0.13784628733E+02  0.10800044158E+02  0.96642938714E+02  0.91551657497E+02 0.  0.
        -13    1    3    3    0    0 -0.32782530071E+01 -0.38825836283E+02 -0.12118518335E+02  0.40805036362E+02  0.00000000000E+00 0. -1.
         13    1    3    3    0    0 -0.40359755945E+02  0.47571319917E+02 -0.57921989480E+02  0.85128709869E+02  0.00000000000E+00 0.  1.
        -13    1    4    4    0    0  0.23072863570E+02  0.19169910304E+02  0.41721780571E+02  0.51386277044E+02  0.00000000000E+00 0.  1.
         13    1    4    4    0    0  0.24515300543E+01 -0.32954539037E+02 -0.30921736413E+02  0.45256661671E+02  0.00000000000E+00 0. -1.
         21    1    1    2  503  502  0.46737280761E+02  0.15417776338E+02 -0.54406225367E+02  0.73362923870E+02  0.00000000000E+00 0. -1.
          1    1    1    2  501    0 -0.28623665434E+02 -0.10378631239E+02  0.89984645739E+01  0.31749056268E+02  0.00000000000E+00 0. -1.
<scales pt_clust_5="13000.00000" pt_clust_6="13000.00000" pt_clust_7="13000.00000" pt_clust_8="13000.00000" pt_clust_9="46.04988" pt_clust_10="30.44717"></scales>
<clustering>
<clus scale="   30.447">  1 10  2 -1</clus>
<clus scale="   46.050">  2  9  1 -1</clus>
<clus scale="   91.552">  7  8 -1 -1</clus>
<clus scale="   94.725">  5  6 -1 -1</clus>
<clus scale="   95.496">  1  7  2 -1</clus>
<clus scale="   30.447">  1  5  2 -1</clus>
</clustering>
</event>
<event>
10    2  0.3544405E-006  0.9155177E+02  0.7546771E-02  0.1299728E+00
          3   -1    0    0  503    0 -0.00000000000E+00  0.00000000000E+00  0.23315070886E+03  0.23315070886E+03  0.00000000000E+00 0. -1.
         21   -1    0    0  501  502  0.00000000000E+00 -0.00000000000E+00 -0.93293060537E+02  0.93293060537E+02  0.00000000000E+00 0. -1.
         23    2    1    2    0    0 -0.20998666096E+02 -0.46724685433E+01  0.85287857659E+02  0.12622164217E+03  0.90526837729E+02 0.  0.
         23    2    1    2    0    0 -0.17590855173E+02  0.15066315870E+02  0.58734121438E+01  0.94588481112E+02  0.91520772119E+02 0.  0.
        -13    1    3    3    0    0 -0.26571030004E+02  0.39311255130E+02  0.33691831068E+02  0.58193933499E+02  0.00000000000E+00 0. -1.
         13    1    3    3    0    0  0.55723639085E+01 -0.43983723673E+02  0.51596026591E+02  0.68027708676E+02  0.00000000000E+00 0.  1.
        -13    1    4    4    0    0  0.36284646855E+02  0.17841832174E+02  0.35941610639E+01  0.40593405456E+02  0.00000000000E+00 0.  1.
         13    1    4    4    0    0 -0.53875502029E+02 -0.27755163046E+01  0.22792510798E+01  0.53995075656E+02  0.00000000000E+00 0. -1.
         21    1    1    2  503  502  0.19301390083E+02  0.32471153706E+02  0.44605273679E+02  0.58451261083E+02  0.00000000000E+00 0. -1.
          3    1    1    2  501    0  0.19288131186E+02 -0.42865001033E+02  0.40911048431E+01  0.47182385029E+02  0.00000000000E+00 0. -1.
<scales pt_clust_5="13000.00000" pt_clust_6="13000.00000" pt_clust_7="13000.00000" pt_clust_8="13000.00000" pt_clust_9="37.77459" pt_clust_10="44.15918"></scales>
<clustering>
<clus scale="   37.775">  1  9  2 -1</clus>
<clus scale="   44.159">  2 10  1 -1</clus>
<clus scale="   90.527">  5  6 -1 -1</clus>
<clus scale="   90.558">  1  5  2 -1</clus>
<clus scale="   91.521">  7  8 -1 -1</clus>
<clus scale="   44.159">  2  5  1 -1</clus>
</clustering>
</event>
<event>
10    2  0.3544405E-006  0.2885263E+03  0.7546771E-02  0.1091348E+00
         21   -1    0    0  503  502  0.00000000000E+00  0.00000000000E+00  0.14887380514E+03  0.14887380514E+03  0.00000000000E+00 0.  1.
         -3   -1    0    0    0  501 -0.00000000000E+00 -0.00000000000E+00 -0.11383185216E+04  0.11383185216E+04  0.00000000000E+00 0.  1.
         23    2    1    2    0    0 -0.22400732480E+03  0.90984368169E+02 -0.66334539365E+03  0.71188481696E+03  0.91079330986E+02 0.  0.
         23    2    1    2    0    0  0.26661895674E+03 -0.11916833002E+03 -0.12913064397E+03  0.33353832759E+03  0.96365625538E+02 0.  0.
        -11    1    4    4    0    0  0.17446421421E+03 -0.91188322448E+02 -0.37091179544E+02  0.20032181057E+03  0.00000000000E+00 0.  1.
         11    1    4    4    0    0  0.92154742533E+02 -0.27980007573E+02 -0.92039464423E+02  0.13321651702E+03  0.00000000000E+00 0. -1.
        -13    1    3    3    0    0 -0.15043095056E+02 -0.16194885039E+02 -0.38955829733E+02  0.44789794378E+02  0.00000000000E+00 0. -1.
         13    1    3    3    0    0 -0.20896422974E+03  0.10717925321E+03 -0.62438956392E+03  0.66709502258E+03  0.00000000000E+00 0.  1.
         21    1    1    2  503  501 -0.39237693032E+02 -0.98514469723E+00 -0.20703910040E+03  0.21072673338E+03  0.00000000000E+00 0.  1.
         -3    1    1    2    0  502 -0.33739389163E+01  0.29169106549E+02  0.10070421521E+02  0.31042448845E+02  0.00000000000E+00 0.  1.
<scales pt_clust_5="13000.00000" pt_clust_6="13000.00000" pt_clust_7="13000.00000" pt_clust_8="13000.00000" pt_clust_9="39.29025" pt_clust_10="29.36359"></scales>
<clustering>
<clus scale="   29.364">  1 10  2 -1</clus>
<clus scale="   39.290">  2  9  1 -1</clus>
<clus scale="   91.079">  7  8 -1 -1</clus>
<clus scale="   96.366">  5  6 -1 -1</clus>
<clus scale="  286.804">  2  7  1 -1</clus>
<clus scale="   29.364">  1  5  2 -1</clus>
</clustering>
</event>
<event>
10    2  0.3544405E-006  0.9615159E+02  0.7546771E-02  0.1289634E+00
         21   -1    0    0  501  502  0.00000000000E+00  0.00000000000E+00  0.30673048695E+03  0.30673048695E+03  0.00000000000E+00 0. -1.
          1   -1    0    0  503    0 -0.00000000000E+00 -0.00000000000E+00 -0.80520709145E+02  0.80520709145E+02  0.00000000000E+00 0. -1.
         23    2    1    2    0    0  0.43755597329E+02  0.29175569807E+02  0.24719757171E+02  0.10879900044E+03  0.91980377973E+02 0.  0.
         23    2    1    2    0    0 -0.43151170786E+00 -0.17837590431E+02  0.10571591861E+03  0.14001438077E+03  0.90054458746E+02 0.  0.
        -11    1    3    3    0    0 -0.15592809064E+02  0.21410987533E+02  0.39113886567E+02  0.47238355222E+02  0.00000000000E+00 0.  1.
         11    1    3    3    0    0  0.59348406393E+02  0.77645822735E+01 -0.14394129397E+02  0.61560645223E+02  0.00000000000E+00 0. -1.
        -13    1    4    4    0    0 -0.59329213699E+01 -0.40822876564E+02  0.11422315480E+02  0.42803926197E+02  0.00000000000E+00 0. -1.
         13    1    4    4    0    0  0.55014096620E+01  0.22985286133E+02  0.94293603129E+02  0.97210454571E+02  0.00000000000E+00 0.  1.
         21    1    1    2  503  502 -0.20028842019E+02 -0.21586121685E+02 -0.88618219591E+01  0.30751374773E+02  0.00000000000E+00 0. -1.
          1    1    1    2  501    0 -0.23295243602E+02  0.10248142309E+02  0.10463592398E+03  0.10768644011E+03  0.00000000000E+00 0. -1.
<scales pt_clust_5="13000.00000" pt_clust_6="13000.00000" pt_clust_7="13000.00000" pt_clust_8="13000.00000" pt_clust_9="29.93028" pt_clust_10="25.44981"></scales>
<clustering>
<clus scale="   25.450">  1 10  2 -1</clus>
<clus scale="   29.930">  2  9  1 -1</clus>
<clus scale="   90.054">  7  8 -1 -1</clus>
<clus scale="   91.980">  5  6 -1 -1</clus>
<clus scale="   94.311">  1  7  2 -1</clus>
<clus scale="   25.450">  1  5  2 -1</clus>
</clustering>
</event>
<event>
10    2  0.3544405E-006  0.9148787E+02  0.7546771E-02  0.1299435E+00
         21   -1    0    0  501  502  0.00000000000E+00  0.00000000000E+00  0.10976718828E+03  0.10976718828E+03  0.00000000000E+00 0. -1.
          2   -1    0    0  503    0 -0.00000000000E+00 -0.00000000000E+00 -0.46006099020E+03  0.46006099020E+03  0.00000000000E+00 0. -1.
         23    2    1    2    0    0 -0.44468785324E+01  0.42379342925E+02 -0.30641345189E+03  0.32232786854E+03  0.90500098936E+02 0.  0.
         23    2    1    2    0    0  0.20473521535E+02  0.26000197034E+02 -0.22857171475E+02  0.98805303160E+02  0.90248890934E+02 0.  0.
        -11    1    4    4    0    0  0.54575403083E+02  0.19095820164E+02 -0.26912008143E+02  0.63776023329E+02  0.00000000000E+00 0.  1.
         11    1    4    4    0    0 -0.34101881548E+02  0.69043768694E+01  0.40548366681E+01  0.35029279831E+02  0.00000000000E+00 0. -1.
        -13    1    3    3    0    0 -0.16094432038E+02 -0.26047147887E+02 -0.94503892843E+02  0.99340175247E+02  0.00000000000E+00 0.  1.
         13    1    3    3    0    0  0.11647553506E+02  0.68426490813E+02 -0.21190955904E+03  0.22298769330E+03  0.00000000000E+00 0. -1.
         21    1    1    2  503  502 -0.80063019815E+01 -0.46406857929E+02 -0.75740942624E+02  0.89187374240E+02  0.00000000000E+00 0.  1.
          2    1    1    2  501    0 -0.80203410210E+01 -0.21972682030E+02  0.54717764068E+02  0.59507632539E+02  0.00000000000E+00 0. -1.
<scales pt_clust_5="13000.00000" pt_clust_6="13000.00000" pt_clust_7="13000.00000" pt_clust_8="13000.00000" pt_clust_9="50.03412" pt_clust_10="23.39070"></scales>
<clustering>
<clus scale="   23.391">  1 10  2 -1</clus>
<clus scale="   50.034">  2  9  1 -1</clus>
<clus scale="   90.249">  5  6 -1 -1</clus>
<clus scale="   90.500">  7  8 -1 -1</clus>
<clus scale="   91.239">  1  5  2 -1</clus>
<clus scale="   23.391">  1  5  2 -1</clus>
</clustering>
</event>
<event>
10    2  0.3544405E-006  0.1531699E+03  0.7546771E-02  0.1197156E+00
         -1   -1    0    0    0  501 -0.00000000000E+00  0.00000000000E+00  0.32397919438E+03  0.32397919438E+03  0.00000000000E+00 0.  1.
         21   -1    0    0  503  502  0.00000000000E+00 -0.00000000000E+00 -0.15377120619E+03  0.15377120619E+03  0.00000000000E+00 0. -1.
         23    2    1    2    0    0  0.10932998195E+03  0.12000718185E+02  0.75150364751E+02  0.15994602848E+03  0.88533002399E+02 0.  0.
         23    2    1    2    0    0 -0.14092644183E+03  0.24019102095E+02  0.10639640898E+03  0.20031846910E+03  0.91488326821E+02 0.  0.
        -11    1    3    3    0    0  0.94051527393E+01  0.36443003301E+02  0.27271944866E+02  0.46479117508E+02  0.00000000000E+00 0.  1.
         11    1    3    3    0    0  0.99924829210E+02 -0.24442285116E+02  0.47878419886E+02  0.11346691097E+03  0.00000000000E+00 0. -1.
        -11    1    4    4    0    0 -0.11741294526E+03  0.64407135624E+00  0.36500141427E+02  0.12295720747E+03  0.00000000000E+00 0.  1.
         11    1    4    4    0    0 -0.23513496565E+02  0.23375030739E+02  0.69896267557E+02  0.77361261631E+02  0.00000000000E+00 0. -1.
         21    1    1    2  503  501 -0.23118395980E+02  0.15165210962E+02  0.22141483039E+02  0.35421591260E+02  0.00000000000E+00 0. -1.
         -1    1    1    2    0  502  0.54714855859E+02 -0.51185031242E+02 -0.33480268587E+02  0.82064311729E+02  0.00000000000E+00 0.  1.
<scales pt_clust_5="13000.00000" pt_clust_6="13000.00000" pt_clust_7="13000.00000" pt_clust_8="13000.00000" pt_clust_9="27.64858" pt_clust_10="72.68331"></scales>
<clustering>
<clus scale="   27.649">  1  9  2 -1</clus>
<clus scale="   72.683">  2 10  1 -1</clus>
<clus scale="   88.533">  5  6 -1 -1</clus>
<clus scale="   91.488">  7  8 -1 -1</clus>
<clus scale="  151.423">  1  5  2 -1</clus>
<clus scale="   72.683">  2  5  1 -1</clus>
</clustering>
</event>
<event>
10    2  0.3544405E-006  0.1058301E+03  0.7546771E-02  0.1274841E+00
         21   -1    0    0  503  502  0.00000000000E+00  0.00000000000E+00  0.68407155515E+03  0.68407155515E+03  0.00000000000E+00 0. -1.
         -4   -1    0    0    0  501 -0.00000000000E+00 -0.00000000000E+00 -0.29495558165E+02  0.29495558165E+02  0.00000000000E+00 0.  1.
         23    2    1    2    0    0  0.23768062397E+01 -0.30594826588E+02  0.14140903511E+03  0.17043544608E+03  0.90055724132E+02 0.  0.
         23    2    1    2    0    0 -0.44609321880E+00  0.34259819103E+02  0.35975246982E+03  0.37568402288E+03  0.10267770594E+03 0.  0.
        -11    1    3    3    0    0  0.25622321821E+02  0.11237187621E+02  0.86046621232E+01  0.29271453182E+02  0.00000000000E+00 0.  1.
         11    1    3    3    0    0 -0.23245515582E+02 -0.41832014208E+02  0.13280437299E+03  0.14116399290E+03  0.00000000000E+00 0. -1.
        -11    1    4    4    0    0 -0.45325547212E+02  0.16498694056E+02  0.94740854962E+02  0.10631294246E+03  0.00000000000E+00 0. -1.
         11    1    4    4    0    0  0.44879453993E+02  0.17761125047E+02  0.26501161486E+03  0.26937108042E+03  0.00000000000E+00 0.  1.
         21    1    1    2  503  501 -0.13211440918E+02  0.18474284364E+02  0.15944492593E+02  0.27750102665E+02  0.00000000000E+00 0. -1.
         -4    1    1    2    0  502  0.11280727897E+02 -0.22139276880E+02  0.13746999945E+03  0.13969754168E+03  0.00000000000E+00 0.  1.
<scales pt_clust_5="13000.00000" pt_clust_6="13000.00000" pt_clust_7="13000.00000" pt_clust_8="13000.00000" pt_clust_9="22.71214" pt_clust_10="23.78789"></scales>
<clustering>
<clus scale="   22.712">  2  9  1 -1</clus>
<clus scale="   23.788">  1 10  2 -1</clus>
<clus scale="   90.056">  5  6 -1 -1</clus>
<clus scale="   93.634">  2  5  1 -1</clus>
<clus scale="  102.678">  7  8 -1 -1</clus>
<clus scale="   23.788">  1  5  2 -1</clus>
</clustering>
</event>
<event>
10    2  0.3544405E-006  0.1319720E+03  0.7546771E-02  0.1225124E+00
         21   -1    0    0  501  502  0.00000000000E+00  0.00000000000E+00  0.19758591147E+03  0.19758591147E+03  0.00000000000E+00 0.  1.
          3   -1    0    0  503    0 -0.00000000000E+00 -0.00000000000E+00 -0.17136235682E+03  0.17136235682E+03  0.00000000000E+00 0. -1.
         23    2    1    2    0    0 -0.10263277397E+03  0.55748003276E+02 -0.20046700090E+01  0.14972493865E+03  0.93660089635E+02 0.  0.
         23    2    1    2    0    0  0.77451198622E+02  0.72991002265E+01  0.23938556192E+02  0.12244107432E+03  0.91470198294E+02 0.  0.
        -11    1    4    4    0    0  0.38821570338E+02 -0.12240885916E+02 -0.31950284247E+02  0.51747215142E+02  0.00000000000E+00 0. -1.
         11    1    4    4    0    0  0.38629628284E+02  0.19539986142E+02  0.55888840439E+02  0.70693859178E+02  0.00000000000E+00 0.  1.
        -13    1    3    3    0    0 -0.72993733202E+02  0.60524072928E+02  0.35883261076E+02  0.10138469764E+03  0.00000000000E+00 0.  1.
         13    1    3    3    0    0 -0.29639040771E+02 -0.47760696519E+01 -0.37887931085E+02  0.48340241012E+02  0.00000000000E+00 0. -1.
         21    1    1    2  503  502  0.28793103178E+00 -0.28179585388E+02 -0.30549586668E+02  0.41562593549E+02  0.00000000000E+00 0.  1.
          3    1    1    2  501    0  0.24893644319E+02 -0.34867518114E+02  0.34839255134E+02  0.55219661763E+02  0.00000000000E+00 0. -1.
<scales pt_clust_5="13000.00000" pt_clust_6="13000.00000" pt_clust_7="13000.00000" pt_clust_8="13000.00000" pt_clust_9="28.18106" pt_clust_10="44.59840"></scales>
<clustering>
<clus scale="   28.181">  2  9  1 -1</clus>
<clus scale="   44.598">  1 10  2 -1</clus>
<clus scale="   91.470">  5  6 -1 -1</clus>
<clus scale="   93.660">  7  8 -1 -1</clus>
<clus scale="  130.427">  1  5  2 -1</clus>
<clus scale="   44.598">  1  5  2 -1</clus>
</clustering>
</event>
<event>
10    2  0.3544405E-006  0.1036026E+03  0.7546771E-02  0.1278549E+00
         21   -1    0    0  501  502  0.00000000000E+00  0.00000000000E+00  0.11602474574E+03  0.11602474574E+03  0.00000000000E+00 0. -1.
          1   -1    0    0  503    0 -0.00000000000E+00 -0.00000000000E+00 -0.36009060688E+03  0.36009060688E+03  0.00000000000E+00 0. -1.
         23    2    1    2    0    0  0.38579794766E+02 -0.93359909521E+01 -0.15476500358E+03  0.18715684118E+03  0.97467510356E+02 0.  0.
         23    2    1    2    0    0 -0.19563263277E+02 -0.44968703813E+02 -0.95615342466E+02  0.13768375121E+03  0.86079126619E+02 0.  0.
        -13    1    3    3    0    0  0.27042838552E+02  0.42255188730E+02 -0.94497450085E+02  0.10698871045E+03  0.00000000000E+00 0.  1.
         13    1    3    3    0    0  0.11536956214E+02 -0.51591179682E+02 -0.60267553494E+02  0.80168130724E+02  0.00000000000E+00 0. -1.
        -13    1    4    4    0    0 -0.28844218608E+02 -0.24746130635E+02  0.15174603341E+01  0.38035018264E+02  0.00000000000E+00 0.  1.
         13    1    4    4    0    0  0.92809553307E+01 -0.20222573178E+02 -0.97132802800E+02  0.99648732945E+02  0.00000000000E+00 0. -1.
         21    1    1    2  503  502  0.58942564182E+00  0.20942063440E+02 -0.66006584517E+02  0.69251618344E+02  0.00000000000E+00 0. -1.
          1    1    1    2  501    0 -0.19605957131E+02  0.33362631325E+02  0.72321069421E+02  0.82023141894E+02  0.00000000000E+00 0. -1.
<scales pt_clust_5="13000.00000" pt_clust_6="13000.00000" pt_clust_7="13000.00000" pt_clust_8="13000.00000" pt_clust_9="20.95036" pt_clust_10="38.99197"></scales>
<clustering>
<clus scale="   20.950">  2  9  1 -1</clus>
<clus scale="   38.992">  1 10  2 -1</clus>
<clus scale="   86.079">  7  8 -1 -1</clus>
<clus scale="   92.969">  1  7  2 -1</clus>
<clus scale="   97.468">  5  6 -1 -1</clus>
<clus scale="   38.992">  1  5  2 -1</clus>
</clustering>
</event>
<event>
10    2  0.3544405E-006  0.1049110E+03  0.7546771E-02  0.1276366E+00
          2   -1    0    0  503    0 -0.00000000000E+00  0.00000000000E+00  0.76107523774E+03  0.76107523774E+03  0.00000000000E+00 0. -1.
         21   -1    0    0  501  502  0.00000000000E+00 -0.00000000000E+00 -0.57341180239E+02  0.57341180239E+02  0.00000000000E+00 0. -1.
         23    2    1    2    0    0  0.34543865675E+02  0.66925837791E+02  0.85328520848E+02  0.13897050432E+03  0.79746461865E+02 0.  0.
         23    2    1    2    0    0 -0.10171526290E+01 -0.17786905643E+02  0.11814451849E+03  0.15141824971E+03  0.93015861461E+02 0.  0.
        -11    1    3    3    0    0 -0.18254245552E+02  0.51224776240E+02  0.37929125117E+02  0.66300932977E+02  0.00000000000E+00 0.  1.
         11    1    3    3    0    0  0.52798111227E+02  0.15701061552E+02  0.47399395731E+02  0.72669571339E+02  0.00000000000E+00 0. -1.
        -13    1    4    4    0    0 -0.36032184064E+02 -0.26163735757E+02  0.23914919539E+02  0.50544858629E+02  0.00000000000E+00 0.  1.
         13    1    4    4    0    0  0.35015031436E+02  0.83768301147E+01  0.94229598953E+02  0.10087339108E+03  0.00000000000E+00 0. -1.
         21    1    1    2  503  502 -0.26860824033E+02 -0.91894594399E+02  0.45669894697E+03  0.46662624070E+03  0.00000000000E+00 0. -1.
          2    1    1    2  501    0 -0.66658890127E+01  0.42755662250E+02  0.43562071185E+02  0.61401423247E+02  0.00000000000E+00 0. -1.
<scales pt_clust_5="13000.00000" pt_clust_6="13000.00000" pt_clust_7="13000.00000" pt_clust_8="13000.00000" pt_clust_9="91.74413" pt_clust_10="43.27217"></scales>
<clustering>
<clus scale="   43.272">  2 10  1 -1</clus>
<clus scale="   79.746">  5  6 -1 -1</clus>
<clus scale="   91.744">  1  9  2 -1</clus>
<clus scale="   93.016">  7  8 -1 -1</clus>
<clus scale="   93.348">  1  5  2 -1</clus>
<clus scale="   43.272">  2  5  1 -1</clus>
</clustering>
</event>
<event>
10    2  0.3544405E-006  0.9227717E+02  0.7546771E-02  0.1298502E+00
         21   -1    0    0  501  502  0.00000000000E+00  0.00000000000E+00  0.39126845811E+02  0.39126845811E+02  0.00000000000E+00 0.  1.
          1   -1    0    0  503    0 -0.00000000000E+00 -0.00000000000E+00 -0.56524984225E+03  0.56524984225E+03  0.00000000000E+00 0. -1.
         23    2    1    2    0    0 -0.35702946157E+02 -0.28332242543E+01 -0.26737250398E+03  0.28471767343E+03  0.91067942544E+02 0.  0.
         23    2    1    2    0    0 -0.15700835878E+02  0.10398918709E+02 -0.13153430115E+03  0.16005644396E+03  0.89230819319E+02 0.  0.
        -11    1    4    4    0    0 -0.49656506582E+02  0.19859077186E+02 -0.96675097415E+02  0.11048179059E+03  0.00000000000E+00 0.  1.
         11    1    4    4    0    0  0.33955670703E+02 -0.94601584774E+01 -0.34859203735E+02  0.49574653366E+02  0.00000000000E+00 0. -1.
        -13    1    3    3    0    0 -0.56256592186E+02 -0.28535565458E+02 -0.20044761599E+03  0.21013883367E+03  0.00000000000E+00 0.  1.
         13    1    3    3    0    0  0.20553646029E+02  0.25702341204E+02 -0.66924887987E+02  0.74578839764E+02  0.00000000000E+00 0. -1.
         21    1    1    2  503  502  0.20287655920E+02 -0.19308238049E+02 -0.12291743840E+03  0.12606781390E+03  0.00000000000E+00 0. -1.
          1    1    1    2  501    0  0.31116126115E+02  0.11742543594E+02 -0.42987529094E+01  0.33534756761E+02  0.00000000000E+00 0. -1.
<scales pt_clust_5="13000.00000" pt_clust_6="13000.00000" pt_clust_7="13000.00000" pt_clust_8="13000.00000" pt_clust_9="28.00709" pt_clust_10="33.79750"></scales>
<clustering>
<clus scale="   28.007">  2  9  1 -1</clus>
<clus scale="   33.797">  1 10  2 -1</clus>
<clus scale="   89.231">  5  6 -1 -1</clus>
<clus scale="   90.465">  1  5  2 -1</clus>
<clus scale="   91.068">  7  8 -1 -1</clus>
<clus scale="   33.797">  1  5  2 -1</clus>
</clustering>
</event>
<event>
10    2  0.3544405E-006  0.1345990E+03  0.7546771E-02  0.1238799E+00
         21   -1    0    0  501  502  0.00000000000E+00  0.00000000000E+00  0.44674642010E+03  0.44674642010E+03  0.00000000000E+00 0. -1.
          2   -1    0    0  503    0 -0.00000000000E+00 -0.00000000000E+00 -0.56517558725E+03  0.56517558725E+03  0.00000000000E+00 0. -1.
         23    2    1    2    0    0 -0.17433266195E+02 -0.11477123346E+02 -0.10987147791E+03  0.14393916916E+03  0.90615118110E+02 0.  0.
         23    2    1    2    0    0 -0.54991759592E+02  0.57893421109E+02  0.25670620043E+03  0.28372158716E+03  0.90686955234E+02 0.  0.
        -11    1    4    4    0    0 -0.44594899768E+01  0.63184667155E+02  0.94668466153E+02  0.11390481859E+03  0.00000000000E+00 0.  1.
         11    1    4    4    0    0 -0.50532269615E+02 -0.52912460456E+01  0.16203773428E+03  0.16981676857E+03  0.00000000000E+00 0. -1.
        -11    1    3    3    0    0  0.35109814884E+02  0.54152835811E+01 -0.28149339604E+02  0.45325596716E+02  0.00000000000E+00 0. -1.
         11    1    3    3    0    0 -0.52543081080E+02 -0.16892406927E+02 -0.81722138307E+02  0.98613572446E+02  0.00000000000E+00 0.  1.
         21    1    1    2  503  502  0.70488191654E+02 -0.74749987483E+02 -0.41721469869E+03  0.42967924153E+03  0.00000000000E+00 0. -1.
          2    1    1    2  501    0  0.19368341334E+01  0.28333689720E+02  0.15195080902E+03  0.15458200950E+03  0.00000000000E+00 0. -1.
<scales pt_clust_5="13000.00000" pt_clust_6="13000.00000" pt_clust_7="13000.00000" pt_clust_8="13000.00000" pt_clust_9="99.46243" pt_clust_10="28.39981"></scales>
<clustering>
<clus scale="   28.400">  1 10  2 -1</clus>
<clus scale="   90.615">  7  8 -1 -1</clus>
<clus scale="   90.687">  5  6 -1 -1</clus>
<clus scale="   92.778">  2  7  1 -1</clus>
<clus scale="   99.462">  2  9  1 -1</clus>
<clus scale="   28.400">  1  5  2 -1</clus>
</clustering>
</event>
<event>
10    2  0.3544405E-006  0.1025358E+03  0.7546771E-02  0.1276195E+00
         -1   -1    0    0    0  501 -0.00000000000E+00  0.00000000000E+00  0.24932508242E+03  0.24932508242E+03  0.00000000000E+00 0.  1.
         21   -1    0    0  503  502  0.00000000000E+00 -0.00000000000E+00 -0.20167775429E+03  0.20167775429E+03  0.00000000000E+00 0. -1.
         23    2    1    2    0    0 -0.48695795976E+02 -0.11473957641E+02  0.84407028196E+02  0.13499314051E+03  0.92712832580E+02 0.  0.
         23    2    1    2    0    0  0.20705407162E+02  0.85975729607E+01 -0.29100271071E+01  0.93038292288E+02  0.90249783532E+02 0.  0.
        -11    1    4    4    0    0  0.24431952332E+02  0.42385065740E+02  0.19125925494E+02  0.52528231633E+02  0.00000000000E+00 0.  1.
         11    1    4    4    0    0 -0.37265451702E+01 -0.33787492779E+02 -0.22035952601E+02  0.40510060655E+02  0.00000000000E+00 0. -1.
        -11    1    3    3    0    0  0.62475145293E+01 -0.36735951410E+02  0.90031549871E+01  0.38335601776E+02  0.00000000000E+00 0. -1.
         11    1    3    3    0    0 -0.54943310505E+02  0.25261993769E+02  0.75403873208E+02  0.96657538730E+02  0.00000000000E+00 0.  1.
         21    1    1    2  503  501 -0.27787889063E+02  0.63076168051E+02  0.64830406527E+02  0.94624264145E+02  0.00000000000E+00 0. -1.
         -1    1    1    2    0  502  0.55778277877E+02 -0.60199783370E+02 -0.98680079486E+02  0.12834713977E+03  0.00000000000E+00 0.  1.
<scales pt_clust_5="13000.00000" pt_clust_6="13000.00000" pt_clust_7="13000.00000" pt_clust_8="13000.00000" pt_clust_9="68.92583" pt_clust_10="76.39516"></scales>
<clustering>
<clus scale="   68.926">  1  9  2 -1</clus>
<clus scale="   76.395">  2 10  1 -1</clus>
<clus scale="   90.250">  5  6 -1 -1</clus>
<clus scale="   92.713">  7  8 -1 -1</clus>
<clus scale="  100.314">  2  5  1 -1</clus>
<clus scale="   76.395">  2  5  1 -1</clus>
</clustering>
</event>
<event>
10    2  0.3544405E-006  0.9607928E+02  0.7546771E-02  0.1290557E+00
         21   -1    0    0  503  502  0.00000000000E+00  0.00000000000E+00  0.17597058110E+03  0.17597058110E+03  0.00000000000E+00 0. -1.
         -1   -1    0    0    0  501 -0.00000000000E+00 -0.00000000000E+00 -0.15182680154E+03  0.15182680154E+03  0.00000000000E+00 0.  1.
         23    2    1    2    0    0  0.43369182464E+02 -0.98333705336E+00 -0.19263589165E+02  0.10211345733E+03  0.90411389554E+02 0.  0.
         23    2    1    2    0    0  0.24587994606E+01  0.78882342893E+01  0.18960016105E+02  0.95926957478E+02  0.93670854727E+02 0.  0.
        -13    1    3    3    0    0  0.49511794591E+02  0.24120041460E+02 -0.40744552692E+02  0.68507757062E+02  0.00000000000E+00 0. -1.
         13    1    3    3    0    0 -0.61426121266E+01 -0.25103378513E+02  0.21480963526E+02  0.33605700269E+02  0.00000000000E+00 0.  1.
        -13    1    4    4    0    0  0.36073833377E+02 -0.57622872347E+01 -0.20851825499E+02  0.42063333621E+02  0.00000000000E+00 0.  1.
         13    1    4    4    0    0 -0.33615033916E+02  0.13650521524E+02  0.39811841604E+02  0.53863623857E+02  0.00000000000E+00 0. -1.
         21    1    1    2  503  501 -0.25190427569E+02 -0.25546046826E+02 -0.43471975254E+02  0.56364623498E+02  0.00000000000E+00 0.  1.
         -1    1    1    2    0  502 -0.20637554356E+02  0.18641149590E+02  0.67919327871E+02  0.73392344330E+02  0.00000000000E+00 0.  1.
<scales pt_clust_5="13000.00000" pt_clust_6="13000.00000" pt_clust_7="13000.00000" pt_clust_8="13000.00000" pt_clust_9="35.99168" pt_clust_10="27.81009"></scales>
<clustering>
<clus scale="   27.810">  1 10  2 -1</clus>
<clus scale="   35.992">  2  9  1 -1</clus>
<clus scale="   90.411">  5  6 -1 -1</clus>
<clus scale="   92.904">  2  5  1 -1</clus>
<clus scale="   93.671">  7  8 -1 -1</clus>
<clus scale="   27.810">  1  5  2 -1</clus>
</clustering>
</event>
<event>
10    2  0.3544405E-006  0.1319802E+03  0.7546771E-02  0.1224632E+00
         21   -1    0    0  501  502  0.00000000000E+00  0.00000000000E+00  0.89707009402E+03  0.89707009402E+03  0.00000000000E+00 0. -1.
          2   -1    0    0  503    0 -0.00000000000E+00 -0.00000000000E+00 -0.65180418180E+02  0.65180418180E+02  0.00000000000E+00 0. -1.
         23    2    1    2    0    0 -0.13096346113E+03 -0.75658542752E+02  0.34130979606E+03  0.38401888941E+03  0.90013817212E+02 0.  0.
         23    2    1    2    0    0  0.26928358998E+02  0.46684563827E+02  0.13668504396E+03  0.17248702088E+03  0.90356992603E+02 0.  0.
        -11    1    4    4    0    0  0.29746217312E+02  0.72009538704E+02  0.87978776035E+02  0.11751798220E+03  0.00000000000E+00 0. -1.
         11    1    4    4    0    0 -0.28178583140E+01 -0.25324974877E+02  0.48706267923E+02  0.54969038676E+02  0.00000000000E+00 0.  1.
        -11    1    3    3    0    0 -0.76278161943E+02  0.73196223861E+01  0.14834867728E+03  0.16697085048E+03  0.00000000000E+00 0.  1.
         11    1    3    3    0    0 -0.54685299189E+02 -0.82978165138E+02  0.19296111879E+03  0.21704803892E+03  0.00000000000E+00 0. -1.
         21    1    1    2  503  502  0.57916817733E+02  0.68412344941E+02  0.65455140034E+02  0.11099090987E+03  0.00000000000E+00 0. -1.
          2    1    1    2  501    0  0.46118284401E+02 -0.39438366015E+02  0.28843969579E+03  0.29475369205E+03  0.00000000000E+00 0. -1.
<scales pt_clust_5="13000.00000" pt_clust_6="13000.00000" pt_clust_7="13000.00000" pt_clust_8="13000.00000" pt_clust_9="90.02724" pt_clust_10="60.68180"></scales>
<clustering>
<clus scale="   60.682">  1 10  2 -1</clus>
<clus scale="   90.014">  7  8 -1 -1</clus>
<clus scale="   90.027">  2  9  1 -1</clus>
<clus scale="   90.357">  5  6 -1 -1</clus>
<clus scale="  131.745">  2  7  1 -1</clus>
<clus scale="   60.682">  1  5  2 -1</clus>
</clustering>
</event>
<event>
10    2  0.3544405E-006  0.1271955E+03  0.7546771E-02  0.1232040E+00
         21   -1    0    0  501  502  0.00000000000E+00  0.00000000000E+00  0.22166724943E+03  0.22166724943E+03  0.00000000000E+00 0.  1.
          1   -1    0    0  503    0 -0.00000000000E+00 -0.00000000000E+00 -0.18217137880E+03  0.18217137880E+03  0.00000000000E+00 0. -1.
         23    2    1    2    0    0 -0.96750249336E+01  0.98445923362E+02 -0.17512650745E+02  0.13699820448E+03  0.93148318073E+02 0.  0.
         23    2    1    2    0    0  0.26660621894E+01 -0.90497554131E+02  0.99444911536E+02  0.16285879899E+03  0.91851961261E+02 0.  0.
        -11    1    4    4    0    0  0.34409730164E+02 -0.13761024098E+02  0.60938481616E+02  0.71322463894E+02  0.00000000000E+00 0.  1.
         11    1    4    4    0    0 -0.31743667975E+02 -0.76736530033E+02  0.38506429920E+02  0.91536335098E+02  0.00000000000E+00 0. -1.
        -13    1    3    3    0    0 -0.26958948108E+02  0.86145432621E+02  0.21319877705E+02  0.92748895572E+02  0.00000000000E+00 0. -1.
         13    1    3    3    0    0  0.17283923174E+02  0.12300490741E+02 -0.38832528450E+02  0.44249308905E+02  0.00000000000E+00 0.  1.
         21    1    1    2  503  502 -0.50756618463E+01 -0.24169462195E+02 -0.67440386021E+02  0.71820128882E+02  0.00000000000E+00 0. -1.
          1    1    1    2  501    0  0.12084624591E+02  0.16221092964E+02  0.25003995858E+02  0.32161495881E+02  0.00000000000E+00 0. -1.
<scales pt_clust_5="13000.00000" pt_clust_6="13000.00000" pt_clust_7="13000.00000" pt_clust_8="13000.00000" pt_clust_9="24.48864" pt_clust_10="20.22775"></scales>
<clustering>
<clus scale="   20.228">  1 10  2 -1</clus>
<clus scale="   24.489">  2  9  1 -1</clus>
<clus scale="   91.852">  5  6 -1 -1</clus>
<clus scale="   93.148">  7  8 -1 -1</clus>
<clus scale="  126.249">  1  5  2 -1</clus>
<clus scale="   20.228">  1  5  2 -1</clus>
</clustering>
</event>
<event>
10    2  0.3544405E-006  0.1067388E+03  0.7546771E-02  0.1266973E+00
         -2   -1    0    0    0  501 -0.00000000000E+00  0.00000000000E+00  0.20052079068E+03  0.20052079068E+03  0.00000000000E+00 0.  1.
         21   -1    0    0  503  502  0.00000000000E+00 -0.00000000000E+00 -0.37245319113E+03  0.37245319113E+03  0.00000000000E+00 0. -1.
         23    2    1    2    0    0 -0.10927284261E+02 -0.68137722238E+02  0.74835743301E+02  0.13627168834E+03  0.90594866486E+02 0.  0.
         23    2    1    2    0    0  0.95176935072E+02  0.95821427361E+02 -0.21026692858E+03  0.26561872382E+03  0.90004057007E+02 0.  0.
        -13    1    3    3    0    0 -0.23327747223E+02 -0.19471561819E+02  0.80201354691E+02  0.85764694394E+02  0.00000000000E+00 0.  1.
         13    1    3    3    0    0  0.12400462962E+02 -0.48666160419E+02 -0.53656113901E+01  0.50506993943E+02  0.00000000000E+00 0. -1.
        -13    1    4    4    0    0  0.59186630849E+02  0.43895734679E+02 -0.39645885853E+02  0.83676096105E+02  0.00000000000E+00 0.  1.
         13    1    4    4    0    0  0.35990304223E+02  0.51925692682E+02 -0.17062104272E+03  0.18194262771E+03  0.00000000000E+00 0. -1.
         21    1    1    2  503  501 -0.16189978520E+02  0.43877976778E+02  0.26679892838E+02  0.53844302693E+02  0.00000000000E+00 0.  1.
         -2    1    1    2    0  502 -0.68059672291E+02 -0.71561681901E+02 -0.63181108008E+02  0.11723926696E+03  0.00000000000E+00 0.  1.
<scales pt_clust_5="13000.00000" pt_clust_6="13000.00000" pt_clust_7="13000.00000" pt_clust_8="13000.00000" pt_clust_9="46.76957" pt_clust_10="95.54019"></scales>
<clustering>
<clus scale="   46.770">  1  9  2 -1</clus>
<clus scale="   90.004">  7  8 -1 -1</clus>
<clus scale="   90.595">  5  6 -1 -1</clus>
<clus scale="   95.540">  2 10  1 -1</clus>
<clus scale="  106.238">  2  7  1 -1</clus>
<clus scale="   95.540">  2  5  1 -1</clus>
</clustering>
</event>
<event>
10    2  0.3544405E-006  0.3688408E+03  0.7546771E-02  0.1055213E+00
          1   -1    0    0  503    0 -0.00000000000E+00  0.00000000000E+00  0.17315085591E+03  0.17315085591E+03  0.00000000000E+00 0. -1.
         21   -1    0    0  501  502  0.00000000000E+00 -0.00000000000E+00 -0.24164518140E+04  0.24164518140E+04  0.00000000000E+00 0.  1.
         23    2    1    2    0    0 -0.24628995656E+03  0.24836359386E+03 -0.21032882894E+03  0.41755603807E+03  0.88156742147E+02 0.  0.
         23    2    1    2    0    0  0.13235341129E+03 -0.24714647507E+03 -0.13066133967E+04  0.13394739988E+04  0.91395949236E+02 0.  0.
        -11    1    3    3    0    0 -0.77626262394E+02  0.47858017606E+02 -0.93726514070E+02  0.13077035559E+03  0.00000000000E+00 0.  1.
         11    1    3    3    0    0 -0.16866369417E+03  0.20050557625E+03 -0.11660231487E+03  0.28678568247E+03  0.00000000000E+00 0. -1.
        -13    1    4    4    0    0  0.63421672382E+02 -0.10270724011E+03 -0.36739359544E+03  0.38671583840E+03  0.00000000000E+00 0. -1.
         13    1    4    4    0    0  0.68931738910E+02 -0.14443923496E+03 -0.93921980123E+03  0.95275816042E+03  0.00000000000E+00 0.  1.
         21    1    1    2  503  502 -0.83999593008E+02 -0.14654333701E+02 -0.60953395959E+01  0.85485871854E+02  0.00000000000E+00 0.  1.
          1    1    1    2  501    0  0.19793613828E+03  0.13437214913E+02 -0.72026339286E+03  0.74708676115E+03  0.00000000000E+00 0. -1.
<scales pt_clust_5="13000.00000" pt_clust_6="13000.00000" pt_clust_7="13000.00000" pt_clust_8="13000.00000" pt_clust_9="85.26829" pt_clust_10="189.87190"></scales>
<clustering>
<clus scale="   85.268">  1  9  2 -1</clus>
<clus scale="   88.157">  5  6 -1 -1</clus>
<clus scale="   91.396">  7  8 -1 -1</clus>
<clus scale="  189.872">  2 10  1 -1</clus>
<clus scale="  368.052">  1  5  2 -1</clus>
<clus scale="  189.872">  2  5  1 -1</clus>
</clustering>
</event>
<event>
10    2  0.3544405E-006  0.1388640E+03  0.7546771E-02  0.1228449E+00
          1   -1    0    0  503    0 -0.00000000000E+00  0.00000000000E+00  0.12026734102E+03  0.12026734102E+03  0.00000000000E+00 0. -1.
         21   -1    0    0  501  502  0.00000000000E+00 -0.00000000000E+00 -0.45852629431E+03  0.45852629431E+03  0.00000000000E+00 0.  1.
         23    2    1    2    0    0  0.45533290740E+02 -0.81057072539E+02 -0.60674107717E+02  0.14355037754E+03  0.91004582147E+02 0.  0.
         23    2    1    2    0    0  0.18595598931E+02 -0.70937479625E+02 -0.10302713679E+03  0.15588184914E+03  0.91140757412E+02 0.  0.
        -11    1    4    4    0    0 -0.56402617273E+01 -0.84704030509E+02 -0.93824436623E+02  0.12652908853E+03  0.00000000000E+00 0.  1.
         11    1    4    4    0    0  0.24235860658E+02  0.13766550884E+02 -0.92027001648E+01  0.29352760610E+02  0.00000000000E+00 0. -1.
        -11    1    3    3    0    0 -0.27574096241E+02 -0.18677547245E+02 -0.93072684605E+01  0.34580439569E+02  0.00000000000E+00 0. -1.
         11    1    3    3    0    0  0.73107386981E+02 -0.62379525295E+02 -0.51366839257E+02  0.10896993798E+03  0.00000000000E+00 0.  1.
         21    1    1    2  503  502 -0.43060559397E+02  0.10435354914E+03 -0.17936756114E+02  0.11430486522E+03  0.00000000000E+00 0. -1.
          1    1    1    2  501    0 -0.21068330274E+02  0.47641003027E+02 -0.15662095267E+03  0.16505654342E+03  0.00000000000E+00 0. -1.
<scales pt_clust_5="13000.00000" pt_clust_6="13000.00000" pt_clust_7="13000.00000" pt_clust_8="13000.00000" pt_clust_9="104.88747" pt_clust_10="52.09165"></scales>
<clustering>
<clus scale="   52.092">  2 10  1 -1</clus>
<clus scale="   91.005">  7  8 -1 -1</clus>
<clus scale="   91.141">  5  6 -1 -1</clus>
<clus scale="  104.488">  2  5  1 -1</clus>
<clus scale="  104.887">  1  9  2 -1</clus>
<clus scale="   52.092">  2  5  1 -1</clus>
</clustering>
</event>
<event>
10    2  0.3544405E-006  0.2806555E+03  0.7546771E-02  0.1095435E+00
         21   -1    0    0  501  502  0.00000000000E+00  0.00000000000E+00  0.68776235080E+03  0.68776235080E+03  0.00000000000E+00 0. -1.
          1   -1    0    0  503    0 -0.00000000000E+00 -0.00000000000E+00 -0.98720112890E+03  0.98720112890E+03  0.00000000000E+00 0. -1.
         23    2    1    2    0    0  0.82743268666E+01  0.34662034886E+03 -0.39676088932E+03  0.53521668907E+03  0.93933860976E+02 0.  0.
         23    2    1    2    0    0 -0.79687104699E+01 -0.15020557660E+03  0.36573165418E+03  0.40593433486E+03  0.91639651658E+02 0.  0.
        -11    1    4    4    0    0 -0.44140213705E+02 -0.11508104852E+03  0.28819888473E+03  0.31344952281E+03  0.00000000000E+00 0. -1.
         11    1    4    4    0    0  0.36171503235E+02 -0.35124528084E+02  0.77532769455E+02  0.92484812043E+02  0.00000000000E+00 0.  1.
        -11    1    3    3    0    0  0.32232592375E+02  0.22603298432E+03 -0.30882586866E+03  0.38406154085E+03  0.00000000000E+00 0. -1.
         11    1    3    3    0    0 -0.23958265508E+02  0.12058736454E+03 -0.87935020656E+02  0.15115514821E+03  0.00000000000E+00 0.  1.
         21    1    1    2  503  502  0.48567197393E+02 -0.77861962749E+02 -0.47875032029E+03  0.48746602659E+03  0.00000000000E+00 0. -1.
          1    1    1    2  501    0 -0.48872813790E+02 -0.11855280951E+03  0.21034077732E+03  0.24634642919E+03  0.00000000000E+00 0. -1.
<scales pt_clust_5="13000.00000" pt_clust_6="13000.00000" pt_clust_7="13000.00000" pt_clust_8="13000.00000" pt_clust_9="91.76741" pt_clust_10="130.16852"></scales>
<clustering>
<clus scale="   91.640">  5  6 -1 -1</clus>
<clus scale="   91.767">  2  9  1 -1</clus>
<clus scale="   93.934">  7  8 -1 -1</clus>
<clus scale="  130.169">  1 10  2 -1</clus>
<clus scale="  279.896">  1  5  2 -1</clus>
<clus scale="  130.169">  1  5  2 -1</clus>
</clustering>
</event>
<event>
10    2  0.3544405E-006  0.1348359E+03  0.7546771E-02  0.1220961E+00
         21   -1    0    0  501  502  0.00000000000E+00  0.00000000000E+00  0.63135210878E+02  0.63135210878E+02  0.00000000000E+00 0.  1.
          2   -1    0    0  503    0 -0.00000000000E+00 -0.00000000000E+00 -0.73154912598E+03  0.73154912598E+03  0.00000000000E+00 0. -1.
         23    2    1    2    0    0 -0.77886836285E+02 -0.63612537797E+02 -0.29064742529E+03  0.32095483740E+03  0.91777816447E+02 0.  0.
         23    2    1    2    0    0  0.11433593151E+03  0.13368267755E+02 -0.10525285637E+03  0.17991326858E+03  0.89661611741E+02 0.  0.
        -11    1    3    3    0    0 -0.46956337413E+02 -0.83789702901E+02 -0.17596056598E+03  0.20046878240E+03  0.00000000000E+00 0.  1.
         11    1    3    3    0    0 -0.30930498872E+02  0.20177165104E+02 -0.11468685931E+03  0.12048605500E+03  0.00000000000E+00 0. -1.
        -13    1    4    4    0    0  0.84550089953E+02  0.35206604471E+02 -0.10948051742E+03  0.14273824436E+03  0.00000000000E+00 0. -1.
         13    1    4    4    0    0  0.29785841553E+02 -0.21838336717E+02  0.42276610457E+01  0.37175024217E+02  0.00000000000E+00 0.  1.
         21    1    1    2  503  502 -0.15586360488E+02  0.56981348108E+02 -0.26361915603E+03  0.27015711742E+03  0.00000000000E+00 0. -1.
          2    1    1    2  501    0 -0.20862734733E+02 -0.67370780653E+01 -0.88944774113E+01  0.23659113462E+02  0.00000000000E+00 0. -1.
<scales pt_clust_5="13000.00000" pt_clust_6="13000.00000" pt_clust_7="13000.00000" pt_clust_8="13000.00000" pt_clust_9="59.03030" pt_clust_10="21.92355"></scales>
<clustering>
<clus scale="   21.924">  1 10  2 -1</clus>
<clus scale="   59.030">  2  9  1 -1</clus>
<clus scale="   89.662">  7  8 -1 -1</clus>
<clus scale="   91.778">  5  6 -1 -1</clus>
<clus scale="  133.404">  1  7  2 -1</clus>
<clus scale="   21.924">  1  5  2 -1</clus>
</clustering>
</event>
<event>
10    2  0.3544405E-006  0.1866164E+03  0.7546771E-02  0.1162066E+00
         21   -1    0    0  503  502  0.00000000000E+00  0.00000000000E+00  0.21720786022E+03  0.21720786022E+03  0.00000000000E+00 0.  1.
         -1   -1    0    0    0  501 -0.00000000000E+00 -0.00000000000E+00 -0.31169153798E+03  0.31169153798E+03  0.00000000000E+00 0.  1.
         23    2    1    2    0    0 -0.64930375409E+02  0.15398825836E+03 -0.97505214767E+02  0.21350322851E+03  0.90266407457E+02 0.  0.
         23    2    1    2    0    0  0.99397029093E+02 -0.12728748359E+03 -0.28461654441E+02  0.18497218661E+03  0.85573191912E+02 0.  0.
        -11    1    3    3    0    0  0.56734858177E+01  0.78756253491E+02 -0.72831434687E+02  0.10742045328E+03  0.00000000000E+00 0.  1.
         11    1    3    3    0    0 -0.70603861227E+02  0.75232004866E+02 -0.24673780079E+02  0.10608277523E+03  0.00000000000E+00 0. -1.
        -11    1    4    4    0    0  0.95044791990E+02 -0.86045087875E+02 -0.50754603171E+02  0.13788872098E+03  0.00000000000E+00 0.  1.
         11    1    4    4    0    0  0.43522371037E+01 -0.41242395713E+02  0.22292948730E+02  0.47083465623E+02  0.00000000000E+00 0. -1.
         21    1    1    2  503  501 -0.31206479970E+01 -0.58932102612E+02 -0.19776796560E+02  0.62240283133E+02  0.00000000000E+00 0. -1.
         -1    1    1    2    0  502 -0.31346005687E+02  0.32231327844E+02  0.51259988016E+02  0.68183699947E+02  0.00000000000E+00 0.  1.
<scales pt_clust_5="13000.00000" pt_clust_6="13000.00000" pt_clust_7="13000.00000" pt_clust_8="13000.00000" pt_clust_9="55.07894" pt_clust_10="44.96032"></scales>
<clustering>
<clus scale="   44.960">  1 10  2 -1</clus>
<clus scale="   55.079">  1  9  2 -1</clus>
<clus scale="   85.573">  7  8 -1 -1</clus>
<clus scale="   90.266">  5  6 -1 -1</clus>
<clus scale="  184.392">  1  7  2 -1</clus>
<clus scale="   44.960">  1  5  2 -1</clus>
</clustering>
</event>
<event>
10    2  0.3544405E-006  0.1282109E+03  0.7546771E-02  0.1230752E+00
         -1   -1    0    0    0  501 -0.00000000000E+00  0.00000000000E+00  0.98857111245E+02  0.98857111245E+02  0.00000000000E+00 0.  1.
         21   -1    0    0  503  502  0.00000000000E+00 -0.00000000000E+00 -0.44972753858E+03  0.44972753858E+03  0.00000000000E+00 0.  1.
         23    2    1    2    0    0 -0.18630965426E+02  0.68103938881E+02 -0.51277503613E+02  0.12693218430E+03  0.92179920100E+02 0.  0.
         23    2    1    2    0    0  0.49406946871E+02 -0.10734394620E+03 -0.29229909656E+03  0.32785113233E+03  0.89910143688E+02 0.  0.
        -11    1    3    3    0    0 -0.18611641726E+02  0.30463543183E+02  0.23829141129E+02  0.42921423997E+02  0.00000000000E+00 0.  1.
         11    1    3    3    0    0 -0.19323699637E-01  0.37640395699E+02 -0.75106644742E+02  0.84010760300E+02  0.00000000000E+00 0. -1.
        -11    1    4    4    0    0 -0.15007050439E+02 -0.50889772361E+02 -0.59108512040E+02  0.79427933937E+02  0.00000000000E+00 0. -1.
         11    1    4    4    0    0  0.64413997310E+02 -0.56454173837E+02 -0.23319058452E+03  0.24842319839E+03  0.00000000000E+00 0.  1.
         21    1    1    2  503  501  0.94373866437E+01  0.21822467537E+02  0.28573334432E+02  0.37171491720E+02  0.00000000000E+00 0.  1.
         -1    1    1    2    0  502 -0.40213368089E+02  0.17417539779E+02 -0.35867161603E+02  0.56629841484E+02  0.00000000000E+00 0.  1.
<scales pt_clust_5="13000.00000" pt_clust_6="13000.00000" pt_clust_7="13000.00000" pt_clust_8="13000.00000" pt_clust_9="23.77571" pt_clust_10="43.98481"></scales>
<clustering>
<clus scale="   23.776">  1  9  2 -1</clus>
<clus scale="   43.985">  2 10  1 -1</clus>
<clus scale="   89.910">  7  8 -1 -1</clus>
<clus scale="   92.180">  5  6 -1 -1</clus>
<clus scale="  126.589">  2  7  1 -1</clus>
<clus scale="   43.985">  2  5  1 -1</clus>
</clustering>
</event>
<event>
10    2  0.3544405E-006  0.2294636E+03  0.7546771E-02  0.1127356E+00
          1   -1    0    0  503    0 -0.00000000000E+00  0.00000000000E+00  0.11055035824E+04  0.11055035824E+04  0.00000000000E+00 0. -1.
         21   -1    0    0  501  502  0.00000000000E+00 -0.00000000000E+00 -0.84445192643E+02  0.84445192643E+02  0.00000000000E+00 0.  1.
         23    2    1    2    0    0  0.14793518669E+03  0.11358750809E+03  0.58048534193E+03  0.61695338443E+03  0.94240675446E+02 0.  0.
         23    2    1    2    0    0 -0.20861245846E+03 -0.94451833360E+02  0.19040452785E+03  0.31097327213E+03  0.89499637449E+02 0.  0.
        -11    1    3    3    0    0  0.53281496127E+02  0.48054285488E+01  0.81015319399E+02  0.97084972835E+02  0.00000000000E+00 0.  1.
         11    1    3    3    0    0  0.94653690560E+02  0.10878207954E+03  0.49947002253E+03  0.51986841159E+03  0.00000000000E+00 0. -1.
        -13    1    4    4    0    0 -0.95082282197E+02  0.32922740784E+01  0.87197298172E+02  0.12905366428E+03  0.00000000000E+00 0.  1.
         13    1    4    4    0    0 -0.11353017627E+03 -0.97744107438E+02  0.10320722968E+03  0.18191960785E+03  0.00000000000E+00 0. -1.
         21    1    1    2  503  502  0.38406441033E+02 -0.65483032507E+01  0.21518162176E+03  0.21868028107E+03  0.00000000000E+00 0. -1.
          1    1    1    2  501    0  0.22270830742E+02 -0.12587371482E+02  0.34986898215E+02  0.43341837403E+02  0.00000000000E+00 0. -1.
<scales pt_clust_5="13000.00000" pt_clust_6="13000.00000" pt_clust_7="13000.00000" pt_clust_8="13000.00000" pt_clust_9="39.48570" pt_clust_10="25.58187"></scales>
<clustering>
<clus scale="   25.582">  2 10  1 -1</clus>
<clus scale="   39.486">  1  9  2 -1</clus>
<clus scale="   89.500">  7  8 -1 -1</clus>
<clus scale="   94.241">  5  6 -1 -1</clus>
<clus scale="  227.558">  2  7  1 -1</clus>
<clus scale="   25.582">  2  5  1 -1</clus>
</clustering>
</event>
<event>
10    2  0.3544405E-006  0.3602502E+03  0.7546771E-02  0.1059194E+00
         -1   -1    0    0    0  501 -0.00000000000E+00  0.00000000000E+00  0.22458543955E+03  0.22458543955E+03  0.00000000000E+00 0.  1.
         21   -1    0    0  503  502  0.00000000000E+00 -0.00000000000E+00 -0.12468965881E+04  0.12468965881E+04  0.00000000000E+00 0.  1.
         23    2    1    2    0    0 -0.27437838356E+03  0.25735759746E+03 -0.14184687152E+03  0.41839283768E+03  0.11582573691E+03 0.  0.
         23    2    1    2    0    0  0.21439851180E+03 -0.20245925481E+03 -0.30489377567E+03  0.43390438419E+03  0.91412955641E+02 0.  0.
        -11    1    3    3    0    0 -0.27032710054E+03  0.23192434240E+03 -0.10121020003E+03  0.37028252251E+03  0.00000000000E+00 0.  1.
         11    1    3    3    0    0 -0.40512830207E+01  0.25433255056E+02 -0.40636671482E+02  0.48110315173E+02  0.00000000000E+00 0. -1.
        -11    1    4    4    0    0  0.14171474830E+03 -0.71772530227E+02 -0.14693710133E+03  0.21639056756E+03  0.00000000000E+00 0. -1.
         11    1    4    4    0    0  0.72683763503E+02 -0.13068672458E+03 -0.15795667434E+03  0.21751381663E+03  0.00000000000E+00 0.  1.
         21    1    1    2  503  501  0.78643482017E+02  0.64458059751E+02 -0.19529287069E+03  0.22017934525E+03  0.00000000000E+00 0. -1.
         -1    1    1    2    0  502 -0.18663610255E+02 -0.11935640240E+03 -0.38027763065E+03  0.39900546050E+03  0.00000000000E+00 0.  1.
<scales pt_clust_5="13000.00000" pt_clust_6="13000.00000" pt_clust_7="13000.00000" pt_clust_8="13000.00000" pt_clust_9="101.68401" pt_clust_10="95.80082"></scales>
<clustering>
<clus scale="   91.413">  7  8 -1 -1</clus>
<clus scale="  101.684">  2  9  1 -1</clus>
<clus scale="   95.801">  2 10  1 -1</clus>
<clus scale="  115.826">  5  6 -1 -1</clus>
<clus scale="  353.158">  2  7  1 -1</clus>
<clus scale="  101.684">  2  5  1 -1</clus>
</clustering>
</event>
<event>
10    2  0.3544405E-006  0.2629162E+03  0.7546771E-02  0.1105411E+00
         21   -1    0    0  501  502  0.00000000000E+00  0.00000000000E+00  0.21971659213E+03  0.21971659213E+03  0.00000000000E+00 0.  1.
          1   -1    0    0  503    0 -0.00000000000E+00 -0.00000000000E+00 -0.98740073535E+03  0.98740073535E+03  0.00000000000E+00 0. -1.
         23    2    1    2    0    0 -0.25024350590E+03  0.12587975784E+03 -0.50097748112E+03  0.58131107790E+03  0.92068490923E+02 0.  0.
         23    2    1    2    0    0  0.20174797201E+03 -0.86188640645E+02 -0.81495659643E+02  0.25143809557E+03  0.91917611880E+02 0.  0.
        -13    1    3    3    0    0 -0.35388876450E+02 -0.51314116111E+01 -0.11596732407E+03  0.12135536335E+03  0.00000000000E+00 0. -1.
         13    1    3    3    0    0 -0.21485462945E+03  0.13101116945E+03 -0.38501015706E+03  0.45995571456E+03  0.00000000000E+00 0.  1.
        -13    1    4    4    0    0  0.18288049375E+03 -0.63979222215E+02 -0.35479735981E+02  0.19697062607E+03  0.00000000000E+00 0. -1.
         13    1    4    4    0    0  0.18867478267E+02 -0.22209418431E+02 -0.46015923662E+02  0.54467469499E+02  0.00000000000E+00 0.  1.
         21    1    1    2  503  502  0.43923428465E+02  0.90140626195E+01 -0.27149960584E+03  0.27517731895E+03  0.00000000000E+00 0. -1.
          1    1    1    2  501    0  0.45721054183E+01 -0.48705179817E+02  0.86288603380E+02  0.99190835071E+02  0.00000000000E+00 0. -1.
<scales pt_clust_5="13000.00000" pt_clust_6="13000.00000" pt_clust_7="13000.00000" pt_clust_8="13000.00000" pt_clust_9="44.83883" pt_clust_10="48.87697"></scales>
<clustering>
<clus scale="   44.839">  2  9  1 -1</clus>
<clus scale="   48.877">  1 10  2 -1</clus>
<clus scale="   91.918">  7  8 -1 -1</clus>
<clus scale="   92.068">  5  6 -1 -1</clus>
<clus scale="  262.863">  1  7  2 -1</clus>
<clus scale="   48.877">  1  5  2 -1</clus>
</clustering>
</event>
<event>
10    2  0.3544405E-006  0.1364648E+03  0.7546771E-02  0.1219104E+00
         21   -1    0    0  501  502  0.00000000000E+00  0.00000000000E+00  0.27935500420E+03  0.27935500420E+03  0.00000000000E+00 0.  1.
          1   -1    0    0  503    0 -0.00000000000E+00 -0.00000000000E+00 -0.42372372740E+03  0.42372372740E+03  0.00000000000E+00 0. -1.
         23    2    1    2    0    0 -0.24599260099E+02 -0.92542118657E+02 -0.47581272320E+02  0.14413836577E+03  0.96657765802E+02 0.  0.
         23    2    1    2    0    0  0.12914880908E+03  0.16120161727E+02  0.16757655245E+03  0.23161107558E+03  0.92857497826E+02 0.  0.
        -11    1    4    4    0    0  0.14857034542E+02 -0.26546287364E+02  0.93720284248E+01  0.31831929961E+02  0.00000000000E+00 0. -1.
         11    1    4    4    0    0  0.11429177454E+03  0.42666449091E+02  0.15820452402E+03  0.19977914562E+03  0.00000000000E+00 0.  1.
        -13    1    3    3    0    0 -0.33129135241E+02  0.79264087711E+01 -0.40187483914E+01  0.34300406651E+02  0.00000000000E+00 0. -1.
         13    1    3    3    0    0  0.85298751415E+01 -0.10046852743E+03 -0.43562523928E+02  0.10983795912E+03  0.00000000000E+00 0.  1.
         21    1    1    2  503  502 -0.78809131202E+02  0.76048997845E+02 -0.27757125066E+03  0.29839592562E+03  0.00000000000E+00 0. -1.
          1    1    1    2  501    0 -0.25740417778E+02  0.37295908504E+00  0.13207247333E+02  0.28933364615E+02  0.00000000000E+00 0. -1.
<scales pt_clust_5="13000.00000" pt_clust_6="13000.00000" pt_clust_7="13000.00000" pt_clust_8="13000.00000" pt_clust_9="110.27806" pt_clust_10="25.74312"></scales>
<clustering>
<clus scale="   25.743">  1 10  2 -1</clus>
<clus scale="   92.857">  5  6 -1 -1</clus>
<clus scale="   96.658">  7  8 -1 -1</clus>
<clus scale="  110.278">  2  9  1 -1</clus>
<clus scale="  133.800">  1  5  2 -1</clus>
<clus scale="   25.743">  1  5  2 -1</clus>
</clustering>
</event>
<event>
10    2  0.3544405E-006  0.1405833E+03  0.7546771E-02  0.1230652E+00
         21   -1    0    0  503  502  0.00000000000E+00  0.00000000000E+00  0.65656157783E+03  0.65656157783E+03  0.00000000000E+00 0.  1.
         -1   -1    0    0    0  501 -0.00000000000E+00 -0.00000000000E+00 -0.98735925254E+02  0.98735925254E+02  0.00000000000E+00 0.  1.
         23    2    1    2    0    0  0.15994974794E+02  0.19596093772E+02  0.17381992886E+02  0.97737250266E+02  0.92793266475E+02 0.  0.
         23    2    1    2    0    0  0.17832322450E+02  0.94137869555E+02  0.60005091162E+02  0.14534951134E+03  0.91356112406E+02 0.  0.
        -13    1    4    4    0    0  0.53472604600E+02  0.74423194668E+02  0.42529405383E+02  0.10102911298E+03  0.00000000000E+00 0.  1.
         13    1    4    4    0    0 -0.35640282150E+02  0.19714674887E+02  0.17475685779E+02  0.44320398363E+02  0.00000000000E+00 0. -1.
        -13    1    3    3    0    0  0.34434989921E+00  0.38054964032E+02 -0.27359204697E+02  0.46870299188E+02  0.00000000000E+00 0.  1.
         13    1    3    3    0    0  0.15650624895E+02 -0.18458870259E+02  0.44741197583E+02  0.50866951078E+02  0.00000000000E+00 0. -1.
         21    1    1    2  503  501  0.13729772943E+02 -0.15811945153E+02  0.14317201783E+01  0.20989857009E+02  0.00000000000E+00 0.  1.
         -1    1    1    2    0  502 -0.47557070188E+02 -0.97922018175E+02  0.47900684835E+03  0.49122088446E+03  0.00000000000E+00 0.  1.
<scales pt_clust_5="13000.00000" pt_clust_6="13000.00000" pt_clust_7="13000.00000" pt_clust_8="13000.00000" pt_clust_9="20.94097" pt_clust_10="106.85375"></scales>
<clustering>
<clus scale="   20.941">  2  9  1 -1</clus>
<clus scale="   91.356">  5  6 -1 -1</clus>
<clus scale="   92.793">  7  8 -1 -1</clus>
<clus scale="   96.220">  2  7  1 -1</clus>
<clus scale="  106.854">  1 10  2 -1</clus>
<clus scale="  106.854">  1  5  2 -1</clus>
</clustering>
</event>
<event>
10    2  0.3544405E-006  0.1094838E+03  0.7546771E-02  0.1262274E+00
          1   -1    0    0  503    0 -0.00000000000E+00  0.00000000000E+00  0.48415833339E+03  0.48415833339E+03  0.00000000000E+00 0. -1.
         21   -1    0    0  501  502  0.00000000000E+00 -0.00000000000E+00 -0.93854922596E+02  0.93854922596E+02  0.00000000000E+00 0.  1.
         23    2    1    2    0    0  0.17638637869E+01  0.21886069141E+02  0.23105027558E+03  0.24964998623E+03  0.91971596389E+02 0.  0.
         23    2    1    2    0    0  0.71018605394E+02 -0.30080994237E+02  0.99496347803E+01  0.12186496258E+03  0.93827316627E+02 0.  0.
        -11    1    3    3    0    0 -0.84142327227E+01  0.56965696558E+02  0.12932353075E+03  0.14156435110E+03  0.00000000000E+00 0.  1.
         11    1    3    3    0    0  0.10178096510E+02 -0.35079627417E+02  0.10172674483E+03  0.10808563513E+03  0.00000000000E+00 0. -1.
        -13    1    4    4    0    0  0.58973986673E+02 -0.62222007724E+02 -0.13170842726E+01  0.85739396198E+02  0.00000000000E+00 0.  1.
         13    1    4    4    0    0  0.12044618720E+02  0.32141013486E+02  0.11266719053E+02  0.36125566380E+02  0.00000000000E+00 0. -1.
         21    1    1    2  503  502 -0.70900253335E+02 -0.14473054468E+02  0.16411148466E+03  0.17935689177E+03  0.00000000000E+00 0. -1.
          1    1    1    2  501    0 -0.18822158456E+01  0.22667979564E+02 -0.14807984217E+02  0.27141415412E+02  0.00000000000E+00 0. -1.
<scales pt_clust_5="13000.00000" pt_clust_6="13000.00000" pt_clust_7="13000.00000" pt_clust_8="13000.00000" pt_clust_9="72.11978" pt_clust_10="22.74599"></scales>
<clustering>
<clus scale="   22.746">  2 10  1 -1</clus>
<clus scale="   72.120">  1  9  2 -1</clus>
<clus scale="   91.972">  5  6 -1 -1</clus>
<clus scale="   93.827">  7  8 -1 -1</clus>
<clus scale="  107.898">  1  5  2 -1</clus>
<clus scale="   22.746">  2  5  1 -1</clus>
</clustering>
</event>
<event>
10    2  0.3544405E-006  0.1120467E+03  0.7546771E-02  0.1257712E+00
         -3   -1    0    0    0  501 -0.00000000000E+00  0.00000000000E+00  0.18020323470E+03  0.18020323470E+03  0.00000000000E+00 0.  1.
         21   -1    0    0  503  502  0.00000000000E+00 -0.00000000000E+00 -0.18691546300E+03  0.18691546300E+03  0.00000000000E+00 0. -1.
         23    2    1    2    0    0  0.70733462169E+02  0.32060537296E+02  0.50691357084E+02  0.13162852454E+03  0.93409603725E+02 0.  0.
         23    2    1    2    0    0 -0.34690939795E+02 -0.58075146689E+01 -0.37288532255E+02  0.10450599159E+03  0.91070736844E+02 0.  0.
        -11    1    3    3    0    0  0.89760641975E+02  0.39420103693E+02  0.29884979461E+02  0.10248916733E+03  0.00000000000E+00 0.  1.
         11    1    3    3    0    0 -0.19027179806E+02 -0.73595663972E+01  0.20806377623E+02  0.29139357211E+02  0.00000000000E+00 0. -1.
        -13    1    4    4    0    0  0.70049717852E+01 -0.38509455663E+02 -0.33257708867E+02  0.51362661577E+02  0.00000000000E+00 0.  1.
         13    1    4    4    0    0 -0.41695911580E+02  0.32701940994E+02 -0.40308233877E+01  0.53143330009E+02  0.00000000000E+00 0. -1.
         21    1    1    2  503  501 -0.67311480583E+02  0.17110017515E+02  0.91252982988E+01  0.70048977056E+02  0.00000000000E+00 0. -1.
         -3    1    1    2    0  502  0.31268958208E+02 -0.43363040142E+02 -0.29240351432E+02  0.60935204518E+02  0.00000000000E+00 0.  1.
<scales pt_clust_5="13000.00000" pt_clust_6="13000.00000" pt_clust_7="13000.00000" pt_clust_8="13000.00000" pt_clust_9="61.09502" pt_clust_10="53.46121"></scales>
<clustering>
<clus scale="   53.461">  2 10  1 -1</clus>
<clus scale="   61.095">  2  9  1 -1</clus>
<clus scale="   91.071">  7  8 -1 -1</clus>
<clus scale="   93.410">  5  6 -1 -1</clus>
<clus scale="  110.104">  2  7  1 -1</clus>
<clus scale="   53.461">  2  5  1 -1</clus>
</clustering>
</event>
<event>
10    2  0.3544405E-006  0.9369741E+02  0.7546771E-02  0.1294180E+00
          1   -1    0    0  503    0 -0.00000000000E+00  0.00000000000E+00  0.26878115868E+03  0.26878115868E+03  0.00000000000E+00 0. -1.
         21   -1    0    0  501  502  0.00000000000E+00 -0.00000000000E+00 -0.20141425328E+03  0.20141425328E+03  0.00000000000E+00 0. -1.
         23    2    1    2    0    0  0.19336740561E+02 -0.17742331039E+02  0.11952843992E+03  0.15383788414E+03  0.93222029581E+02 0.  0.
         23    2    1    2    0    0  0.40674820661E+02  0.28019236185E+02 -0.24969770447E+02  0.10847816241E+03  0.93297929510E+02 0.  0.
        -11    1    4    4    0    0 -0.64879551991E+00  0.50039128792E+02 -0.34383341294E+02  0.60716962247E+02  0.00000000000E+00 0. -1.
         11    1    4    4    0    0  0.41323616181E+02 -0.22019892607E+02  0.94135708471E+01  0.47761200160E+02  0.00000000000E+00 0.  1.
        -13    1    3    3    0    0  0.49340973042E+02  0.13044887514E+02  0.82947040772E+02  0.97390514341E+02  0.00000000000E+00 0.  1.
         13    1    3    3    0    0 -0.30004232480E+02 -0.30787218553E+02  0.36581399150E+02  0.56447369795E+02  0.00000000000E+00 0. -1.
         21    1    1    2  503  502 -0.25809010184E+02  0.35234626706E+02  0.77356903357E+02  0.88835096796E+02  0.00000000000E+00 0. -1.
          1    1    1    2  501    0 -0.34202551038E+02 -0.45511531853E+02 -0.10454866744E+03  0.11904426862E+03  0.00000000000E+00 0. -1.
<scales pt_clust_5="13000.00000" pt_clust_6="13000.00000" pt_clust_7="13000.00000" pt_clust_8="13000.00000" pt_clust_9="43.67590" pt_clust_10="56.46014"></scales>
<clustering>
<clus scale="   43.676">  1  9  2 -1</clus>
<clus scale="   56.460">  2 10  1 -1</clus>
<clus scale="   93.222">  7  8 -1 -1</clus>
<clus scale="   93.298">  5  6 -1 -1</clus>
<clus scale="   93.622">  1  7  2 -1</clus>
<clus scale="   56.460">  2  5  1 -1</clus>
</clustering>
</event>
<event>
10    2  0.3544405E-006  0.1302998E+03  0.7546771E-02  0.1227239E+00
         21   -1    0    0  501  502  0.00000000000E+00  0.00000000000E+00  0.16329569902E+03  0.16329569902E+03  0.00000000000E+00 0. -1.
          2   -1    0    0  503    0 -0.00000000000E+00 -0.00000000000E+00 -0.69117105702E+03  0.69117105702E+03  0.00000000000E+00 0. -1.
         23    2    1    2    0    0 -0.52252786703E+02 -0.52728067513E+02 -0.13623943692E+03  0.18031414890E+03  0.91877120656E+02 0.  0.
         23    2    1    2    0    0 -0.56304058281E+02  0.14066324594E+03 -0.18025613864E+03  0.25244958380E+03  0.91006709130E+02 0.  0.
        -11    1    3    3    0    0 -0.29657820899E+02 -0.66759814982E+02 -0.46213909329E+02  0.86441799220E+02  0.00000000000E+00 0.  1.
         11    1    3    3    0    0 -0.22594965805E+02  0.14031747469E+02 -0.90025527594E+02  0.93872349685E+02  0.00000000000E+00 0. -1.
        -11    1    4    4    0    0 -0.18122653020E+02  0.11104600959E+03 -0.16867679515E+03  0.20275972978E+03  0.00000000000E+00 0. -1.
         11    1    4    4    0    0 -0.38181405262E+02  0.29617236353E+02 -0.11579343486E+02  0.49689854020E+02  0.00000000000E+00 0.  1.
         21    1    1    2  503  502  0.10858807256E+03 -0.44462533126E+02 -0.30047191105E+03  0.32257038872E+03  0.00000000000E+00 0. -1.
          2    1    1    2  501    0 -0.31227572064E-01 -0.43472645303E+02  0.89092128613E+02  0.99132634615E+02  0.00000000000E+00 0. -1.
<scales pt_clust_5="13000.00000" pt_clust_6="13000.00000" pt_clust_7="13000.00000" pt_clust_8="13000.00000" pt_clust_9="120.13665" pt_clust_10="43.47266"></scales>
<clustering>
<clus scale="   43.473">  1 10  2 -1</clus>
<clus scale="   91.007">  7  8 -1 -1</clus>
<clus scale="   91.877">  5  6 -1 -1</clus>
<clus scale="  120.137">  2  9  1 -1</clus>
<clus scale="  129.688">  1  7  2 -1</clus>
<clus scale="   43.473">  1  5  2 -1</clus>
</clustering>
</event>
<event>
10    2  0.3544405E-006  0.9554917E+02  0.7546771E-02  0.1291359E+00
         -3   -1    0    0    0  501 -0.00000000000E+00  0.00000000000E+00  0.43335820139E+03  0.43335820139E+03  0.00000000000E+00 0.  1.
         21   -1    0    0  503  502  0.00000000000E+00 -0.00000000000E+00 -0.37932323932E+03  0.37932323932E+03  0.00000000000E+00 0.  1.
         23    2    1    2    0    0 -0.94408411778E+01  0.16890546741E+02  0.28681459186E+03  0.30142706505E+03  0.90671083540E+02 0.  0.
         23    2    1    2    0    0 -0.23573883258E+02 -0.44175376848E+01  0.10861733351E+02  0.91889853809E+02  0.88037068162E+02 0.  0.
        -11    1    4    4    0    0 -0.48639707604E+02 -0.26991607437E+02  0.15728843863E+02  0.57807997345E+02  0.00000000000E+00 0.  1.
         11    1    4    4    0    0  0.25065824346E+02  0.22574069752E+02 -0.48671105113E+01  0.34081856464E+02  0.00000000000E+00 0. -1.
        -13    1    3    3    0    0  0.36242939567E+02 -0.70460548344E+01  0.77403210842E+02  0.85758116851E+02  0.00000000000E+00 0. -1.
         13    1    3    3    0    0 -0.45683780744E+02  0.23936601575E+02  0.20941138102E+03  0.21566894820E+03  0.00000000000E+00 0.  1.
         21    1    1    2  503  501 -0.28147900704E+02  0.12769351650E+02  0.81706077802E+02  0.87356990592E+02  0.00000000000E+00 0. -1.
         -3    1    1    2    0  502  0.61162625139E+02 -0.25242360706E+02 -0.32534744094E+03  0.33200753126E+03  0.00000000000E+00 0.  1.
<scales pt_clust_5="13000.00000" pt_clust_6="13000.00000" pt_clust_7="13000.00000" pt_clust_8="13000.00000" pt_clust_9="30.90891" pt_clust_10="65.87189"></scales>
<clustering>
<clus scale="   30.909">  1  9  2 -1</clus>
<clus scale="   65.872">  2 10  1 -1</clus>
<clus scale="   88.037">  5  6 -1 -1</clus>
<clus scale="   90.671">  7  8 -1 -1</clus>
<clus scale="   93.053">  2  5  1 -1</clus>
<clus scale="   65.872">  2  5  1 -1</clus>
</clustering>
</event>
<event>
10    2  0.3544405E-006  0.3055322E+03  0.7546771E-02  0.1082586E+00
          2   -1    0    0  502    0 -0.00000000000E+00  0.00000000000E+00  0.19320843335E+04  0.19320843335E+04  0.00000000000E+00 0. -1.
         21   -1    0    0  503  502  0.00000000000E+00 -0.00000000000E+00 -0.10844024571E+03  0.10844024571E+03  0.00000000000E+00 0. -1.
         23    2    1    2    0    0 -0.25527878080E+03 -0.70820229218E+02  0.87616584125E+03  0.91976459976E+03  0.90097595965E+02 0.  0.
         23    2    1    2    0    0  0.38633398228E+03 -0.60165760132E+02  0.57501993515E+03  0.70144955289E+03  0.92247953253E+02 0.  0.
        -11    1    3    3    0    0 -0.23233655836E+03 -0.37945947800E+02  0.79679539948E+03  0.83084479895E+03  0.00000000000E+00 0. -1.
         11    1    3    3    0    0 -0.22942222441E+02 -0.32874281418E+02  0.79370441772E+02  0.88919800811E+02  0.00000000000E+00 0.  1.
        -13    1    4    4    0    0  0.35020302170E+03 -0.67595353622E+02  0.46911678742E+03  0.58930624337E+03  0.00000000000E+00 0. -1.
         13    1    4    4    0    0  0.36130960588E+02  0.74295934897E+01  0.10590314773E+03  0.11214330952E+03  0.00000000000E+00 0.  1.
         21    1    1    2  503  501 -0.71046862960E+02  0.35952158273E+02  0.17071433176E+03  0.18837090404E+03  0.00000000000E+00 0.  1.
          2    1    1    2  501    0 -0.60008338526E+02  0.95033831078E+02  0.20174397963E+03  0.23093952252E+03  0.00000000000E+00 0. -1.
<scales pt_clust_5="13000.00000" pt_clust_6="13000.00000" pt_clust_7="13000.00000" pt_clust_8="13000.00000" pt_clust_9="44.24497" pt_clust_10="192.60332"></scales>
<clustering>
<clus scale="   44.245">  9 10 -1 -1</clus>
<clus scale="   90.098">  5  6 -1 -1</clus>
<clus scale="   92.248">  7  8 -1 -1</clus>
<clus scale="  192.603">  2  9  1 -1</clus>
<clus scale="  304.890">  1  5  2 -1</clus>
<clus scale="  192.603">  2  5  1 -1</clus>
</clustering>
</event>
<event>
10    2  0.3544405E-006  0.1115056E+03  0.7546771E-02  0.1258230E+00
         21   -1    0    0  503  502  0.00000000000E+00  0.00000000000E+00  0.28052819817E+03  0.28052819817E+03  0.00000000000E+00 0.  1.
         -1   -1    0    0    0  501 -0.00000000000E+00 -0.00000000000E+00 -0.14247383878E+03  0.14247383878E+03  0.00000000000E+00 0.  1.
         23    2    1    2    0    0  0.73109228874E+02  0.48552898862E+02 -0.13747954022E+02  0.12747389681E+03  0.91423436781E+02 0.  0.
         23    2    1    2    0    0 -0.41783564791E+02 -0.98056826366E+01  0.23948465940E+02  0.10280188648E+03  0.90292198691E+02 0.  0.
        -11    1    4    4    0    0  0.86990177657E+01  0.31460773534E+02 -0.18195542666E+01  0.32691955573E+02  0.00000000000E+00 0.  1.
         11    1    4    4    0    0 -0.50482582556E+02 -0.41266456171E+02  0.25768020207E+02  0.70109930907E+02  0.00000000000E+00 0. -1.
        -11    1    3    3    0    0  0.35859853096E+02 -0.19275857499E+02  0.17113821760E+02  0.44163000822E+02  0.00000000000E+00 0. -1.
         11    1    3    3    0    0  0.37249375778E+02  0.67828756361E+02 -0.30861775783E+02  0.83310895985E+02  0.00000000000E+00 0.  1.
         21    1    1    2  503  501  0.11005838412E+02 -0.53416549787E+02 -0.27942439877E+01  0.54610109593E+02  0.00000000000E+00 0. -1.
         -1    1    1    2    0  502 -0.42331502495E+02  0.14669333561E+02  0.13064809146E+03  0.13811614407E+03  0.00000000000E+00 0.  1.
<scales pt_clust_5="13000.00000" pt_clust_6="13000.00000" pt_clust_7="13000.00000" pt_clust_8="13000.00000" pt_clust_9="50.93655" pt_clust_10="44.80118"></scales>
<clustering>
<clus scale="   44.801">  1 10  2 -1</clus>
<clus scale="   50.937">  2  9  1 -1</clus>
<clus scale="   90.292">  5  6 -1 -1</clus>
<clus scale="   91.423">  7  8 -1 -1</clus>
<clus scale="  110.580">  1  5  2 -1</clus>
<clus scale="   44.801">  1  5  2 -1</clus>
</clustering>
</event>
<event>
10    2  0.3544405E-006  0.1216185E+03  0.7546771E-02  0.1240888E+00
         21   -1    0    0  501  502  0.00000000000E+00  0.00000000000E+00  0.13192632087E+03  0.13192632087E+03  0.00000000000E+00 0. -1.
          2   -1    0    0  503    0 -0.00000000000E+00 -0.00000000000E+00 -0.42768977143E+03  0.42768977143E+03  0.00000000000E+00 0. -1.
         23    2    1    2    0    0 -0.77095258220E+02 -0.33673883670E+02 -0.17954900324E+03  0.21881411943E+03  0.92542773992E+02 0.  0.
         23    2    1    2    0    0  0.62462479125E+02  0.24475189650E+02 -0.79403700930E+02  0.13823753893E+03  0.91126687864E+02 0.  0.
        -11    1    4    4    0    0  0.61744516841E+02  0.68880360567E+00 -0.71441413403E+01  0.62160265168E+02  0.00000000000E+00 0.  1.
         11    1    4    4    0    0  0.71796228472E+00  0.23786386045E+02 -0.72259559590E+02  0.76077273762E+02  0.00000000000E+00 0. -1.
        -13    1    3    3    0    0 -0.65654261549E+02  0.13082508500E+02 -0.14455002329E+03  0.15929953962E+03  0.00000000000E+00 0. -1.
         13    1    3    3    0    0 -0.11440996671E+02 -0.46756392170E+02 -0.34998979948E+02  0.59514579819E+02  0.00000000000E+00 0.  1.
         21    1    1    2  503  502 -0.18258692833E+02  0.19244565563E+02 -0.11453729174E+03  0.11756923223E+03  0.00000000000E+00 0.  1.
          2    1    1    2  501    0  0.32891471927E+02 -0.10045871543E+02  0.77726545353E+02  0.84995201706E+02  0.00000000000E+00 0. -1.
<scales pt_clust_5="13000.00000" pt_clust_6="13000.00000" pt_clust_7="13000.00000" pt_clust_8="13000.00000" pt_clust_9="26.52797" pt_clust_10="34.12254"></scales>
<clustering>
<clus scale="   26.528">  2  9  1 -1</clus>
<clus scale="   34.123">  1 10  2 -1</clus>
<clus scale="   91.127">  5  6 -1 -1</clus>
<clus scale="   92.543">  7  8 -1 -1</clus>
<clus scale="  120.544">  1  5  2 -1</clus>
<clus scale="   34.123">  1  5  2 -1</clus>
</clustering>
</event>
<event>
10    2  0.3544405E-006  0.3320107E+03  0.7546771E-02  0.1101306E+00
          1   -1    0    0  503    0 -0.00000000000E+00  0.00000000000E+00  0.16623357127E+04  0.16623357127E+04  0.00000000000E+00 0. -1.
         21   -1    0    0  501  502  0.00000000000E+00 -0.00000000000E+00 -0.21694379788E+03  0.21694379788E+03  0.00000000000E+00 0. -1.
         23    2    1    2    0    0  0.15040458858E+03  0.30206288868E+01  0.19082040273E+03  0.25801411754E+03  0.86765167489E+02 0.  0.
         23    2    1    2    0    0 -0.97146473553E+02  0.31556445068E+03  0.31446198925E+03  0.46517617127E+03  0.92109542289E+02 0.  0.
        -11    1    4    4    0    0 -0.80912915726E+01  0.79721390206E+02  0.13033567007E+03  0.15299789524E+03  0.00000000000E+00 0.  1.
         11    1    4    4    0    0 -0.89055181981E+02  0.23584306047E+03  0.18412631918E+03  0.31217827603E+03  0.00000000000E+00 0. -1.
        -11    1    3    3    0    0  0.13673428026E+03  0.25175092585E+02  0.18486022346E+03  0.23130791362E+03  0.00000000000E+00 0. -1.
         11    1    3    3    0    0  0.13670308315E+02 -0.22154463698E+02  0.59601792750E+01  0.26706203926E+02  0.00000000000E+00 0.  1.
         21    1    1    2  503  502 -0.12936800433E+03 -0.15673807686E+02  0.80552819134E+03  0.81600086754E+03  0.00000000000E+00 0. -1.
          1    1    1    2  501    0  0.76109889305E+02 -0.30291127188E+03  0.13458133149E+03  0.34008835420E+03  0.00000000000E+00 0. -1.
<scales pt_clust_5="13000.00000" pt_clust_6="13000.00000" pt_clust_7="13000.00000" pt_clust_8="13000.00000" pt_clust_9="130.31404" pt_clust_10="318.97800"></scales>
<clustering>
<clus scale="   86.765">  7  8 -1 -1</clus>
<clus scale="   92.110">  5  6 -1 -1</clus>
<clus scale="  130.314">  1  9  2 -1</clus>
<clus scale="  145.113">  1  7  2 -1</clus>
<clus scale="  318.978">  2 10  1 -1</clus>
<clus scale="  318.978">  2  5  1 -1</clus>
</clustering>
</event>
<event>
10    2  0.3544405E-006  0.1021238E+03  0.7546771E-02  0.1275978E+00
         21   -1    0    0  503  502  0.00000000000E+00  0.00000000000E+00  0.28933377358E+03  0.28933377358E+03  0.00000000000E+00 0.  1.
         -1   -1    0    0    0  501 -0.00000000000E+00 -0.00000000000E+00 -0.11087375422E+03  0.11087375422E+03  0.00000000000E+00 0.  1.
         23    2    1    2    0    0  0.27841220960E+02 -0.35226591942E+02  0.96050615215E+01  0.10202365411E+03  0.91107202934E+02 0.  0.
         23    2    1    2    0    0 -0.45193292100E+02  0.46948758087E+01  0.56790403140E+02  0.11672379384E+03  0.91295227962E+02 0.  0.
        -11    1    3    3    0    0  0.54810028845E+02 -0.28353317383E+02 -0.16487723283E+02  0.63874054887E+02  0.00000000000E+00 0.  1.
         11    1    3    3    0    0 -0.26968807885E+02 -0.68732745592E+01  0.26092784805E+02  0.38149599222E+02  0.00000000000E+00 0. -1.
        -11    1    4    4    0    0 -0.71897925345E+02  0.49180161260E+01  0.27626276660E+02  0.77179723462E+02  0.00000000000E+00 0. -1.
         11    1    4    4    0    0  0.26704633245E+02 -0.22314031731E+00  0.29164126481E+02  0.39544070374E+02  0.00000000000E+00 0.  1.
         21    1    1    2  503  501  0.45889085711E+02  0.22914954156E+02 -0.13033652170E+02  0.52922390349E+02  0.00000000000E+00 0.  1.
         -1    1    1    2    0  502 -0.28537014571E+02  0.76167619776E+01  0.12509820686E+03  0.12853768951E+03  0.00000000000E+00 0.  1.
<scales pt_clust_5="13000.00000" pt_clust_6="13000.00000" pt_clust_7="13000.00000" pt_clust_8="13000.00000" pt_clust_9="48.63601" pt_clust_10="29.53602"></scales>
<clustering>
<clus scale="   29.536">  1 10  2 -1</clus>
<clus scale="   48.636">  2  9  1 -1</clus>
<clus scale="   91.107">  5  6 -1 -1</clus>
<clus scale="   91.295">  7  8 -1 -1</clus>
<clus scale="  101.956">  2  5  1 -1</clus>
<clus scale="   29.536">  1  5  2 -1</clus>
</clustering>
</event>
<event>
10    2  0.3544405E-006  0.4037462E+03  0.7546771E-02  0.1042529E+00
          1   -1    0    0  503    0 -0.00000000000E+00  0.00000000000E+00  0.14084382123E+04  0.14084382123E+04  0.00000000000E+00 0. -1.
         21   -1    0    0  501  502  0.00000000000E+00 -0.00000000000E+00 -0.34110206894E+03  0.34110206894E+03  0.00000000000E+00 0.  1.
         23    2    1    2    0    0 -0.53220481651E+02  0.39750606301E+03  0.90322312734E+03  0.99226815113E+03  0.89109910727E+02 0.  0.
         23    2    1    2    0    0  0.80192884800E+01 -0.45893342383E+03 -0.62059025097E+01  0.46800920299E+03  0.91158676839E+02 0.  0.
        -13    1    3    3    0    0  0.11195631355E+02  0.56036890303E+02  0.19799578062E+03  0.20607718063E+03  0.00000000000E+00 0. -1.
         13    1    3    3    0    0 -0.64416113006E+02  0.34146917270E+03  0.70522734673E+03  0.78619097050E+03  0.00000000000E+00 0.  1.
        -13    1    4    4    0    0  0.91872087417E+01 -0.31991100311E+03 -0.46160209799E+02  0.32335463455E+03  0.00000000000E+00 0.  1.
         13    1    4    4    0    0 -0.11679202617E+01 -0.13902242071E+03  0.39954307289E+02  0.14465456844E+03  0.00000000000E+00 0. -1.
         21    1    1    2  503  502  0.10368707686E+02 -0.23796345881E+02  0.19276023803E+03  0.19450009137E+03  0.00000000000E+00 0. -1.
          1    1    1    2  501    0  0.34832485485E+02  0.85223706704E+02 -0.22441319463E+02  0.94762835799E+02  0.00000000000E+00 0. -1.
<scales pt_clust_5="13000.00000" pt_clust_6="13000.00000" pt_clust_7="13000.00000" pt_clust_8="13000.00000" pt_clust_9="25.95720" pt_clust_10="91.53003"></scales>
<clustering>
<clus scale="   25.957">  1  9  2 -1</clus>
<clus scale="   89.110">  5  6 -1 -1</clus>
<clus scale="   91.159">  7  8 -1 -1</clus>
<clus scale="   91.530">  2 10  1 -1</clus>
<clus scale="  403.289">  1  5  2 -1</clus>
<clus scale="   91.530">  2  5  1 -1</clus>
</clustering>
</event>
<event>
10    2  0.3544405E-006  0.1247366E+03  0.7546771E-02  0.1239381E+00
         21   -1    0    0  501  502  0.00000000000E+00  0.00000000000E+00  0.36318487435E+02  0.36318487435E+02  0.00000000000E+00 0.  1.
          1   -1    0    0  503    0 -0.00000000000E+00 -0.00000000000E+00 -0.10838372513E+04  0.10838372513E+04  0.00000000000E+00 0. -1.
         23    2    1    2    0    0  0.74298103326E+02 -0.35073789773E+02 -0.59545974292E+03  0.60612125473E+03  0.77847871540E+02 0.  0.
         23    2    1    2    0    0 -0.11941335989E+03 -0.27875500673E+02 -0.24270226262E+03  0.28686181263E+03  0.91371315008E+02 0.  0.
        -11    1    4    4    0    0 -0.69394389048E+02 -0.59853143613E+02 -0.12452348508E+03  0.15460943816E+03  0.00000000000E+00 0. -1.
         11    1    4    4    0    0 -0.50018970841E+02  0.31977642940E+02 -0.11817877754E+03  0.13225237447E+03  0.00000000000E+00 0.  1.
        -13    1    3    3    0    0  0.48965806858E+01 -0.42539214205E+02 -0.19780723068E+03  0.20238888743E+03  0.00000000000E+00 0. -1.
         13    1    3    3    0    0  0.69401522640E+02  0.74654244328E+01 -0.39765251225E+03  0.40373236730E+03  0.00000000000E+00 0.  1.
         21    1    1    2  503  502  0.32516373712E+00  0.23443557122E+02 -0.98497999063E+02  0.10124999714E+03  0.00000000000E+00 0. -1.
          1    1    1    2  501    0  0.44790092826E+02  0.39505733323E+02 -0.11085875921E+03  0.12592267419E+03  0.00000000000E+00 0. -1.
<scales pt_clust_5="13000.00000" pt_clust_6="13000.00000" pt_clust_7="13000.00000" pt_clust_8="13000.00000" pt_clust_9="23.44581" pt_clust_10="61.65378"></scales>
<clustering>
<clus scale="   23.446">  2  9  1 -1</clus>
<clus scale="   61.654">  1 10  2 -1</clus>
<clus scale="   77.848">  7  8 -1 -1</clus>
<clus scale="   91.371">  5  6 -1 -1</clus>
<clus scale="  115.199">  2  7  1 -1</clus>
<clus scale="   61.654">  1  5  2 -1</clus>
</clustering>
</event>
<event>
10    2  0.3544405E-006  0.1263020E+03  0.7546771E-02  0.1245446E+00
          1   -1    0    0  503    0 -0.00000000000E+00  0.00000000000E+00  0.41766294517E+03  0.41766294517E+03  0.00000000000E+00 0. -1.
         21   -1    0    0  501  502  0.00000000000E+00 -0.00000000000E+00 -0.22514683828E+03  0.22514683828E+03  0.00000000000E+00 0.  1.
         23    2    1    2    0    0 -0.36402667155E+02  0.35687749893E+02  0.36608086096E+03  0.38920303678E+03  0.12192225968E+03 0.  0.
         23    2    1    2    0    0  0.96869283549E+01 -0.17997076535E+02 -0.13139363840E+03  0.16195550239E+03  0.92453043202E+02 0.  0.
        -11    1    3    3    0    0 -0.13473633945E+02  0.80589531223E+02  0.23006827410E+03  0.24414672249E+03  0.00000000000E+00 0. -1.
         11    1    3    3    0    0 -0.22929033210E+02 -0.44901781330E+02  0.13601258686E+03  0.14505631429E+03  0.00000000000E+00 0.  1.
        -11    1    4    4    0    0  0.14271939825E+02 -0.43302269902E+02 -0.12816888072E+03  0.13603689511E+03  0.00000000000E+00 0.  1.
         11    1    4    4    0    0 -0.45850114700E+01  0.25305193367E+02 -0.32247576833E+01  0.25918607286E+02  0.00000000000E+00 0. -1.
         21    1    1    2  503  502  0.44351502336E+01 -0.23318633941E+02  0.16321307519E+02  0.28806497975E+02  0.00000000000E+00 0.  1.
          1    1    1    2  501    0  0.22280588567E+02  0.56279605835E+01 -0.58492423189E+02  0.62844746301E+02  0.00000000000E+00 0. -1.
<scales pt_clust_5="13000.00000" pt_clust_6="13000.00000" pt_clust_7="13000.00000" pt_clust_8="13000.00000" pt_clust_9="23.70083" pt_clust_10="22.98040"></scales>
<clustering>
<clus scale="   22.980">  2 10  1 -1</clus>
<clus scale="   23.701">  1  9  2 -1</clus>
<clus scale="   92.453">  7  8 -1 -1</clus>
<clus scale="   98.157">  2  7  1 -1</clus>
<clus scale="  121.922">  5  6 -1 -1</clus>
<clus scale="   22.980">  2  5  1 -1</clus>
</clustering>
</event>
<event>
10    2  0.3544405E-006  0.1562502E+03  0.7546771E-02  0.1210599E+00
          1   -1    0    0  503    0 -0.00000000000E+00  0.00000000000E+00  0.11938858605E+04  0.11938858605E+04  0.00000000000E+00 0. -1.
         21   -1    0    0  501  502  0.00000000000E+00 -0.00000000000E+00 -0.63632287060E+02  0.63632287060E+02  0.00000000000E+00 0. -1.
         23    2    1    2    0    0 -0.14590524829E+03  0.38749632488E+02  0.29237222071E+03  0.34136844490E+03  0.90890176795E+02 0.  0.
         23    2    1    2    0    0  0.63961836528E+02 -0.82618059933E+01  0.22852383679E+03  0.25426152195E+03  0.90919764576E+02 0.  0.
        -11    1    3    3    0    0 -0.49108652878E+02  0.55622325182E+02  0.91922480139E+02  0.11813232073E+03  0.00000000000E+00 0.  1.
         11    1    3    3    0    0 -0.96796595415E+02 -0.16872692694E+02  0.20044974057E+03  0.22323612417E+03  0.00000000000E+00 0. -1.
        -13    1    4    4    0    0 -0.18306609057E+02 -0.20507566077E+02  0.44373523642E+02  0.52198676248E+02  0.00000000000E+00 0.  1.
         13    1    4    4    0    0  0.82268445585E+02  0.12245760084E+02  0.18415031315E+03  0.20206284570E+03  0.00000000000E+00 0. -1.
         21    1    1    2  503  502  0.10915034602E+03 -0.54117456643E+02  0.61362353013E+03  0.62560077835E+03  0.00000000000E+00 0. -1.
          1    1    1    2  501    0 -0.27206934253E+02  0.23629630149E+02 -0.42660141890E+01  0.36287402353E+02  0.00000000000E+00 0. -1.
<scales pt_clust_5="13000.00000" pt_clust_6="13000.00000" pt_clust_7="13000.00000" pt_clust_8="13000.00000" pt_clust_9="127.09489" pt_clust_10="36.03577"></scales>
<clustering>
<clus scale="   36.036">  2 10  1 -1</clus>
<clus scale="   90.890">  5  6 -1 -1</clus>
<clus scale="   90.920">  7  8 -1 -1</clus>
<clus scale="  106.730">  2  7  1 -1</clus>
<clus scale="  127.095">  1  9  2 -1</clus>
<clus scale="   36.036">  2  5  1 -1</clus>
</clustering>
</event>
<event>
10    2  0.3544405E-006  0.1105284E+03  0.7546771E-02  0.1261425E+00
         21   -1    0    0  501  502  0.00000000000E+00  0.00000000000E+00  0.24097061189E+03  0.24097061189E+03  0.00000000000E+00 0. -1.
          3   -1    0    0  503    0 -0.00000000000E+00 -0.00000000000E+00 -0.10832055615E+03  0.10832055615E+03  0.00000000000E+00 0. -1.
         23    2    1    2    0    0 -0.30051447833E+02 -0.30286035225E+02 -0.31068215226E+02  0.10563559078E+03  0.91505795418E+02 0.  0.
         23    2    1    2    0    0  0.42965651865E+01  0.47257752420E+02  0.13582779551E+03  0.17297950684E+03  0.96025851287E+02 0.  0.
        -11    1    3    3    0    0  0.11884249162E+02 -0.49866963697E+02 -0.26642189871E+01  0.51332713831E+02  0.00000000000E+00 0.  1.
         11    1    3    3    0    0 -0.41935696995E+02  0.19580928472E+02 -0.28403996239E+02  0.54302876946E+02  0.00000000000E+00 0. -1.
        -13    1    4    4    0    0 -0.43927684699E+02  0.13629398729E+02  0.42178264684E+02  0.62405192127E+02  0.00000000000E+00 0. -1.
         13    1    4    4    0    0  0.48224249885E+02  0.33628353691E+02  0.93649530828E+02  0.11057431471E+03  0.00000000000E+00 0.  1.
         21    1    1    2  503  502  0.15640206441E+01 -0.31510370452E+02  0.80656555238E+00  0.31559470125E+02  0.00000000000E+00 0. -1.
          3    1    1    2  501    0  0.24190862003E+02  0.14538653257E+02  0.27083909902E+02  0.39116600294E+02  0.00000000000E+00 0. -1.
<scales pt_clust_5="13000.00000" pt_clust_6="13000.00000" pt_clust_7="13000.00000" pt_clust_8="13000.00000" pt_clust_9="30.57349" pt_clust_10="28.22358"></scales>
<clustering>
<clus scale="   28.224">  1 10  2 -1</clus>
<clus scale="   30.573">  2  9  1 -1</clus>
<clus scale="   91.506">  5  6 -1 -1</clus>
<clus scale="   96.026">  7  8 -1 -1</clus>
<clus scale="  106.625">  2  5  1 -1</clus>
<clus scale="   28.224">  1  5  2 -1</clus>
</clustering>
</event>
<event>
10    2  0.3544405E-006  0.9537287E+02  0.7546771E-02  0.1290419E+00
         21   -1    0    0  501  502  0.00000000000E+00  0.00000000000E+00  0.30158018383E+02  0.30158018383E+02  0.00000000000E+00 0. -1.
          1   -1    0    0  503    0 -0.00000000000E+00 -0.00000000000E+00 -0.75025806400E+03  0.75025806400E+03  0.00000000000E+00 0. -1.
         23    2    1    2    0    0 -0.13279681644E+01  0.15720523885E+02 -0.36856409012E+03  0.38034646586E+03  0.92601550754E+02 0.  0.
         23    2    1    2    0    0  0.13526200664E+02 -0.16463560449E+02 -0.20476916629E+03  0.22568128985E+03  0.92453373089E+02 0.  0.
        -11    1    3    3    0    0 -0.42700320480E+02  0.18150041086E+02 -0.12607951769E+03  0.13434577083E+03  0.00000000000E+00 0.  1.
         11    1    3    3    0    0  0.41372352316E+02 -0.24295172012E+01 -0.24248457243E+03  0.24600069503E+03  0.00000000000E+00 0. -1.
        -13    1    4    4    0    0  0.41372869096E+02  0.21718264593E+02 -0.86376904487E+02  0.98205737831E+02  0.00000000000E+00 0. -1.
         13    1    4    4    0    0 -0.27846668431E+02 -0.38181825041E+02 -0.11839226180E+03  0.12747555201E+03  0.00000000000E+00 0.  1.
         21    1    1    2  503  502 -0.10868688842E+02  0.22038998714E+02 -0.15070093430E+03  0.15269124880E+03  0.00000000000E+00 0.  1.
          1    1    1    2  501    0 -0.13295436582E+01 -0.21295962150E+02  0.39341450977E+01  0.21697077865E+02  0.00000000000E+00 0. -1.
<scales pt_clust_5="13000.00000" pt_clust_6="13000.00000" pt_clust_7="13000.00000" pt_clust_8="13000.00000" pt_clust_9="23.51891" pt_clust_10="21.33742"></scales>
<clustering>
<clus scale="   21.337">  1 10  2 -1</clus>
<clus scale="   23.519">  2  9  1 -1</clus>
<clus scale="   92.453">  7  8 -1 -1</clus>
<clus scale="   92.602">  5  6 -1 -1</clus>
<clus scale="   95.229">  1  7  2 -1</clus>
<clus scale="   21.337">  1  5  2 -1</clus>
</clustering>
</event>
<event>
10    2  0.3544405E-006  0.1262720E+03  0.7546771E-02  0.1233527E+00
          1   -1    0    0  503    0 -0.00000000000E+00  0.00000000000E+00  0.50527832634E+03  0.50527832634E+03  0.00000000000E+00 0. -1.
         21   -1    0    0  501  502  0.00000000000E+00 -0.00000000000E+00 -0.20498966734E+03  0.20498966734E+03  0.00000000000E+00 0. -1.
         23    2    1    2    0    0  0.78028280268E+02 -0.83384862238E+02  0.32641424041E+03  0.35748334440E+03  0.90590492936E+02 0.  0.
         23    2    1    2    0    0 -0.13825396712E+02  0.70863656413E+02  0.10709115807E+03  0.15686663813E+03  0.89027111745E+02 0.  0.
        -11    1    3    3    0    0  0.89229282287E+02 -0.36721589051E+02  0.19467052958E+03  0.21727161574E+03  0.00000000000E+00 0.  1.
         11    1    3    3    0    0 -0.11201002019E+02 -0.46663273187E+02  0.13174371083E+03  0.14021172866E+03  0.00000000000E+00 0. -1.
        -11    1    4    4    0    0  0.18378859730E+02  0.60648867850E+02  0.25054614563E+02  0.68145442748E+02  0.00000000000E+00 0.  1.
         11    1    4    4    0    0 -0.32204256442E+02  0.10214788562E+02  0.82036543512E+02  0.88721195380E+02  0.00000000000E+00 0. -1.
         21    1    1    2  503  502 -0.25461714504E+02  0.87583296407E+01  0.22698985381E+02  0.35217200072E+02  0.00000000000E+00 0. -1.
          1    1    1    2  501    0 -0.38741169052E+02  0.37628761842E+01 -0.15591572487E+03  0.16070081107E+03  0.00000000000E+00 0. -1.
<scales pt_clust_5="13000.00000" pt_clust_6="13000.00000" pt_clust_7="13000.00000" pt_clust_8="13000.00000" pt_clust_9="26.92596" pt_clust_10="39.05504"></scales>
<clustering>
<clus scale="   26.926">  1  9  2 -1</clus>
<clus scale="   39.055">  2 10  1 -1</clus>
<clus scale="   89.027">  7  8 -1 -1</clus>
<clus scale="   90.590">  5  6 -1 -1</clus>
<clus scale="  125.155">  2  7  1 -1</clus>
<clus scale="   39.055">  2  5  1 -1</clus>
</clustering>
</event>
<event>
10    2  0.3544405E-006  0.1135393E+03  0.7546771E-02  0.1254435E+00
         21   -1    0    0  503  502  0.00000000000E+00  0.00000000000E+00  0.13179426843E+03  0.13179426843E+03  0.00000000000E+00 0.  1.
         -1   -1    0    0    0  501 -0.00000000000E+00 -0.00000000000E+00 -0.22279132400E+03  0.22279132400E+03  0.00000000000E+00 0.  1.
         23    2    1    2    0    0 -0.27874913438E+02 -0.53090521171E+02 -0.12663803688E+03  0.16816593948E+03  0.92989120762E+02 0.  0.
         23    2    1    2    0    0  0.20388766326E+02  0.49959282444E+02  0.64015734706E+02  0.12569904988E+03  0.93758227139E+02 0.  0.
        -11    1    3    3    0    0 -0.41997491838E+02 -0.23290213581E+02 -0.12637024024E+03  0.13518750307E+03  0.00000000000E+00 0.  1.
         11    1    3    3    0    0  0.14122578400E+02 -0.29800307590E+02 -0.26779664423E+00  0.32978436412E+02  0.00000000000E+00 0. -1.
        -13    1    4    4    0    0  0.56218933052E+02  0.20759889260E+02  0.47997480226E+02  0.76780854017E+02  0.00000000000E+00 0.  1.
         13    1    4    4    0    0 -0.35830166726E+02  0.29199393184E+02  0.16018254480E+02  0.48918195863E+02  0.00000000000E+00 0. -1.
         21    1    1    2  503  501  0.18907889808E+02 -0.17150621477E+02 -0.27363117857E+02  0.37421816270E+02  0.00000000000E+00 0.  1.
         -1    1    1    2    0  502 -0.11421742697E+02  0.20281860204E+02 -0.10116355404E+01  0.23298786793E+02  0.00000000000E+00 0.  1.
<scales pt_clust_5="13000.00000" pt_clust_6="13000.00000" pt_clust_7="13000.00000" pt_clust_8="13000.00000" pt_clust_9="24.60871" pt_clust_10="23.27681"></scales>
<clustering>
<clus scale="   23.277">  1 10  2 -1</clus>
<clus scale="   24.609">  2  9  1 -1</clus>
<clus scale="   92.989">  5  6 -1 -1</clus>
<clus scale="   93.758">  7  8 -1 -1</clus>
<clus scale="  112.905">  2  5  1 -1</clus>
<clus scale="   23.277">  1  5  2 -1</clus>
</clustering>
</event>
<event>
10    2  0.3544405E-006  0.1309119E+03  0.7546771E-02  0.1226127E+00
         21   -1    0    0  501  502  0.00000000000E+00  0.00000000000E+00  0.94119434825E+02  0.94119434825E+02  0.00000000000E+00 0. -1.
          1   -1    0    0  503    0 -0.00000000000E+00 -0.00000000000E+00 -0.70118767669E+03  0.70118767669E+03  0.00000000000E+00 0. -1.
         23    2    1    2    0    0 -0.20983914503E+01  0.10000936750E+03 -0.45732541133E+03  0.47701650788E+03  0.91607533010E+02 0.  0.
         23    2    1    2    0    0  0.16663152466E+02 -0.45669299272E+02 -0.76022319693E+02  0.12853812495E+03  0.91538576180E+02 0.  0.
        -13    1    3    3    0    0  0.18553847583E+02  0.73484414600E+02 -0.42000309387E+03  0.42678660160E+03  0.00000000000E+00 0. -1.
         13    1    3    3    0    0 -0.20652239034E+02  0.26524952902E+02 -0.37322317463E+02  0.50229906275E+02  0.00000000000E+00 0.  1.
        -13    1    4    4    0    0 -0.16923092751E+02 -0.50421082622E+02 -0.97251671088E+01  0.54067138969E+02  0.00000000000E+00 0.  1.
         13    1    4    4    0    0  0.33586245217E+02  0.47517833497E+01 -0.66297152584E+02  0.74470985985E+02  0.00000000000E+00 0. -1.
         21    1    1    2  503  502  0.22923005097E+02  0.33515105218E+02 -0.84379237160E+02  0.93640707517E+02  0.00000000000E+00 0.  1.
          1    1    1    2  501    0 -0.37487766113E+02 -0.87855173448E+02  0.10658726321E+02  0.96111771165E+02  0.00000000000E+00 0. -1.
<scales pt_clust_5="13000.00000" pt_clust_6="13000.00000" pt_clust_7="13000.00000" pt_clust_8="13000.00000" pt_clust_9="40.60451" pt_clust_10="92.74118"></scales>
<clustering>
<clus scale="   40.605">  2  9  1 -1</clus>
<clus scale="   91.539">  7  8 -1 -1</clus>
<clus scale="   91.608">  5  6 -1 -1</clus>
<clus scale="   92.741">  1 10  2 -1</clus>
<clus scale="  130.864">  1  7  2 -1</clus>
<clus scale="   92.741">  1  5  2 -1</clus>
</clustering>
</event>
<event>
10    2  0.3544405E-006  0.9565499E+02  0.7546771E-02  0.1289924E+00
          1   -1    0    0  503    0 -0.00000000000E+00  0.00000000000E+00  0.18832862084E+03  0.18832862084E+03  0.00000000000E+00 0. -1.
         21   -1    0    0  501  502  0.00000000000E+00 -0.00000000000E+00 -0.18075090713E+03  0.18075090713E+03  0.00000000000E+00 0. -1.
         23    2    1    2    0    0 -0.54926376872E+02 -0.14227492485E+02  0.46839377603E+02  0.11705500680E+03  0.91041852480E+02 0.  0.
         23    2    1    2    0    0 -0.16825209726E+02 -0.64970843692E+02 -0.21434993389E+02  0.11479707133E+03  0.90634488100E+02 0.  0.
        -11    1    3    3    0    0  0.91671320312E+01 -0.36347305698E+02  0.61694575249E+01  0.37989803202E+02  0.00000000000E+00 0.  1.
         11    1    3    3    0    0 -0.64093508904E+02  0.22119813213E+02  0.40669920079E+02  0.79065203594E+02  0.00000000000E+00 0. -1.
        -11    1    4    4    0    0  0.29726891673E+02 -0.24318734960E+02 -0.34500736469E+02  0.51627413023E+02  0.00000000000E+00 0.  1.
         11    1    4    4    0    0 -0.46552101399E+02 -0.40652108732E+02  0.13065743080E+02  0.63169658312E+02  0.00000000000E+00 0. -1.
         21    1    1    2  503  502  0.28063256759E+02  0.19943978822E+02  0.33061627623E+02  0.47732377819E+02  0.00000000000E+00 0. -1.
          1    1    1    2  501    0  0.43688329840E+02  0.59254357355E+02 -0.50888298133E+02  0.89495072024E+02  0.00000000000E+00 0. -1.
<scales pt_clust_5="13000.00000" pt_clust_6="13000.00000" pt_clust_7="13000.00000" pt_clust_8="13000.00000" pt_clust_9="34.42831" pt_clust_10="77.89938"></scales>
<clustering>
<clus scale="   34.428">  1  9  2 -1</clus>
<clus scale="   77.899">  2 10  1 -1</clus>
<clus scale="   90.634">  7  8 -1 -1</clus>
<clus scale="   91.042">  5  6 -1 -1</clus>
<clus scale="   95.267">  2  7  1 -1</clus>
<clus scale="   77.899">  2  5  1 -1</clus>
</clustering>
</event>
<event>
10    2  0.3544405E-006  0.1262241E+03  0.7546771E-02  0.1267082E+00
         21   -1    0    0  503  502  0.00000000000E+00  0.00000000000E+00  0.10120213024E+03  0.10120213024E+03  0.00000000000E+00 0. -1.
         -1   -1    0    0    0  501 -0.00000000000E+00 -0.00000000000E+00 -0.51847449658E+03  0.51847449658E+03  0.00000000000E+00 0.  1.
         23    2    1    2    0    0  0.43069301468E+01 -0.10610617401E+02 -0.84745954924E+02  0.10532210116E+03  0.61479535359E+02 0.  0.
         23    2    1    2    0    0  0.79800479329E+02  0.85582552160E+01 -0.33717225322E+03  0.35818911981E+03  0.90404407934E+02 0.  0.
        -11    1    3    3    0    0  0.15812889550E+02 -0.33345721032E+02 -0.53691250721E+02  0.65151630762E+02  0.00000000000E+00 0.  1.
         11    1    3    3    0    0 -0.11505959403E+02  0.22735103631E+02 -0.31054704203E+02  0.40170470398E+02  0.00000000000E+00 0. -1.
        -11    1    4    4    0    0  0.40387938007E+02 -0.38075329521E+02 -0.11368951433E+03  0.12651569833E+03  0.00000000000E+00 0. -1.
         11    1    4    4    0    0  0.39412541322E+02  0.46633584737E+02 -0.22348273889E+03  0.23167342148E+03  0.00000000000E+00 0.  1.
         21    1    1    2  503  501 -0.96193650483E+02  0.41879298295E+02 -0.21389131558E+02  0.10707282086E+03  0.00000000000E+00 0. -1.
         -1    1    1    2    0  502  0.12086241007E+02 -0.39826936110E+02  0.26034973368E+02  0.49092584978E+02  0.00000000000E+00 0.  1.
<scales pt_clust_5="13000.00000" pt_clust_6="13000.00000" pt_clust_7="13000.00000" pt_clust_8="13000.00000" pt_clust_9="88.08837" pt_clust_10="41.62045"></scales>
<clustering>
<clus scale="   41.620">  1 10  2 -1</clus>
<clus scale="   61.480">  5  6 -1 -1</clus>
<clus scale="   64.106">  2  5  1 -1</clus>
<clus scale="   88.088">  1  9  2 -1</clus>
<clus scale="   90.404">  7  8 -1 -1</clus>
<clus scale="   41.620">  1  5  2 -1</clus>
</clustering>
</event>
<event>
10    2  0.3544405E-006  0.9787566E+02  0.7546771E-02  0.1287190E+00
          2   -1    0    0  503    0 -0.00000000000E+00  0.00000000000E+00  0.45259988174E+03  0.45259988174E+03  0.00000000000E+00 0. -1.
         21   -1    0    0  501  502  0.00000000000E+00 -0.00000000000E+00 -0.77193715051E+02  0.77193715051E+02  0.00000000000E+00 0. -1.
         23    2    1    2    0    0 -0.14595053535E+02 -0.16132451950E+01  0.23785854793E+03  0.25491877734E+03  0.90505668730E+02 0.  0.
         23    2    1    2    0    0  0.12151939928E+02  0.55694866492E+02  0.10385335588E+02  0.11119815178E+03  0.94908302943E+02 0.  0.
        -13    1    3    3    0    0  0.20394420219E+02 -0.36488483316E+02  0.96061596011E+02  0.10476245520E+03  0.00000000000E+00 0. -1.
         13    1    3    3    0    0 -0.34989473754E+02  0.34875238121E+02  0.14179695192E+03  0.15015632215E+03  0.00000000000E+00 0.  1.
        -13    1    4    4    0    0 -0.32183565407E+02 -0.35884772679E+01  0.17534832603E+02  0.36825662327E+02  0.00000000000E+00 0.  1.
         13    1    4    4    0    0  0.44335505335E+02  0.59283343760E+02 -0.71494970149E+01  0.74372489458E+02  0.00000000000E+00 0. -1.
         21    1    1    2  503  502  0.86988387873E+01 -0.19428873349E+02  0.12668449238E+03  0.12846054462E+03  0.00000000000E+00 0. -1.
          2    1    1    2  501    0 -0.62557251799E+01 -0.34652747948E+02  0.47779079533E+00  0.35216123039E+02  0.00000000000E+00 0. -1.
<scales pt_clust_5="13000.00000" pt_clust_6="13000.00000" pt_clust_7="13000.00000" pt_clust_8="13000.00000" pt_clust_9="21.28734" pt_clust_10="36.18389"></scales>
<clustering>
<clus scale="   21.287">  1  9  2 -1</clus>
<clus scale="   36.184">  2 10  1 -1</clus>
<clus scale="   90.506">  5  6 -1 -1</clus>
<clus scale="   93.613">  1  5  2 -1</clus>
<clus scale="   94.908">  7  8 -1 -1</clus>
<clus scale="   36.184">  2  5  1 -1</clus>
</clustering>
</event>
<event>
10    2  0.3544405E-006  0.9229361E+02  0.7546771E-02  0.1299357E+00
          4   -1    0    0  503    0 -0.00000000000E+00  0.00000000000E+00  0.12557663334E+03  0.12557663334E+03  0.00000000000E+00 0. -1.
         21   -1    0    0  501  502  0.00000000000E+00 -0.00000000000E+00 -0.27315675855E+03  0.27315675855E+03  0.00000000000E+00 0.  1.
         23    2    1    2    0    0 -0.19581600707E+02  0.21041268042E+02 -0.86551419127E+02  0.12839824395E+03  0.90381341267E+02 0.  0.
         23    2    1    2    0    0  0.71251277744E+01 -0.29800219571E+01 -0.97363851221E+02  0.13080864193E+03  0.87014557992E+02 0.  0.
        -11    1    3    3    0    0 -0.11604724830E+02  0.53671301888E+02 -0.74840483862E+02  0.92824438104E+02  0.00000000000E+00 0. -1.
         11    1    3    3    0    0 -0.79768758766E+01 -0.32630033845E+02 -0.11710935266E+02  0.35573805845E+02  0.00000000000E+00 0.  1.
        -13    1    4    4    0    0 -0.20810620237E+02 -0.31022256832E+01  0.74616819164E+01  0.22324480192E+02  0.00000000000E+00 0. -1.
         13    1    4    4    0    0  0.27935748011E+02  0.12220372608E+00 -0.10482553314E+03  0.10848416174E+03  0.00000000000E+00 0.  1.
         21    1    1    2  503  502  0.13643042748E+01  0.24946888000E+02  0.75985517502E+02  0.79987545387E+02  0.00000000000E+00 0. -1.
          4    1    1    2  501    0  0.11092168657E+02 -0.43008134085E+02 -0.39650372368E+02  0.59538960622E+02  0.00000000000E+00 0. -1.
<scales pt_clust_5="13000.00000" pt_clust_6="13000.00000" pt_clust_7="13000.00000" pt_clust_8="13000.00000" pt_clust_9="24.98417" pt_clust_10="39.47060"></scales>
<clustering>
<clus scale="   24.984">  1  9  2 -1</clus>
<clus scale="   39.471">  2 10  1 -1</clus>
<clus scale="   87.015">  7  8 -1 -1</clus>
<clus scale="   88.999">  2  7  1 -1</clus>
<clus scale="   90.381">  5  6 -1 -1</clus>
<clus scale="   39.471">  2  5  1 -1</clus>
</clustering>
</event>
<event>
10    2  0.3544405E-006  0.1593131E+03  0.7546771E-02  0.1189559E+00
          2   -1    0    0  503    0 -0.00000000000E+00  0.00000000000E+00  0.30615736850E+03  0.30615736850E+03  0.00000000000E+00 0. -1.
         21   -1    0    0  501  502  0.00000000000E+00 -0.00000000000E+00 -0.18910972652E+03  0.18910972652E+03  0.00000000000E+00 0.  1.
         23    2    1    2    0    0  0.11050042423E+03  0.88062628530E+02  0.10582469305E+03  0.19881689315E+03  0.91454475250E+02 0.  0.
         23    2    1    2    0    0 -0.71837731485E+02 -0.90513039009E+02 -0.18501434196E+02  0.14884334025E+03  0.91971555239E+02 0.  0.
        -11    1    3    3    0    0  0.33459896864E+02 -0.15286063646E+02  0.97738123325E+01  0.38062525500E+02  0.00000000000E+00 0.  1.
         11    1    3    3    0    0  0.77040527369E+02  0.10334869218E+03  0.96050880721E+02  0.16075436765E+03  0.00000000000E+00 0. -1.
        -11    1    4    4    0    0  0.13127936486E+02 -0.26950794902E+02  0.19918384407E+02  0.35992083846E+02  0.00000000000E+00 0. -1.
         11    1    4    4    0    0 -0.84965667971E+02 -0.63562244107E+02 -0.38419818604E+02  0.11285125640E+03  0.00000000000E+00 0.  1.
         21    1    1    2  503  502 -0.20941820681E+02  0.15613527512E+02  0.84555754440E+02  0.88498687582E+02  0.00000000000E+00 0.  1.
          2    1    1    2  501    0 -0.17720872067E+02 -0.13163117034E+02 -0.54831371323E+02  0.59108174037E+02  0.00000000000E+00 0. -1.
<scales pt_clust_5="13000.00000" pt_clust_6="13000.00000" pt_clust_7="13000.00000" pt_clust_8="13000.00000" pt_clust_9="26.21815" pt_clust_10="22.07480"></scales>
<clustering>
<clus scale="   22.075">  2 10  1 -1</clus>
<clus scale="   26.218">  1  9  2 -1</clus>
<clus scale="   91.454">  5  6 -1 -1</clus>
<clus scale="   91.972">  7  8 -1 -1</clus>
<clus scale="  159.015">  1  5  2 -1</clus>
<clus scale="   22.075">  2  5  1 -1</clus>
</clustering>
</event>
<event>
10    2  0.3544405E-006  0.1053828E+03  0.7546771E-02  0.1271166E+00
         -1   -1    0    0    0  501 -0.00000000000E+00  0.00000000000E+00  0.56029653699E+03  0.56029653699E+03  0.00000000000E+00 0.  1.
         21   -1    0    0  503  502  0.00000000000E+00 -0.00000000000E+00 -0.57197005502E+02  0.57197005502E+02  0.00000000000E+00 0.  1.
         23    2    1    2    0    0 -0.10361737157E+02  0.39600497789E+02  0.12436349269E+03  0.15707912992E+03  0.86787151812E+02 0.  0.
         23    2    1    2    0    0  0.98721743954E+02 -0.42642652234E+00  0.17521064273E+03  0.22073324923E+03  0.90984797748E+02 0.  0.
        -11    1    4    4    0    0  0.53248711970E+02  0.43361596069E+01  0.16561042535E+03  0.17401448386E+03  0.00000000000E+00 0.  1.
         11    1    4    4    0    0  0.45473031984E+02 -0.47625861292E+01  0.96002173787E+01  0.46718765375E+02  0.00000000000E+00 0. -1.
        -13    1    3    3    0    0 -0.47201497893E+02  0.27988434293E+02  0.89835835186E+02  0.10527018163E+03  0.00000000000E+00 0.  1.
         13    1    3    3    0    0  0.36839760735E+02  0.11612063497E+02  0.34527657507E+02  0.51808948287E+02  0.00000000000E+00 0. -1.
         21    1    1    2  503  501 -0.13105742129E+02 -0.20788664878E+02  0.13191900066E+03  0.13418849354E+03  0.00000000000E+00 0.  1.
         -1    1    1    2    0  502 -0.75254264667E+02 -0.18385406389E+02  0.71606395411E+02  0.10549266980E+03  0.00000000000E+00 0.  1.
<scales pt_clust_5="13000.00000" pt_clust_6="13000.00000" pt_clust_7="13000.00000" pt_clust_8="13000.00000" pt_clust_9="24.57497" pt_clust_10="81.20605"></scales>
<clustering>
<clus scale="   24.575">  1  9  2 -1</clus>
<clus scale="   81.206">  2 10  1 -1</clus>
<clus scale="   86.787">  7  8 -1 -1</clus>
<clus scale="   90.985">  5  6 -1 -1</clus>
<clus scale="  101.781">  1  7  2 -1</clus>
<clus scale="   81.206">  2  5  1 -1</clus>
</clustering>
</event>
<event>
10    2  0.3544405E-006  0.4361480E+03  0.7546771E-02  0.1075625E+00
         21   -1    0    0  501  502  0.00000000000E+00  0.00000000000E+00  0.27519446921E+03  0.27519446921E+03  0.00000000000E+00 0. -1.
          1   -1    0    0  503    0 -0.00000000000E+00 -0.00000000000E+00 -0.12329682863E+04  0.12329682863E+04  0.00000000000E+00 0. -1.
         23    2    1    2    0    0  0.60080480183E+02  0.67625317508E+02 -0.59005201578E+02  0.13826929119E+03  0.86336176699E+02 0.  0.
         23    2    1    2    0    0 -0.45796886054E+03 -0.17806251191E+03 -0.60378191805E+03  0.78365344608E+03  0.90102073406E+02 0.  0.
        -13    1    3    3    0    0  0.37380478691E+02 -0.12058358239E+01 -0.53909851585E+02  0.65612699420E+02  0.00000000000E+00 0. -1.
         13    1    3    3    0    0  0.22700001492E+02  0.68831153332E+02 -0.50953499933E+01  0.72656591775E+02  0.00000000000E+00 0.  1.
        -13    1    4    4    0    0 -0.64685204831E+02 -0.28256697912E+02 -0.43487066700E+02  0.82908031403E+02  0.00000000000E+00 0.  1.
         13    1    4    4    0    0 -0.39328365570E+03 -0.14980581400E+03 -0.56029485135E+03  0.70074541468E+03  0.00000000000E+00 0. -1.
         21    1    1    2  503  502  0.50595900942E+01  0.23824228515E+02 -0.16013187766E+03  0.16197349029E+03  0.00000000000E+00 0. -1.
          1    1    1    2  501    0  0.39282879026E+03  0.86612965889E+02 -0.13485481984E+03  0.42426652796E+03  0.00000000000E+00 0. -1.
<scales pt_clust_5="13000.00000" pt_clust_6="13000.00000" pt_clust_7="13000.00000" pt_clust_8="13000.00000" pt_clust_9="24.35556" pt_clust_10="426.73959"></scales>
<clustering>
<clus scale="   24.356">  2  9  1 -1</clus>
<clus scale="   86.336">  5  6 -1 -1</clus>
<clus scale="   90.102">  7  8 -1 -1</clus>
<clus scale="  126.468">  2  5  1 -1</clus>
<clus scale="  426.740">  1 10  2 -1</clus>
<clus scale="  426.740">  1  5  2 -1</clus>
</clustering>
</event>
<event>
10    2  0.3544405E-006  0.1515042E+03  0.7546771E-02  0.1198688E+00
          1   -1    0    0  503    0 -0.00000000000E+00  0.00000000000E+00  0.36776480833E+03  0.36776480833E+03  0.00000000000E+00 0. -1.
         21   -1    0    0  501  502  0.00000000000E+00 -0.00000000000E+00 -0.22453634388E+03  0.22453634388E+03  0.00000000000E+00 0. -1.
         23    2    1    2    0    0  0.48287363635E+02  0.79419711750E+02  0.16491227601E+02  0.13105720867E+03  0.90911337329E+02 0.  0.
         23    2    1    2    0    0 -0.17440501038E+02 -0.19173464004E+03 -0.50243986019E+02  0.21887664467E+03  0.91193114759E+02 0.  0.
        -11    1    3    3    0    0  0.30842526625E+02  0.46955912800E+02 -0.36144248143E+02  0.66802139706E+02  0.00000000000E+00 0.  1.
         11    1    3    3    0    0  0.17444837009E+02  0.32463798950E+02  0.52635475744E+02  0.64255068962E+02  0.00000000000E+00 0. -1.
        -13    1    4    4    0    0 -0.18302520937E+02 -0.11688498113E+03  0.15410822462E+02  0.11930873621E+03  0.00000000000E+00 0.  1.
         13    1    4    4    0    0  0.86201989903E+00 -0.74849658913E+02 -0.65654808481E+02  0.99567908456E+02  0.00000000000E+00 0. -1.
         21    1    1    2  503  502 -0.20018979687E+02  0.12332632398E+02  0.12866536047E+03  0.13079613280E+03  0.00000000000E+00 0. -1.
          1    1    1    2  501    0 -0.10827882910E+02  0.99982295897E+02  0.48315862398E+02  0.11157116608E+03  0.00000000000E+00 0. -1.
<scales pt_clust_5="13000.00000" pt_clust_6="13000.00000" pt_clust_7="13000.00000" pt_clust_8="13000.00000" pt_clust_9="23.51283" pt_clust_10="105.59311"></scales>
<clustering>
<clus scale="   23.513">  1  9  2 -1</clus>
<clus scale="   90.911">  5  6 -1 -1</clus>
<clus scale="   91.193">  7  8 -1 -1</clus>
<clus scale="  105.593">  2 10  1 -1</clus>
<clus scale="  151.335">  1  5  2 -1</clus>
<clus scale="  105.593">  2  5  1 -1</clus>
</clustering>
</event>
<event>
10    2  0.4276558E-006  0.1166592E+03  0.7546771E-02  0.1249306E+00
         21   -1    0    0  501  502  0.00000000000E+00  0.00000000000E+00  0.23875195471E+03  0.23875195471E+03  0.00000000000E+00 0.  1.
          1   -1    0    0  503    0 -0.00000000000E+00 -0.00000000000E+00 -0.31023568040E+03  0.31023568040E+03  0.00000000000E+00 0. -1.
         23    2    1    2    0    0 -0.37092576904E+02 -0.89889452035E+02 -0.22919908616E+03  0.26489668073E+03  0.90454726330E+02 0.  0.
         23    2    1    2    0    0  0.17476117943E+02  0.80293077377E+02  0.17682317440E+03  0.21568604741E+03  0.92204354929E+02 0.  0.
        -13    1    4    4    0    0  0.26515515113E+02  0.16832751088E+01  0.10669870394E+03  0.10995689783E+03  0.00000000000E+00 0.  1.
         13    1    4    4    0    0 -0.90393971698E+01  0.78609802268E+02  0.70124470459E+02  0.10572914958E+03  0.00000000000E+00 0. -1.
        -13    1    3    3    0    0 -0.33394738423E+02  0.12088220091E+01 -0.26541587079E+02  0.42674648794E+02  0.00000000000E+00 0.  1.
         13    1    3    3    0    0 -0.36978384809E+01 -0.91098274044E+02 -0.20265749908E+03  0.22222203194E+03  0.00000000000E+00 0. -1.
         21    1    1    2  503  502  0.80265534953E+01  0.28903230532E+02 -0.30832419070E+02  0.43016977601E+02  0.00000000000E+00 0. -1.
          1    1    1    2  501    0  0.11589905465E+02 -0.19306855874E+02  0.11724605143E+02  0.25387929380E+02  0.00000000000E+00 0. -1.
<scales pt_clust_5="13000.00000" pt_clust_6="13000.00000" pt_clust_7="13000.00000" pt_clust_8="13000.00000" pt_clust_9="29.57160" pt_clust_10="22.51845"></scales>
<clustering>
<clus scale="   22.518">  1 10  2 -1</clus>
<clus scale="   29.572">  2  9  1 -1</clus>
<clus scale="   90.455">  7  8 -1 -1</clus>
<clus scale="   92.204">  5  6 -1 -1</clus>
<clus scale="  115.281">  2  7  1 -1</clus>
<clus scale="   22.518">  1  5  2 -1</clus>
</clustering>
</event>
<event>
10    2  0.3544405E-006  0.1163018E+03  0.7546771E-02  0.1249486E+00
         21   -1    0    0  501  502  0.00000000000E+00  0.00000000000E+00  0.17820659241E+03  0.17820659241E+03  0.00000000000E+00 0.  1.
          1   -1    0    0  503    0 -0.00000000000E+00 -0.00000000000E+00 -0.44327807975E+03  0.44327807975E+03  0.00000000000E+00 0. -1.
         23    2    1    2    0    0 -0.85517122479E+01 -0.47014285056E+02 -0.89240312468E+02  0.13701607867E+03  0.92336870553E+02 0.  0.
         23    2    1    2    0    0 -0.36277161047E+02  0.94043598839E+02  0.10481017071E+03  0.17200259726E+03  0.91866700613E+02 0.  0.
        -13    1    4    4    0    0  0.23681331278E+02  0.67231488878E+00  0.88160292820E+01  0.25278050374E+02  0.00000000000E+00 0. -1.
         13    1    4    4    0    0 -0.59958492325E+02  0.93371283950E+02  0.95994141432E+02  0.14672454688E+03  0.00000000000E+00 0.  1.
        -13    1    3    3    0    0  0.20345335396E+02  0.70425745773E+01 -0.69286046470E+02  0.72554026522E+02  0.00000000000E+00 0.  1.
         13    1    3    3    0    0 -0.28897047643E+02 -0.54056859633E+02 -0.19954265997E+02  0.64462052150E+02  0.00000000000E+00 0. -1.
         21    1    1    2  503  502  0.28492314771E+02 -0.24455897649E+02 -0.28207618628E+03  0.28456436494E+03  0.00000000000E+00 0. -1.
          1    1    1    2  501    0  0.16336558524E+02 -0.22573416134E+02  0.14348406908E+01  0.27901631282E+02  0.00000000000E+00 0. -1.
<scales pt_clust_5="13000.00000" pt_clust_6="13000.00000" pt_clust_7="13000.00000" pt_clust_8="13000.00000" pt_clust_9="37.75485" pt_clust_10="27.86471"></scales>
<clustering>
<clus scale="   27.865">  1 10  2 -1</clus>
<clus scale="   37.755">  2  9  1 -1</clus>
<clus scale="   91.867">  5  6 -1 -1</clus>
<clus scale="   92.337">  7  8 -1 -1</clus>
<clus scale="  115.929">  1  5  2 -1</clus>
<clus scale="   27.865">  1  5  2 -1</clus>
</clustering>
</event>
<event>
10    2  0.3544405E-006  0.1449750E+03  0.7546771E-02  0.1206822E+00
         21   -1    0    0  501  502  0.00000000000E+00  0.00000000000E+00  0.67437564551E+03  0.67437564551E+03  0.00000000000E+00 0. -1.
          1   -1    0    0  503    0 -0.00000000000E+00 -0.00000000000E+00 -0.75115439490E+02  0.75115439490E+02  0.00000000000E+00 0. -1.
         23    2    1    2    0    0  0.40311490797E+02 -0.70565012764E+02  0.65391186573E+02  0.13883823200E+03  0.91627561715E+02 0.  0.
         23    2    1    2    0    0 -0.11024890140E+03  0.70702928203E+02  0.34294154352E+03  0.37840407940E+03  0.91798805636E+02 0.  0.
        -11    1    4    4    0    0 -0.26171282084E+02  0.67170001326E+02  0.19918021557E+03  0.21182422751E+03  0.00000000000E+00 0.  1.
         11    1    4    4    0    0 -0.84077619314E+02  0.35329268774E+01  0.14376132795E+03  0.16657985189E+03  0.00000000000E+00 0. -1.
        -13    1    3    3    0    0  0.61697716358E+02 -0.47528219846E+02  0.72728525425E+02  0.10655974050E+03  0.00000000000E+00 0.  1.
         13    1    3    3    0    0 -0.21386225561E+02 -0.23036792917E+02 -0.73373388520E+01  0.32278491493E+02  0.00000000000E+00 0. -1.
         21    1    1    2  503  502  0.34481637940E+02 -0.42977547506E+02  0.31651251686E+02  0.63544115998E+02  0.00000000000E+00 0.  1.
          1    1    1    2  501    0  0.35455772660E+02  0.42839632066E+02  0.15927622424E+03  0.16870465761E+03  0.00000000000E+00 0. -1.
<scales pt_clust_5="13000.00000" pt_clust_6="13000.00000" pt_clust_7="13000.00000" pt_clust_8="13000.00000" pt_clust_9="55.10039" pt_clust_10="54.89127"></scales>
<clustering>
<clus scale="   55.100">  2  9  1 -1</clus>
<clus scale="   54.891">  1 10  2 -1</clus>
<clus scale="   91.628">  7  8 -1 -1</clus>
<clus scale="   91.799">  5  6 -1 -1</clus>
<clus scale="  144.867">  2  7  1 -1</clus>
<clus scale="   54.891">  1  5  2 -1</clus>
</clustering>
</event>
<event>
10    2  0.3544405E-006  0.9899723E+02  0.7546771E-02  0.1284169E+00
         21   -1    0    0  501  502  0.00000000000E+00  0.00000000000E+00  0.42362064085E+03  0.42362064085E+03  0.00000000000E+00 0. -1.
          1   -1    0    0  503    0 -0.00000000000E+00 -0.00000000000E+00 -0.10804673260E+03  0.10804673260E+03  0.00000000000E+00 0. -1.
         23    2    1    2    0    0  0.20963073729E+02 -0.19552042042E+02  0.30809347392E+02  0.99170363398E+02  0.89798732071E+02 0.  0.
         23    2    1    2    0    0  0.66005803002E+02  0.30168709483E+02  0.83249822616E+02  0.14453255127E+03  0.93232013548E+02 0.  0.
        -11    1    4    4    0    0  0.55425624419E+02  0.73217980300E+01 -0.16970881861E+01  0.55932894409E+02  0.00000000000E+00 0. -1.
         11    1    4    4    0    0  0.10580178583E+02  0.22846911453E+02  0.84946910802E+02  0.88599656865E+02  0.00000000000E+00 0.  1.
        -13    1    3    3    0    0 -0.21682851824E+02  0.55087766344E+01 -0.18720390661E+02  0.29170973754E+02  0.00000000000E+00 0.  1.
         13    1    3    3    0    0  0.42645925553E+02 -0.25060818676E+02  0.49529738053E+02  0.69999389644E+02  0.00000000000E+00 0. -1.
         21    1    1    2  503  502 -0.26934665826E+02 -0.35816695869E+02 -0.25662140285E+02  0.51641624395E+02  0.00000000000E+00 0. -1.
          1    1    1    2  501    0 -0.60034210905E+02  0.25200028428E+02  0.22717687853E+03  0.23632283438E+03  0.00000000000E+00 0. -1.
<scales pt_clust_5="13000.00000" pt_clust_6="13000.00000" pt_clust_7="13000.00000" pt_clust_8="13000.00000" pt_clust_9="44.81419" pt_clust_10="65.89406"></scales>
<clustering>
<clus scale="   44.814">  2  9  1 -1</clus>
<clus scale="   65.894">  1 10  2 -1</clus>
<clus scale="   89.799">  7  8 -1 -1</clus>
<clus scale="   93.232">  5  6 -1 -1</clus>
<clus scale="   95.771">  2  7  1 -1</clus>
<clus scale="   65.894">  1  5  2 -1</clus>
</clustering>
</event>
<event>
10    2  0.3544405E-006  0.1495521E+03  0.7546771E-02  0.1218422E+00
          2   -1    0    0  503    0 -0.00000000000E+00  0.00000000000E+00  0.71300473526E+03  0.71300473526E+03  0.00000000000E+00 0. -1.
         21   -1    0    0  501  502  0.00000000000E+00 -0.00000000000E+00 -0.10049914290E+03  0.10049914290E+03  0.00000000000E+00 0.  1.
         23    2    1    2    0    0 -0.56841133261E+02  0.90698600389E+01  0.56121159202E+02  0.11896711986E+03  0.87695007299E+02 0.  0.
         23    2    1    2    0    0 -0.43623007957E+02 -0.80090015076E+02  0.45608728203E+03  0.47349206183E+03  0.88666489977E+02 0.  0.
        -13    1    3    3    0    0 -0.41089207291E+02  0.47405781431E+02  0.40517040056E+02  0.74681065899E+02  0.00000000000E+00 0. -1.
         13    1    3    3    0    0 -0.15751925970E+02 -0.38335921393E+02  0.15604119146E+02  0.44286053957E+02  0.00000000000E+00 0.  1.
        -13    1    4    4    0    0  0.23527570019E+02 -0.63921945535E+01  0.54353378396E+02  0.59570936246E+02  0.00000000000E+00 0. -1.
         13    1    4    4    0    0 -0.67150577976E+02 -0.73697820522E+02  0.40173390364E+03  0.41392112558E+03  0.00000000000E+00 0.  1.
         21    1    1    2  503  502  0.20271152017E+02 -0.24770944349E+02  0.90198982686E+02  0.95709851978E+02  0.00000000000E+00 0. -1.
          2    1    1    2  501    0  0.80192989200E+02  0.95791099386E+02  0.10098168434E+02  0.12533484449E+03  0.00000000000E+00 0. -1.
<scales pt_clust_5="13000.00000" pt_clust_6="13000.00000" pt_clust_7="13000.00000" pt_clust_8="13000.00000" pt_clust_9="32.00811" pt_clust_10="120.43287"></scales>
<clustering>
<clus scale="   32.008">  1  9  2 -1</clus>
<clus scale="   87.695">  5  6 -1 -1</clus>
<clus scale="   88.666">  7  8 -1 -1</clus>
<clus scale="  103.127">  1  5  2 -1</clus>
<clus scale="  120.433">  2 10  1 -1</clus>
<clus scale="  120.433">  2  5  1 -1</clus>
</clustering>
</event>
<event>
10    2  0.3544405E-006  0.1005276E+03  0.7546771E-02  0.1279419E+00
          3   -1    0    0  503    0 -0.00000000000E+00  0.00000000000E+00  0.14644490365E+03  0.14644490365E+03  0.00000000000E+00 0. -1.
         21   -1    0    0  501  502  0.00000000000E+00 -0.00000000000E+00 -0.32334401691E+03  0.32334401691E+03  0.00000000000E+00 0. -1.
         23    2    1    2    0    0  0.35899007243E+02  0.37363491805E+01  0.46651813247E+02  0.10868016198E+03  0.91281361197E+02 0.  0.
         23    2    1    2    0    0 -0.77984181065E+02 -0.26994762952E+02 -0.59093925685E+02  0.13618717483E+03  0.90799806236E+02 0.  0.
        -11    1    3    3    0    0 -0.19661479689E+02 -0.27463560796E+02  0.10263818036E+02  0.35301089442E+02  0.00000000000E+00 0. -1.
         11    1    3    3    0    0  0.55560486931E+02  0.31199909976E+02  0.36387995211E+02  0.73379072535E+02  0.00000000000E+00 0.  1.
        -13    1    4    4    0    0 -0.95671080188E+02 -0.36692243498E+02 -0.47758328627E+02  0.11304925595E+03  0.00000000000E+00 0. -1.
         13    1    4    4    0    0  0.17686899123E+02  0.96974805465E+01 -0.11335597058E+02  0.23137918882E+02  0.00000000000E+00 0.  1.
         21    1    1    2  503  502 -0.26207774906E+02  0.24165072446E+02  0.10453459108E+02  0.37149333765E+02  0.00000000000E+00 0.  1.
          3    1    1    2  501    0  0.68292948727E+02 -0.90665867517E+00 -0.17491045993E+03  0.18777224999E+03  0.00000000000E+00 0. -1.
<scales pt_clust_5="13000.00000" pt_clust_6="13000.00000" pt_clust_7="13000.00000" pt_clust_8="13000.00000" pt_clust_9="35.64826" pt_clust_10="66.91970"></scales>
<clustering>
<clus scale="   35.648">  1  9  2 -1</clus>
<clus scale="   66.920">  2 10  1 -1</clus>
<clus scale="   90.800">  7  8 -1 -1</clus>
<clus scale="   91.281">  5  6 -1 -1</clus>
<clus scale="  100.091">  2  7  1 -1</clus>
<clus scale="   66.920">  2  5  1 -1</clus>
</clustering>
</event>
<event>
10    2  0.3544405E-006  0.1060029E+03  0.7546771E-02  0.1268946E+00
          2   -1    0    0  503    0 -0.00000000000E+00  0.00000000000E+00  0.15779062185E+04  0.15779062185E+04  0.00000000000E+00 0. -1.
         21   -1    0    0  501  502  0.00000000000E+00 -0.00000000000E+00 -0.78944642457E+02  0.78944642457E+02  0.00000000000E+00 0. -1.
         23    2    1    2    0    0  0.74536157597E+02 -0.13071521234E+02  0.59861457151E+03  0.60985672454E+03  0.88652782209E+02 0.  0.
         23    2    1    2    0    0 -0.23671270793E+02  0.58775765005E+02  0.39503450904E+03  0.41020161564E+03  0.90543815549E+02 0.  0.
        -11    1    3    3    0    0  0.24916280585E+01  0.29317620518E+02  0.98360617017E+02  0.10266714208E+03  0.00000000000E+00 0.  1.
         11    1    3    3    0    0  0.72044529538E+02 -0.42389141752E+02  0.50025395449E+03  0.50718958246E+03  0.00000000000E+00 0. -1.
        -13    1    4    4    0    0  0.15491056446E+02 -0.15354658293E+02  0.41736998191E+02  0.47092625528E+02  0.00000000000E+00 0.  1.
         13    1    4    4    0    0 -0.39162327239E+02  0.74130423299E+02  0.35329751085E+03  0.36310899012E+03  0.00000000000E+00 0. -1.
         21    1    1    2  503  502 -0.70193362203E+02 -0.30007029857E+02  0.56603691251E+03  0.57116137497E+03  0.00000000000E+00 0. -1.
          2    1    1    2  501    0  0.19328475399E+02 -0.15697213914E+02 -0.60724416976E+02  0.65631145830E+02  0.00000000000E+00 0. -1.
<scales pt_clust_5="13000.00000" pt_clust_6="13000.00000" pt_clust_7="13000.00000" pt_clust_8="13000.00000" pt_clust_9="74.53882" pt_clust_10="24.89965"></scales>
<clustering>
<clus scale="   24.900">  2 10  1 -1</clus>
<clus scale="   74.539">  1  9  2 -1</clus>
<clus scale="   88.653">  5  6 -1 -1</clus>
<clus scale="   90.544">  7  8 -1 -1</clus>
<clus scale="  104.392">  1  5  2 -1</clus>
<clus scale="   24.900">  2  5  1 -1</clus>
</clustering>
</event>
<event>
10    2  0.3544405E-006  0.1420740E+03  0.7546771E-02  0.1210983E+00
          1   -1    0    0  503    0 -0.00000000000E+00  0.00000000000E+00  0.20839085164E+03  0.20839085164E+03  0.00000000000E+00 0. -1.
         21   -1    0    0  501  502  0.00000000000E+00 -0.00000000000E+00 -0.22905540680E+03  0.22905540680E+03  0.00000000000E+00 0.  1.
         23    2    1    2    0    0 -0.46990926130E+02  0.72637131037E+02  0.34615114068E+02  0.13092782797E+03  0.91976029868E+02 0.  0.
         23    2    1    2    0    0  0.43030296395E+02 -0.14033299563E+03  0.14713591403E+02  0.17281333586E+03  0.90016682945E+02 0.  0.
        -13    1    3    3    0    0  0.16306666954E+02  0.20460019144E+02 -0.19521357449E+02  0.32643577733E+02  0.00000000000E+00 0.  1.
         13    1    3    3    0    0 -0.63297593084E+02  0.52177111893E+02  0.54136471517E+02  0.98284250234E+02  0.00000000000E+00 0. -1.
        -13    1    4    4    0    0  0.58111148606E+02 -0.11153792139E+03  0.39622223442E+02  0.13186179921E+03  0.00000000000E+00 0.  1.
         13    1    4    4    0    0 -0.15080852211E+02 -0.28795074240E+02 -0.24908632039E+02  0.40951536649E+02  0.00000000000E+00 0. -1.
         21    1    1    2  503  502 -0.21036570565E+02  0.65412263573E+02 -0.10990836316E+02  0.69585199646E+02  0.00000000000E+00 0.  1.
          1    1    1    2  501    0  0.24997200300E+02  0.22836010242E+01 -0.59002424309E+02  0.64119894969E+02  0.00000000000E+00 0. -1.
<scales pt_clust_5="13000.00000" pt_clust_6="13000.00000" pt_clust_7="13000.00000" pt_clust_8="13000.00000" pt_clust_9="67.65089" pt_clust_10="25.10129"></scales>
<clustering>
<clus scale="   25.101">  2 10  1 -1</clus>
<clus scale="   67.651">  2  9  1 -1</clus>
<clus scale="   90.017">  7  8 -1 -1</clus>
<clus scale="   91.976">  5  6 -1 -1</clus>
<clus scale="  140.813">  2  7  1 -1</clus>
<clus scale="   25.101">  2  5  1 -1</clus>
</clustering>
</event>
<event>
10    2  0.3544405E-006  0.2191177E+03  0.7546771E-02  0.1158381E+00
          2   -1    0    0  503    0 -0.00000000000E+00  0.00000000000E+00  0.41969781667E+03  0.41969781667E+03  0.00000000000E+00 0. -1.
         21   -1    0    0  501  502  0.00000000000E+00 -0.00000000000E+00 -0.29553646198E+03  0.29553646198E+03  0.00000000000E+00 0. -1.
         23    2    1    2    0    0  0.65840641564E+02 -0.44354173158E+02  0.11778637419E+03  0.16884104115E+03  0.91276417948E+02 0.  0.
         23    2    1    2    0    0  0.36799650806E+02 -0.17241237186E+03  0.10162404753E+02  0.19962042688E+03  0.93084907940E+02 0.  0.
        -11    1    3    3    0    0  0.83738081857E+02 -0.18491182907E+02  0.10317612006E+03  0.13416147715E+03  0.00000000000E+00 0. -1.
         11    1    3    3    0    0 -0.17897440293E+02 -0.25862990250E+02  0.14610254121E+02  0.34679564000E+02  0.00000000000E+00 0.  1.
        -11    1    4    4    0    0 -0.20820629873E+02 -0.28456971744E+02 -0.21588149947E+02  0.41344238864E+02  0.00000000000E+00 0. -1.
         11    1    4    4    0    0  0.57620280679E+02 -0.14395540011E+03  0.31750554700E+02  0.15827618801E+03  0.00000000000E+00 0.  1.
         21    1    1    2  503  502  0.31544790877E+02  0.40839290446E+02  0.92145150646E+02  0.10561084349E+03  0.00000000000E+00 0. -1.
          2    1    1    2  501    0 -0.13418508325E+03  0.17592725457E+03 -0.95932574892E+02  0.24116196713E+03  0.00000000000E+00 0. -1.
<scales pt_clust_5="13000.00000" pt_clust_6="13000.00000" pt_clust_7="13000.00000" pt_clust_8="13000.00000" pt_clust_9="51.60350" pt_clust_10="198.36275"></scales>
<clustering>
<clus scale="   51.604">  1  9  2 -1</clus>
<clus scale="   91.276">  5  6 -1 -1</clus>
<clus scale="   93.085">  7  8 -1 -1</clus>
<clus scale="  124.106">  1  5  2 -1</clus>
<clus scale="  198.363">  2 10  1 -1</clus>
<clus scale="  198.363">  2  5  1 -1</clus>
</clustering>
</event>
<event>
10    2  0.3544405E-006  0.1171157E+03  0.7546771E-02  0.1250547E+00
         21   -1    0    0  501  502  0.00000000000E+00  0.00000000000E+00  0.15100821583E+03  0.15100821583E+03  0.00000000000E+00 0.  1.
          1   -1    0    0  503    0 -0.00000000000E+00 -0.00000000000E+00 -0.16105945389E+03  0.16105945389E+03  0.00000000000E+00 0. -1.
         23    2    1    2    0    0  0.39229565093E+02 -0.42142606132E+02 -0.61280504043E+02  0.12944663336E+03  0.98418355420E+02 0.  0.
         23    2    1    2    0    0 -0.63508945986E+02  0.42623896707E+02  0.15966069590E+02  0.12012024433E+03  0.91234724358E+02 0.  0.
        -11    1    3    3    0    0 -0.23098978431E+02 -0.41775370539E+02 -0.10091499827E+02  0.48791215982E+02  0.00000000000E+00 0.  1.
         11    1    3    3    0    0  0.62328543524E+02 -0.36723559283E+00 -0.51189004216E+02  0.80655417378E+02  0.00000000000E+00 0. -1.
        -13    1    4    4    0    0 -0.56579982087E+02 -0.10777370667E+02 -0.12897286100E+02  0.59023606127E+02  0.00000000000E+00 0.  1.
         13    1    4    4    0    0 -0.69289638988E+01  0.53401267374E+02  0.28863355690E+02  0.61096638202E+02  0.00000000000E+00 0. -1.
         21    1    1    2  503  502  0.44106831155E+01 -0.21893951474E+02  0.16756581494E+02  0.27921000341E+02  0.00000000000E+00 0. -1.
          1    1    1    2  501    0  0.19868697778E+02  0.21412660900E+02  0.18506614902E+02  0.34579791690E+02  0.00000000000E+00 0. -1.
<scales pt_clust_5="13000.00000" pt_clust_6="13000.00000" pt_clust_7="13000.00000" pt_clust_8="13000.00000" pt_clust_9="22.33381" pt_clust_10="26.78114"></scales>
<clustering>
<clus scale="   22.334">  1  9  2 -1</clus>
<clus scale="   26.781">  1 10  2 -1</clus>
<clus scale="   91.235">  7  8 -1 -1</clus>
<clus scale="   98.418">  5  6 -1 -1</clus>
<clus scale="  111.147">  1  7  2 -1</clus>
<clus scale="   22.334">  1  5  2 -1</clus>
</clustering>
</event>
<event>
10    2  0.3544405E-006  0.2222392E+03  0.7546771E-02  0.1132393E+00
         21   -1    0    0  501  502  0.00000000000E+00  0.00000000000E+00  0.10849171882E+03  0.10849171882E+03  0.00000000000E+00 0.  1.
          2   -1    0    0  503    0 -0.00000000000E+00 -0.00000000000E+00 -0.11966478789E+04  0.11966478789E+04  0.00000000000E+00 0. -1.
         23    2    1    2    0    0  0.12089105901E+03  0.18760565013E+03 -0.70851219704E+03  0.74865911875E+03  0.93222393381E+02 0.  0.
         23    2    1    2    0    0 -0.14440803418E+03 -0.10257352643E+03 -0.28943798820E+03  0.35133284508E+03  0.91024229526E+02 0.  0.
        -11    1    3    3    0    0  0.66164574871E+01  0.82772654538E+02 -0.31311817258E+03  0.32394147596E+03  0.00000000000E+00 0.  1.
         11    1    3    3    0    0  0.11427460153E+03  0.10483299559E+03 -0.39539402445E+03  0.42471764278E+03  0.00000000000E+00 0. -1.
        -13    1    4    4    0    0 -0.68508102777E+02 -0.39524529574E+02 -0.21083023237E+03  0.22517756431E+03  0.00000000000E+00 0. -1.
         13    1    4    4    0    0 -0.75899931403E+02 -0.63048996859E+02 -0.78607755823E+02  0.12615528077E+03  0.00000000000E+00 0.  1.
         21    1    1    2  503  502  0.71331912189E+02 -0.53770949189E+02 -0.11265035605E+03  0.14376946613E+03  0.00000000000E+00 0.  1.
          2    1    1    2  501    0 -0.47814937023E+02 -0.31261174510E+02  0.22444381177E+02  0.61378167785E+02  0.00000000000E+00 0. -1.
<scales pt_clust_5="13000.00000" pt_clust_6="13000.00000" pt_clust_7="13000.00000" pt_clust_8="13000.00000" pt_clust_9="85.72807" pt_clust_10="57.12731"></scales>
<clustering>
<clus scale="   57.127">  1 10  2 -1</clus>
<clus scale="   85.728">  1  9  2 -1</clus>
<clus scale="   91.024">  7  8 -1 -1</clus>
<clus scale="   93.222">  5  6 -1 -1</clus>
<clus scale="  221.326">  1  7  2 -1</clus>
<clus scale="   57.127">  1  5  2 -1</clus>
</clustering>
</event>
<event>
10    2  0.3544405E-006  0.1005730E+03  0.7546771E-02  0.1283106E+00
         21   -1    0    0  501  502  0.00000000000E+00  0.00000000000E+00  0.38605332063E+02  0.38605332063E+02  0.00000000000E+00 0.  1.
          1   -1    0    0  503    0 -0.00000000000E+00 -0.00000000000E+00 -0.50615501709E+03  0.50615501709E+03  0.00000000000E+00 0. -1.
         23    2    1    2    0    0 -0.12323135670E+02 -0.43831857059E+02 -0.19508235000E+03  0.22250927130E+03  0.96851232132E+02 0.  0.
         23    2    1    2    0    0  0.43817692418E+01  0.64605362338E+01 -0.12845505043E+03  0.15656341545E+03  0.89165378068E+02 0.  0.
        -13    1    4    4    0    0  0.29805796011E+02 -0.31532391217E+02 -0.69973314533E+02  0.82334330133E+02  0.00000000000E+00 0.  1.
         13    1    4    4    0    0 -0.25424026769E+02  0.37992927451E+02 -0.58481735899E+02  0.74229085319E+02  0.00000000000E+00 0. -1.
        -13    1    3    3    0    0  0.48197643896E+01 -0.72709664845E+02 -0.12251193225E+03  0.14254507720E+03  0.00000000000E+00 0.  1.
         13    1    3    3    0    0 -0.17142900059E+02  0.28877807786E+02 -0.72570417750E+02  0.79964194096E+02  0.00000000000E+00 0. -1.
         21    1    1    2  503  502  0.48505045376E+01 -0.21481329785E+02 -0.51335638908E+02  0.55859849138E+02  0.00000000000E+00 0.  1.
          1    1    1    2  501    0  0.30908618901E+01  0.58852650611E+02 -0.92676645681E+02  0.10982781326E+03  0.00000000000E+00 0. -1.
<scales pt_clust_5="13000.00000" pt_clust_6="13000.00000" pt_clust_7="13000.00000" pt_clust_8="13000.00000" pt_clust_9="22.02215" pt_clust_10="54.20768"></scales>
<clustering>
<clus scale="   22.022">  2  9  1 -1</clus>
<clus scale="   54.208">  1 10  2 -1</clus>
<clus scale="   89.165">  5  6 -1 -1</clus>
<clus scale="   93.195">  1  5  2 -1</clus>
<clus scale="   96.851">  7  8 -1 -1</clus>
<clus scale="   54.208">  1  5  2 -1</clus>
</clustering>
</event>
<event>
10    2  0.3544405E-006  0.1132915E+03  0.7546771E-02  0.1256046E+00
         21   -1    0    0  501  502  0.00000000000E+00  0.00000000000E+00  0.50085366223E+03  0.50085366223E+03  0.00000000000E+00 0.  1.
          2   -1    0    0  503    0 -0.00000000000E+00 -0.00000000000E+00 -0.50491495603E+02  0.50491495603E+02  0.00000000000E+00 0. -1.
         23    2    1    2    0    0  0.52653782629E+02  0.49892576360E+02  0.10355027351E+03  0.15594440705E+03  0.91292436411E+02 0.  0.
         23    2    1    2    0    0 -0.80998571004E+02 -0.14336608175E+02  0.28068315763E+03  0.30523060922E+03  0.87271891172E+02 0.  0.
        -11    1    4    4    0    0 -0.82002780077E+02  0.20823229373E+02  0.20502902816E+03  0.22179938055E+03  0.00000000000E+00 0. -1.
         11    1    4    4    0    0  0.10042090726E+01 -0.35159837548E+02  0.75654129466E+02  0.83431228671E+02  0.00000000000E+00 0.  1.
        -13    1    3    3    0    0  0.45295085391E+02 -0.15528868407E+02  0.61032822940E+02  0.77574454497E+02  0.00000000000E+00 0.  1.
         13    1    3    3    0    0  0.73586972375E+01  0.65421444766E+02  0.42517450571E+02  0.78369952554E+02  0.00000000000E+00 0. -1.
         21    1    1    2  503  502 -0.66214449112E+01 -0.23308379295E+02  0.25031402462E+02  0.34838128355E+02  0.00000000000E+00 0.  1.
          2    1    1    2  501    0  0.34966233287E+02 -0.12247588890E+02  0.41097333026E+02  0.55332013209E+02  0.00000000000E+00 0. -1.
<scales pt_clust_5="13000.00000" pt_clust_6="13000.00000" pt_clust_7="13000.00000" pt_clust_8="13000.00000" pt_clust_9="24.23064" pt_clust_10="37.46728"></scales>
<clustering>
<clus scale="   24.231">  2  9  1 -1</clus>
<clus scale="   37.467">  1 10  2 -1</clus>
<clus scale="   87.272">  5  6 -1 -1</clus>
<clus scale="   91.292">  7  8 -1 -1</clus>
<clus scale="  110.077">  1  5  2 -1</clus>
<clus scale="   37.467">  1  5  2 -1</clus>
</clustering>
</event>
<event>
10    2  0.3544405E-006  0.9629383E+02  0.7546771E-02  0.1288520E+00
          1   -1    0    0  503    0 -0.00000000000E+00  0.00000000000E+00  0.68148429978E+03  0.68148429978E+03  0.00000000000E+00 0. -1.
         21   -1    0    0  501  502  0.00000000000E+00 -0.00000000000E+00 -0.66538578739E+02  0.66538578739E+02  0.00000000000E+00 0. -1.
         23    2    1    2    0    0  0.31909496726E+02 -0.78619670546E+01  0.50360944993E+03  0.51278972786E+03  0.90833916777E+02 0.  0.
         23    2    1    2    0    0 -0.13018871998E+02  0.44479982077E+02  0.11469077048E+03  0.15320750669E+03  0.90391412415E+02 0.  0.
        -11    1    3    3    0    0  0.56742886402E+02  0.18964603473E+02  0.29586917237E+03  0.30185754670E+03  0.00000000000E+00 0.  1.
         11    1    3    3    0    0 -0.24833389676E+02 -0.26826570527E+02  0.20774027756E+03  0.21093218116E+03  0.00000000000E+00 0. -1.
        -13    1    4    4    0    0 -0.23674650164E+02 -0.52042634186E-01 -0.57443275368E+01  0.24361631055E+02  0.00000000000E+00 0.  1.
         13    1    4    4    0    0  0.10655778165E+02  0.44532024711E+02  0.12043509801E+03  0.12884587563E+03  0.00000000000E+00 0. -1.
         21    1    1    2  503  502 -0.22439111568E+02 -0.10152638341E+02  0.30311325474E+02  0.39055937388E+02  0.00000000000E+00 0. -1.
          1    1    1    2  501    0  0.35484868407E+01 -0.26465376681E+02 -0.33665824840E+02  0.42969706584E+02  0.00000000000E+00 0. -1.
<scales pt_clust_5="13000.00000" pt_clust_6="13000.00000" pt_clust_7="13000.00000" pt_clust_8="13000.00000" pt_clust_9="24.62904" pt_clust_10="34.30069"></scales>
<clustering>
<clus scale="   24.629">  2  9  1 -1</clus>
<clus scale="   34.301">  2 10  1 -1</clus>
<clus scale="   90.391">  7  8 -1 -1</clus>
<clus scale="   90.834">  5  6 -1 -1</clus>
<clus scale="   95.877">  2  7  1 -1</clus>
<clus scale="   24.629">  2  5  1 -1</clus>
</clustering>
</event>
<event>
10    2  0.3544405E-006  0.1514451E+03  0.7546771E-02  0.1221620E+00
          1   -1    0    0  503    0 -0.00000000000E+00  0.00000000000E+00  0.62401670875E+03  0.62401670875E+03  0.00000000000E+00 0. -1.
         21   -1    0    0  501  502  0.00000000000E+00 -0.00000000000E+00 -0.13757002285E+03  0.13757002285E+03  0.00000000000E+00 0.  1.
         23    2    1    2    0    0 -0.36656870996E+01 -0.21244581788E+02  0.23241146937E+03  0.25076382638E+03  0.91665893369E+02 0.  0.
         23    2    1    2    0    0 -0.92592772260E+02 -0.94241878555E+02 -0.74122861146E+01  0.16081499313E+03  0.91386907607E+02 0.  0.
        -11    1    4    4    0    0 -0.42539279813E+02 -0.93898919479E+02 -0.27799026029E+02  0.10676789431E+03  0.00000000000E+00 0.  1.
         11    1    4    4    0    0 -0.50053492446E+02 -0.34295907555E+00  0.20386739915E+02  0.54047098825E+02  0.00000000000E+00 0. -1.
        -13    1    3    3    0    0  0.64776479692E+01  0.32021452236E+02  0.44625813049E+02  0.55306387667E+02  0.00000000000E+00 0.  1.
         13    1    3    3    0    0 -0.10143335069E+02 -0.53266034024E+02  0.18778565632E+03  0.19545743871E+03  0.00000000000E+00 0. -1.
         21    1    1    2  503  502  0.28955774218E+02  0.27758434800E+02  0.23219364988E+03  0.23563288949E+03  0.00000000000E+00 0. -1.
          1    1    1    2  501    0  0.67302685141E+02  0.87728025544E+02  0.29253852762E+02  0.11437502260E+03  0.00000000000E+00 0. -1.
<scales pt_clust_5="13000.00000" pt_clust_6="13000.00000" pt_clust_7="13000.00000" pt_clust_8="13000.00000" pt_clust_9="40.11194" pt_clust_10="120.76452"></scales>
<clustering>
<clus scale="   40.112">  1  9  2 -1</clus>
<clus scale="   91.387">  5  6 -1 -1</clus>
<clus scale="   91.666">  7  8 -1 -1</clus>
<clus scale="   92.858">  1  7  2 -1</clus>
<clus scale="  120.765">  2 10  1 -1</clus>
<clus scale="  120.765">  2  5  1 -1</clus>
</clustering>
</event>
<event>
10    2  0.3544405E-006  0.9383780E+02  0.7546771E-02  0.1294236E+00
          2   -1    0    0  503    0 -0.00000000000E+00  0.00000000000E+00  0.17087816672E+03  0.17087816672E+03  0.00000000000E+00 0. -1.
         21   -1    0    0  501  502  0.00000000000E+00 -0.00000000000E+00 -0.96121627154E+02  0.96121627154E+02  0.00000000000E+00 0.  1.
         23    2    1    2    0    0  0.30201533086E+01  0.20504264260E+02  0.74749272771E+02  0.11936838918E+03  0.90729335817E+02 0.  0.
         23    2    1    2    0    0 -0.24671355488E+02 -0.14116570429E+02 -0.54111310337E+01  0.95946369885E+02  0.91479354024E+02 0.  0.
        -11    1    4    4    0    0  0.29613523309E+02 -0.17341261935E+02  0.15536862892E+02  0.37670601758E+02  0.00000000000E+00 0. -1.
         11    1    4    4    0    0 -0.54284878797E+02  0.32246915060E+01 -0.20947993926E+02  0.58275768127E+02  0.00000000000E+00 0.  1.
        -13    1    3    3    0    0 -0.37283559388E+02  0.17071352711E+02  0.87024016276E+01  0.41919287662E+02  0.00000000000E+00 0.  1.
         13    1    3    3    0    0  0.40303712696E+02  0.34329115497E+01  0.66046871143E+02  0.77449101522E+02  0.00000000000E+00 0. -1.
         21    1    1    2  503  502  0.23345464382E+02  0.16390910881E+02  0.39392461902E+01  0.28795665078E+02  0.00000000000E+00 0. -1.
          2    1    1    2  501    0 -0.16942622022E+01 -0.22778604712E+02  0.14791516423E+01  0.22889369730E+02  0.00000000000E+00 0. -1.
<scales pt_clust_5="13000.00000" pt_clust_6="13000.00000" pt_clust_7="13000.00000" pt_clust_8="13000.00000" pt_clust_9="26.54352" pt_clust_10="22.84153"></scales>
<clustering>
<clus scale="   22.842">  2 10  1 -1</clus>
<clus scale="   26.544">  2  9  1 -1</clus>
<clus scale="   90.729">  7  8 -1 -1</clus>
<clus scale="   91.479">  5  6 -1 -1</clus>
<clus scale="   93.107">  1  7  2 -1</clus>
<clus scale="   22.842">  2  5  1 -1</clus>
</clustering>
</event>
<event>
10    2  0.3544405E-006  0.1736884E+03  0.7546771E-02  0.1174190E+00
         -3   -1    0    0    0  501 -0.00000000000E+00  0.00000000000E+00  0.17131474667E+04  0.17131474667E+04  0.00000000000E+00 0.  1.
         21   -1    0    0  503  502  0.00000000000E+00 -0.00000000000E+00 -0.14954659921E+03  0.14954659921E+03  0.00000000000E+00 0.  1.
         23    2    1    2    0    0  0.19484227707E+03  0.87199430329E+02  0.51443214130E+03  0.56439143327E+03  0.91268879488E+02 0.  0.
         23    2    1    2    0    0 -0.34814284506E+02 -0.13176910778E+03  0.24279038141E+03  0.29269116189E+03  0.90254167634E+02 0.  0.
        -11    1    4    4    0    0 -0.46660643359E+00 -0.12889845527E+03  0.18733072278E+03  0.22739355573E+03  0.00000000000E+00 0.  1.
         11    1    4    4    0    0 -0.34347678073E+02 -0.28706525104E+01  0.55459658632E+02  0.65297606161E+02  0.00000000000E+00 0. -1.
        -13    1    3    3    0    0  0.26340019088E+02  0.18886988619E+02  0.18767468706E+03  0.19045288947E+03  0.00000000000E+00 0. -1.
         13    1    3    3    0    0  0.16850225799E+03  0.68312441710E+02  0.32675745424E+03  0.37393854380E+03  0.00000000000E+00 0.  1.
         21    1    1    2  503  501 -0.13684577936E+03  0.33425805047E+02  0.89875136078E+03  0.90972416714E+03  0.00000000000E+00 0.  1.
         -3    1    1    2    0  502 -0.23182213204E+02  0.11143872407E+02 -0.92373016013E+02  0.95887303584E+02  0.00000000000E+00 0.  1.
<scales pt_clust_5="13000.00000" pt_clust_6="13000.00000" pt_clust_7="13000.00000" pt_clust_8="13000.00000" pt_clust_9="143.36124" pt_clust_10="25.72160"></scales>
<clustering>
<clus scale="   25.722">  2 10  1 -1</clus>
<clus scale="   90.254">  5  6 -1 -1</clus>
<clus scale="   91.269">  7  8 -1 -1</clus>
<clus scale="  143.361">  1  9  2 -1</clus>
<clus scale="  173.157">  2  5  1 -1</clus>
<clus scale="   25.722">  2  5  1 -1</clus>
</clustering>
</event>
<event>
10    2  0.3544405E-006  0.1123702E+03  0.7546771E-02  0.1256540E+00
         21   -1    0    0  503  502  0.00000000000E+00  0.00000000000E+00  0.21136524514E+03  0.21136524514E+03  0.00000000000E+00 0.  1.
         -1   -1    0    0    0  501 -0.00000000000E+00 -0.00000000000E+00 -0.21220050158E+03  0.21220050158E+03  0.00000000000E+00 0.  1.
         23    2    1    2    0    0  0.51541447856E+02  0.53910680473E+02 -0.98905195409E+02  0.15375243000E+03  0.91075187265E+02 0.  0.
         23    2    1    2    0    0 -0.47562917905E+02  0.61284848582E+00  0.13021800935E+03  0.16542736525E+03  0.90260049147E+02 0.  0.
        -11    1    4    4    0    0  0.14361695412E+02 -0.25919188737E+02  0.66034489281E+02  0.72378286899E+02  0.00000000000E+00 0. -1.
         11    1    4    4    0    0 -0.61924613317E+02  0.26532037222E+02  0.64183520065E+02  0.93049078349E+02  0.00000000000E+00 0.  1.
        -11    1    3    3    0    0  0.22196588920E+02  0.76872338598E+01 -0.96099867287E+02  0.98929098938E+02  0.00000000000E+00 0.  1.
         11    1    3    3    0    0  0.29344858936E+02  0.46223446613E+02 -0.28053281226E+01  0.54823331061E+02  0.00000000000E+00 0. -1.
         21    1    1    2  503  501  0.22079566772E+02 -0.47857513957E+02 -0.49558466491E+02  0.72345632294E+02  0.00000000000E+00 0.  1.
         -1    1    1    2    0  502 -0.26058096723E+02 -0.66660150015E+01  0.17410396113E+02  0.32040319187E+02  0.00000000000E+00 0.  1.
<scales pt_clust_5="13000.00000" pt_clust_6="13000.00000" pt_clust_7="13000.00000" pt_clust_8="13000.00000" pt_clust_9="52.43328" pt_clust_10="26.89721"></scales>
<clustering>
<clus scale="   26.897">  1 10  2 -1</clus>
<clus scale="   52.433">  2  9  1 -1</clus>
<clus scale="   90.260">  5  6 -1 -1</clus>
<clus scale="   91.075">  7  8 -1 -1</clus>
<clus scale="  111.711">  1  5  2 -1</clus>
<clus scale="   26.897">  1  5  2 -1</clus>
</clustering>
</event>
<event>
10    2  0.3544405E-006  0.2138547E+03  0.7546771E-02  0.1138579E+00
         21   -1    0    0  501  502  0.00000000000E+00  0.00000000000E+00  0.22662032945E+03  0.22662032945E+03  0.00000000000E+00 0.  1.
          2   -1    0    0  503    0 -0.00000000000E+00 -0.00000000000E+00 -0.34042384066E+03  0.34042384066E+03  0.00000000000E+00 0. -1.
         23    2    1    2    0    0  0.10674417194E+03 -0.15047743269E+03 -0.17218251780E+03  0.26889234400E+03  0.92835861789E+02 0.  0.
         23    2    1    2    0    0 -0.92905152680E+02  0.15276393144E+03  0.10355148716E+03  0.22637192221E+03  0.92483244584E+02 0.  0.
        -11    1    3    3    0    0  0.41048950053E+02 -0.56416629674E+02 -0.12832212392E+03  0.14606306820E+03  0.00000000000E+00 0.  1.
         11    1    3    3    0    0  0.65695221885E+02 -0.94060803016E+02 -0.43860393880E+02  0.12282927580E+03  0.00000000000E+00 0. -1.
        -11    1    4    4    0    0 -0.10251716764E+03  0.86136908289E+02  0.71940423821E+02  0.15200250396E+03  0.00000000000E+00 0.  1.
         11    1    4    4    0    0  0.96120149602E+01  0.66627023150E+02  0.31611063339E+02  0.74369418250E+02  0.00000000000E+00 0. -1.
         21    1    1    2  503  502  0.39579492291E+01 -0.21165408987E+02 -0.39848919759E+02  0.45294329729E+02  0.00000000000E+00 0. -1.
          2    1    1    2  501    0 -0.17796968488E+02  0.18878910237E+02 -0.53235608099E+01  0.26485574164E+02  0.00000000000E+00 0. -1.
<scales pt_clust_5="13000.00000" pt_clust_6="13000.00000" pt_clust_7="13000.00000" pt_clust_8="13000.00000" pt_clust_9="21.53230" pt_clust_10="24.98544"></scales>
<clustering>
<clus scale="   21.532">  2  9  1 -1</clus>
<clus scale="   24.985">  1 10  2 -1</clus>
<clus scale="   92.483">  7  8 -1 -1</clus>
<clus scale="   92.836">  5  6 -1 -1</clus>
<clus scale="  213.702">  1  7  2 -1</clus>
<clus scale="   24.985">  1  5  2 -1</clus>
</clustering>
</event>
<event>
10    2  0.3544405E-006  0.1073377E+03  0.7546771E-02  0.1265993E+00
         21   -1    0    0  501  502  0.00000000000E+00  0.00000000000E+00  0.24227501180E+03  0.24227501180E+03  0.00000000000E+00 0. -1.
          1   -1    0    0  503    0 -0.00000000000E+00 -0.00000000000E+00 -0.23140890272E+03  0.23140890272E+03  0.00000000000E+00 0. -1.
         23    2    1    2    0    0 -0.32976443750E+02  0.80486014879E+01  0.19116255369E+02  0.10007880816E+03  0.92185198348E+02 0.  0.
         23    2    1    2    0    0  0.72104493141E+02  0.53048025334E+02  0.11902775426E+03  0.17462947537E+03  0.91184957424E+02 0.  0.
        -13    1    4    4    0    0  0.69572915174E+02 -0.32960286877E+00  0.90191555249E+02  0.11390792686E+03  0.00000000000E+00 0. -1.
         13    1    4    4    0    0  0.25315779671E+01  0.53377628202E+02  0.28836199008E+02  0.60721548504E+02  0.00000000000E+00 0.  1.
        -13    1    3    3    0    0  0.26851541079E+02  0.11180824220E+02 -0.13275619411E+02  0.31972772156E+02  0.00000000000E+00 0.  1.
         13    1    3    3    0    0 -0.59827984829E+02 -0.31322227325E+01  0.32391874781E+02  0.68106036001E+02  0.00000000000E+00 0. -1.
         21    1    1    2  503  502  0.76080116797E-01 -0.76112797828E+02 -0.13622970529E+03  0.15605030082E+03  0.00000000000E+00 0. -1.
          1    1    1    2  501    0 -0.39204129508E+02  0.15016171007E+02  0.89518047467E+01  0.42925330172E+02  0.00000000000E+00 0. -1.
<scales pt_clust_5="13000.00000" pt_clust_6="13000.00000" pt_clust_7="13000.00000" pt_clust_8="13000.00000" pt_clust_9="75.44452" pt_clust_10="41.98153"></scales>
<clustering>
<clus scale="   41.982">  1 10  2 -1</clus>
<clus scale="   75.445">  2  9  1 -1</clus>
<clus scale="   91.185">  5  6 -1 -1</clus>
<clus scale="   92.185">  7  8 -1 -1</clus>
<clus scale="  106.480">  1  5  2 -1</clus>
<clus scale="   41.982">  1  5  2 -1</clus>
</clustering>
</event>
<event>
10    2  0.3544405E-006  0.9998878E+02  0.7546771E-02  0.1282061E+00
         -2   -1    0    0    0  501 -0.00000000000E+00  0.00000000000E+00  0.76882009202E+02  0.76882009202E+02  0.00000000000E+00 0.  1.
         21   -1    0    0  503  502  0.00000000000E+00 -0.00000000000E+00 -0.62318687949E+03  0.62318687949E+03  0.00000000000E+00 0. -1.
         23    2    1    2    0    0 -0.60999537726E+01 -0.12167334050E+02 -0.57668881553E+02  0.11146775527E+03  0.94414549257E+02 0.  0.
         23    2    1    2    0    0 -0.60183446932E+02  0.66750306676E+02 -0.24115793441E+03  0.27296324554E+03  0.90962263391E+02 0.  0.
        -11    1    4    4    0    0 -0.17405953210E+02 -0.12048656659E+02 -0.12209007912E+03  0.12391176197E+03  0.00000000000E+00 0.  1.
         11    1    4    4    0    0 -0.42777493722E+02  0.78798963335E+02 -0.11906785529E+03  0.14905148357E+03  0.00000000000E+00 0. -1.
        -13    1    3    3    0    0  0.25677158291E+02 -0.30979340869E+02  0.31021069249E+01  0.40356648597E+02  0.00000000000E+00 0.  1.
         13    1    3    3    0    0 -0.31777112064E+02  0.18812006818E+02 -0.60770988478E+02  0.71111106673E+02  0.00000000000E+00 0. -1.
         21    1    1    2  503  501  0.25813168263E+02  0.24962026663E+01  0.23971410044E+02  0.35315424152E+02  0.00000000000E+00 0.  1.
         -2    1    1    2    0  502  0.40470232441E+02 -0.57079175292E+02 -0.27144946437E+03  0.28032246373E+03  0.00000000000E+00 0.  1.
<scales pt_clust_5="13000.00000" pt_clust_6="13000.00000" pt_clust_7="13000.00000" pt_clust_8="13000.00000" pt_clust_9="25.93358" pt_clust_10="71.21281"></scales>
<clustering>
<clus scale="   25.934">  1  9  2 -1</clus>
<clus scale="   71.213">  2 10  1 -1</clus>
<clus scale="   90.962">  5  6 -1 -1</clus>
<clus scale="   94.415">  7  8 -1 -1</clus>
<clus scale="   96.736">  2  5  1 -1</clus>
<clus scale="   71.213">  2  5  1 -1</clus>
</clustering>
</event>
<event>
10    2  0.3544405E-006  0.1286228E+03  0.7546771E-02  0.1229767E+00
         21   -1    0    0  503  502  0.00000000000E+00  0.00000000000E+00  0.22468917074E+03  0.22468917074E+03  0.00000000000E+00 0. -1.
         -3   -1    0    0    0  501 -0.00000000000E+00 -0.00000000000E+00 -0.34570122689E+03  0.34570122689E+03  0.00000000000E+00 0.  1.
         23    2    1    2    0    0  0.50237342883E+02 -0.49571482124E+02 -0.93233704896E+02  0.14955720308E+03  0.93240070814E+02 0.  0.
         23    2    1    2    0    0 -0.12853648520E+03  0.19414422554E+02 -0.92285850996E+02  0.18421846617E+03  0.92310439035E+02 0.  0.
        -11    1    4    4    0    0 -0.60567451482E+02  0.54179153463E+02 -0.61452716911E+02  0.10188342978E+03  0.00000000000E+00 0.  1.
         11    1    4    4    0    0 -0.67969033719E+02 -0.34764730909E+02 -0.30833134085E+02  0.82335036390E+02  0.00000000000E+00 0. -1.
        -13    1    3    3    0    0  0.17691668429E+02 -0.57651357670E+02 -0.98617143516E+02  0.11559418311E+03  0.00000000000E+00 0.  1.
         13    1    3    3    0    0  0.32545674455E+02  0.80798755460E+01  0.53834386193E+01  0.33963019976E+02  0.00000000000E+00 0. -1.
         21    1    1    2  503  501  0.89818764907E+02 -0.40056242142E+02 -0.43290294572E+02  0.10745214129E+03  0.00000000000E+00 0. -1.
         -3    1    1    2    0  502 -0.11519622590E+02  0.70213301712E+02  0.10779779432E+03  0.12916258708E+03  0.00000000000E+00 0.  1.
<scales pt_clust_5="13000.00000" pt_clust_6="13000.00000" pt_clust_7="13000.00000" pt_clust_8="13000.00000" pt_clust_9="88.37254" pt_clust_10="71.15202"></scales>
<clustering>
<clus scale="   71.152">  1 10  2 -1</clus>
<clus scale="   88.373">  1  9  2 -1</clus>
<clus scale="   92.310">  5  6 -1 -1</clus>
<clus scale="   93.240">  7  8 -1 -1</clus>
<clus scale="  127.951">  1  5  2 -1</clus>
<clus scale="   71.152">  1  5  2 -1</clus>
</clustering>
</event>
<event>
10    2  0.3544405E-006  0.2248030E+03  0.7546771E-02  0.1130484E+00
          1   -1    0    0  503    0 -0.00000000000E+00  0.00000000000E+00  0.38303898039E+03  0.38303898039E+03  0.00000000000E+00 0. -1.
         21   -1    0    0  501  502  0.00000000000E+00 -0.00000000000E+00 -0.31324076564E+03  0.31324076564E+03  0.00000000000E+00 0. -1.
         23    2    1    2    0    0 -0.94956802381E+02 -0.21291661086E+03  0.17614930438E+03  0.30666147118E+03  0.93072031114E+02 0.  0.
         23    2    1    2    0    0  0.64743473246E+02  0.19177226093E+03 -0.41416604795E+02  0.22587397805E+03  0.91298419589E+02 0.  0.
        -11    1    3    3    0    0 -0.44305354268E+02 -0.18942398263E+03  0.14582231027E+03  0.24312251188E+03  0.00000000000E+00 0.  1.
         11    1    3    3    0    0 -0.50651448113E+02 -0.23492628233E+02  0.30326994109E+02  0.63538959300E+02  0.00000000000E+00 0. -1.
        -11    1    4    4    0    0  0.36631030530E+01  0.14398721087E+03 -0.19969360531E+02  0.14541152147E+03  0.00000000000E+00 0. -1.
         11    1    4    4    0    0  0.61080370193E+02  0.47785050058E+02 -0.21447244264E+02  0.80462456578E+02  0.00000000000E+00 0.  1.
         21    1    1    2  503  502  0.12836967380E+02  0.43230730637E+02  0.36796162387E+02  0.58203448089E+02  0.00000000000E+00 0.  1.
          1    1    1    2  501    0  0.17376361756E+02 -0.22086380705E+02 -0.10173064722E+03  0.10554084870E+03  0.00000000000E+00 0. -1.
<scales pt_clust_5="13000.00000" pt_clust_6="13000.00000" pt_clust_7="13000.00000" pt_clust_8="13000.00000" pt_clust_9="44.28327" pt_clust_10="28.10242"></scales>
<clustering>
<clus scale="   28.102">  2 10  1 -1</clus>
<clus scale="   44.283">  1  9  2 -1</clus>
<clus scale="   91.298">  7  8 -1 -1</clus>
<clus scale="   93.072">  5  6 -1 -1</clus>
<clus scale="  224.075">  2  7  1 -1</clus>
<clus scale="   28.102">  2  5  1 -1</clus>
</clustering>
</event>
<event>
10    2  0.3544405E-006  0.1130679E+03  0.7546771E-02  0.1255157E+00
         21   -1    0    0  503  502  0.00000000000E+00  0.00000000000E+00  0.21399538010E+03  0.21399538010E+03  0.00000000000E+00 0.  1.
         -2   -1    0    0    0  501 -0.00000000000E+00 -0.00000000000E+00 -0.35866676653E+03  0.35866676653E+03  0.00000000000E+00 0.  1.
         23    2    1    2    0    0  0.33407456156E+02  0.29487273833E+02 -0.17724192790E+03  0.20471385889E+03  0.92236140255E+02 0.  0.
         23    2    1    2    0    0 -0.49111219213E+02 -0.71933027614E+02 -0.42995727682E+02  0.13363736074E+03  0.91782565188E+02 0.  0.
        -11    1    4    4    0    0 -0.68290668313E+02 -0.78325469779E+02 -0.45161202015E+02  0.11330502532E+03  0.00000000000E+00 0.  1.
         11    1    4    4    0    0  0.19179449101E+02  0.63924421652E+01  0.21654743333E+01  0.20332335422E+02  0.00000000000E+00 0. -1.
        -13    1    3    3    0    0  0.37966744769E+02 -0.22939704484E+02 -0.11469073350E+03  0.12297019192E+03  0.00000000000E+00 0. -1.
         13    1    3    3    0    0 -0.45592886126E+01  0.52426978317E+02 -0.62551194406E+02  0.81743666970E+02  0.00000000000E+00 0.  1.
         21    1    1    2  503  501  0.12065300710E+02  0.19691183026E+02 -0.76807705427E+02  0.80204350151E+02  0.00000000000E+00 0.  1.
         -2    1    1    2    0  502  0.36384623460E+01  0.22754570755E+02  0.15237397458E+03  0.15410657685E+03  0.00000000000E+00 0.  1.
<scales pt_clust_5="13000.00000" pt_clust_6="13000.00000" pt_clust_7="13000.00000" pt_clust_8="13000.00000" pt_clust_9="23.69036" pt_clust_10="23.04363"></scales>
<clustering>
<clus scale="   23.044">  1 10  2 -1</clus>
<clus scale="   23.690">  2  9  1 -1</clus>
<clus scale="   91.783">  5  6 -1 -1</clus>
<clus scale="   92.236">  7  8 -1 -1</clus>
<clus scale="  112.698">  1  5  2 -1</clus>
<clus scale="   23.044">  1  5  2 -1</clus>
</clustering>
</event>
<event>
10    2  0.3544405E-006  0.1938993E+03  0.7546771E-02  0.1168794E+00
         -1   -1    0    0    0  501 -0.00000000000E+00  0.00000000000E+00  0.30646313086E+03  0.30646313086E+03  0.00000000000E+00 0.  1.
         21   -1    0    0  503  502  0.00000000000E+00 -0.00000000000E+00 -0.57573526008E+03  0.57573526008E+03  0.00000000000E+00 0.  1.
         23    2    1    2    0    0 -0.14723205071E+03 -0.26268054094E+02  0.12496743662E+03  0.21532315293E+03  0.91541862296E+02 0.  0.
         23    2    1    2    0    0 -0.11350085131E+02 -0.32971897123E+02 -0.12379533654E+03  0.17739228890E+03  0.12217515452E+03 0.  0.
        -11    1    4    4    0    0  0.54855094797E+02 -0.10595908064E+02 -0.42557832058E+02  0.70231928369E+02  0.00000000000E+00 0.  1.
         11    1    4    4    0    0 -0.66205179928E+02 -0.22375989059E+02 -0.81237504480E+02  0.10716036053E+03  0.00000000000E+00 0. -1.
        -13    1    3    3    0    0 -0.80886962907E+02 -0.56597797399E+02  0.93171481886E+02  0.13574585252E+03  0.00000000000E+00 0.  1.
         13    1    3    3    0    0 -0.66345087800E+02  0.30329743305E+02  0.31795954732E+02  0.79577300416E+02  0.00000000000E+00 0. -1.
         21    1    1    2  503  501  0.22770794749E+03  0.11680221641E+03 -0.63269861026E+02  0.26362234811E+03  0.00000000000E+00 0.  1.
         -1    1    1    2    0  502 -0.69125811651E+02 -0.57562265189E+02 -0.20717436828E+03  0.22586060099E+03  0.00000000000E+00 0.  1.
<scales pt_clust_5="13000.00000" pt_clust_6="13000.00000" pt_clust_7="13000.00000" pt_clust_8="13000.00000" pt_clust_9="170.92990" pt_clust_10="89.95439"></scales>
<clustering>
<clus scale="   89.954">  2 10  1 -1</clus>
<clus scale="   91.542">  7  8 -1 -1</clus>
<clus scale="  122.175">  5  6 -1 -1</clus>
<clus scale="  140.762">  2  5  1 -1</clus>
<clus scale="  170.930">  2  9  1 -1</clus>
<clus scale="   89.954">  2  5  1 -1</clus>
</clustering>
</event>
<event>
10    2  0.3544405E-006  0.1205897E+03  0.7546771E-02  0.1242265E+00
          1   -1    0    0  503    0 -0.00000000000E+00  0.00000000000E+00  0.42139780455E+03  0.42139780455E+03  0.00000000000E+00 0. -1.
         21   -1    0    0  501  502  0.00000000000E+00 -0.00000000000E+00 -0.11826838411E+03  0.11826838411E+03  0.00000000000E+00 0.  1.
         23    2    1    2    0    0  0.16715540700E+02 -0.70192695074E+02  0.29144945952E+03  0.31408557819E+03  0.92198368934E+02 0.  0.
         23    2    1    2    0    0  0.79594308037E+01  0.61376885880E+02 -0.58592536575E+02  0.12523275552E+03  0.91758830934E+02 0.  0.
        -11    1    4    4    0    0 -0.16249648048E+02  0.35600624784E+02 -0.76250789728E+02  0.85706700326E+02  0.00000000000E+00 0.  1.
         11    1    4    4    0    0  0.24209078852E+02  0.25776261096E+02  0.17658253153E+02  0.39526055196E+02  0.00000000000E+00 0. -1.
        -13    1    3    3    0    0  0.13918063345E+02  0.20988454493E+02  0.77835300538E+02  0.81808078569E+02  0.00000000000E+00 0.  1.
         13    1    3    3    0    0  0.27974773541E+01 -0.91181149566E+02  0.21361415898E+03  0.23227749963E+03  0.00000000000E+00 0. -1.
         21    1    1    2  503  502 -0.19743161254E+02 -0.11646895176E+02  0.75296154778E+02  0.78708026960E+02  0.00000000000E+00 0.  1.
          1    1    1    2  501    0 -0.49318102494E+01  0.20462704370E+02 -0.50236572784E+01  0.21639827978E+02  0.00000000000E+00 0. -1.
<scales pt_clust_5="13000.00000" pt_clust_6="13000.00000" pt_clust_7="13000.00000" pt_clust_8="13000.00000" pt_clust_9="22.82491" pt_clust_10="21.04863"></scales>
<clustering>
<clus scale="   21.049">  2 10  1 -1</clus>
<clus scale="   22.825">  1  9  2 -1</clus>
<clus scale="   91.759">  5  6 -1 -1</clus>
<clus scale="   92.198">  7  8 -1 -1</clus>
<clus scale="  120.254">  2  5  1 -1</clus>
<clus scale="   21.049">  2  5  1 -1</clus>
</clustering>
</event>
<event>
10    2  0.3544405E-006  0.1656168E+03  0.7546771E-02  0.1203932E+00
         21   -1    0    0  501  502  0.00000000000E+00  0.00000000000E+00  0.22174692160E+03  0.22174692160E+03  0.00000000000E+00 0. -1.
          2   -1    0    0  503    0 -0.00000000000E+00 -0.00000000000E+00 -0.42997742596E+03  0.42997742596E+03  0.00000000000E+00 0. -1.
         23    2    1    2    0    0  0.72853403688E+01 -0.53526591575E+02  0.17797335350E+01  0.99189698323E+02  0.83170046363E+02 0.  0.
         23    2    1    2    0    0  0.27715379238E+02  0.22671382513E+03 -0.18613253101E+03  0.30838315454E+03  0.91035982747E+02 0.  0.
        -11    1    4    4    0    0 -0.24549875078E+02  0.59277787463E+02 -0.82996541497E+02  0.10490461550E+03  0.00000000000E+00 0.  1.
         11    1    4    4    0    0  0.52265254316E+02  0.16743603767E+03 -0.10313598951E+03  0.20347853904E+03  0.00000000000E+00 0. -1.
        -11    1    3    3    0    0  0.32876276100E+02 -0.61652381596E+02 -0.86115112741E+01  0.70399032757E+02  0.00000000000E+00 0.  1.
         11    1    3    3    0    0 -0.25590935731E+02  0.81257900213E+01  0.10391244809E+02  0.28790665566E+02  0.00000000000E+00 0. -1.
         21    1    1    2  503  502 -0.55461203504E+01 -0.51932377332E+02 -0.89155718036E+02  0.10332702127E+03  0.00000000000E+00 0.  1.
          2    1    1    2  501    0 -0.29454599257E+02 -0.12125485622E+03  0.65278011146E+02  0.14082447342E+03  0.00000000000E+00 0. -1.
<scales pt_clust_5="13000.00000" pt_clust_6="13000.00000" pt_clust_7="13000.00000" pt_clust_8="13000.00000" pt_clust_9="52.22769" pt_clust_10="138.35233"></scales>
<clustering>
<clus scale="   52.228">  2  9  1 -1</clus>
<clus scale="   83.170">  7  8 -1 -1</clus>
<clus scale="   91.036">  5  6 -1 -1</clus>
<clus scale="  103.407">  2  7  1 -1</clus>
<clus scale="  138.352">  1 10  2 -1</clus>
<clus scale="  138.352">  1  5  2 -1</clus>
</clustering>
</event>
<event>
10    2  0.3544405E-006  0.1010333E+03  0.7546771E-02  0.1278315E+00
          1   -1    0    0  503    0 -0.00000000000E+00  0.00000000000E+00  0.44617240203E+02  0.44617240203E+02  0.00000000000E+00 0. -1.
         21   -1    0    0  501  502  0.00000000000E+00 -0.00000000000E+00 -0.68108444630E+03  0.68108444630E+03  0.00000000000E+00 0.  1.
         23    2    1    2    0    0 -0.45845909506E+02  0.54739679855E+02 -0.19878813571E+03  0.22946620252E+03  0.89664570654E+02 0.  0.
         23    2    1    2    0    0  0.35799779652E+02  0.66964912772E+01 -0.19280907475E+03  0.21557552014E+03  0.89280447813E+02 0.  0.
        -11    1    4    4    0    0  0.35627440316E+02 -0.26342109725E+02 -0.41523025439E+02  0.60723824730E+02  0.00000000000E+00 0. -1.
         11    1    4    4    0    0  0.17233933595E+00  0.33038601002E+02 -0.15128604931E+03  0.15485169541E+03  0.00000000000E+00 0.  1.
        -13    1    3    3    0    0 -0.72630780668E+02  0.37360420698E+02 -0.12842039240E+03  0.15219339184E+03  0.00000000000E+00 0. -1.
         13    1    3    3    0    0  0.26784871162E+02  0.17379259158E+02 -0.70367743312E+02  0.77272810683E+02  0.00000000000E+00 0.  1.
         21    1    1    2  503  502  0.88515470858E+01 -0.22984175165E+02  0.72084216860E+01  0.25662882477E+02  0.00000000000E+00 0. -1.
          1    1    1    2  501    0  0.11945827679E+01 -0.38451995968E+02 -0.25207841732E+03  0.25499708136E+03  0.00000000000E+00 0. -1.
<scales pt_clust_5="13000.00000" pt_clust_6="13000.00000" pt_clust_7="13000.00000" pt_clust_8="13000.00000" pt_clust_9="24.62970" pt_clust_10="39.67664"></scales>
<clustering>
<clus scale="   24.630">  1  9  2 -1</clus>
<clus scale="   39.677">  2 10  1 -1</clus>
<clus scale="   89.280">  5  6 -1 -1</clus>
<clus scale="   89.665">  7  8 -1 -1</clus>
<clus scale="  100.693">  2  5  1 -1</clus>
<clus scale="   39.677">  2  5  1 -1</clus>
</clustering>
</event>
<event>
10    2  0.3544405E-006  0.1132804E+03  0.7546771E-02  0.1255135E+00
          2   -1    0    0  503    0 -0.00000000000E+00  0.00000000000E+00  0.51500635307E+03  0.51500635307E+03  0.00000000000E+00 0. -1.
         21   -1    0    0  501  502  0.00000000000E+00 -0.00000000000E+00 -0.59293164161E+02  0.59293164161E+02  0.00000000000E+00 0. -1.
         23    2    1    2    0    0 -0.42419072706E+02 -0.43253046825E+02  0.14048492005E+03  0.17879801136E+03  0.92533844160E+02 0.  0.
         23    2    1    2    0    0  0.56983852878E+02  0.33378107298E+02  0.88115928881E+02  0.14291780853E+03  0.91103378294E+02 0.  0.
        -11    1    4    4    0    0 -0.14147197106E+02  0.34650963578E+02  0.49228729171E+02  0.61840926890E+02  0.00000000000E+00 0.  1.
         11    1    4    4    0    0  0.71131049985E+02 -0.12728562796E+01  0.38887199710E+02  0.81076881639E+02  0.00000000000E+00 0. -1.
        -11    1    3    3    0    0 -0.44899318533E+02  0.18508728299E+02  0.67510535857E+02  0.83163659610E+02  0.00000000000E+00 0. -1.
         11    1    3    3    0    0  0.24802458268E+01 -0.61761775124E+02  0.72974384197E+02  0.95634351751E+02  0.00000000000E+00 0.  1.
         21    1    1    2  503  502 -0.19164180110E+02 -0.23316723200E+02  0.21476031787E+03  0.21687076685E+03  0.00000000000E+00 0.  1.
          2    1    1    2  501    0  0.45993999380E+01  0.33191662727E+02  0.12352022099E+02  0.35712930492E+02  0.00000000000E+00 0. -1.
<scales pt_clust_5="13000.00000" pt_clust_6="13000.00000" pt_clust_7="13000.00000" pt_clust_8="13000.00000" pt_clust_9="30.18171" pt_clust_10="31.46789"></scales>
<clustering>
<clus scale="   30.182">  1  9  2 -1</clus>
<clus scale="   31.468">  2 10  1 -1</clus>
<clus scale="   91.103">  5  6 -1 -1</clus>
<clus scale="   92.534">  7  8 -1 -1</clus>
<clus scale="  112.115">  2  5  1 -1</clus>
<clus scale="   31.468">  2  5  1 -1</clus>
</clustering>
</event>
<event>
10    2  0.3544405E-006  0.1045432E+03  0.7546771E-02  0.1271460E+00
         -1   -1    0    0    0  501 -0.00000000000E+00  0.00000000000E+00  0.86094617574E+02  0.86094617574E+02  0.00000000000E+00 0.  1.
         21   -1    0    0  503  502  0.00000000000E+00 -0.00000000000E+00 -0.56516393469E+03  0.56516393469E+03  0.00000000000E+00 0.  1.
         23    2    1    2    0    0  0.27951527001E+02  0.46650207203E+02 -0.88487735119E+01  0.10732670744E+03  0.92104243353E+02 0.  0.
         23    2    1    2    0    0 -0.63902219336E+02  0.37770103604E+02 -0.12069465388E+03  0.16845538168E+03  0.91104016264E+02 0.  0.
        -11    1    3    3    0    0 -0.14287830399E+02 -0.20791858890E+02 -0.11454431439E+02  0.27706452194E+02  0.00000000000E+00 0.  1.
         11    1    3    3    0    0  0.42239357400E+02  0.67442066092E+02  0.26056579268E+01  0.79620255247E+02  0.00000000000E+00 0. -1.
        -11    1    4    4    0    0 -0.55677401798E+02  0.15682813556E+02 -0.14441324793E+02  0.59619422790E+02  0.00000000000E+00 0.  1.
         11    1    4    4    0    0 -0.82248175375E+01  0.22087290048E+02 -0.10625332909E+03  0.10883595889E+03  0.00000000000E+00 0. -1.
         21    1    1    2  503  501  0.22324231176E+02 -0.10197774529E+02 -0.81524913604E+01  0.25861728835E+02  0.00000000000E+00 0. -1.
         -1    1    1    2    0  502  0.13626461159E+02 -0.74222536278E+02 -0.34137339836E+03  0.34961473430E+03  0.00000000000E+00 0.  1.
<scales pt_clust_5="13000.00000" pt_clust_6="13000.00000" pt_clust_7="13000.00000" pt_clust_8="13000.00000" pt_clust_9="24.54314" pt_clust_10="76.22071"></scales>
<clustering>
<clus scale="   24.543">  1  9  2 -1</clus>
<clus scale="   76.221">  2 10  1 -1</clus>
<clus scale="   91.104">  7  8 -1 -1</clus>
<clus scale="   92.104">  5  6 -1 -1</clus>
<clus scale="  103.663">  2  7  1 -1</clus>
<clus scale="   76.221">  2  5  1 -1</clus>
</clustering>
</event>
<event>
10    2  0.3544405E-006  0.1401543E+03  0.7546771E-02  0.1213437E+00
          1   -1    0    0  503    0 -0.00000000000E+00  0.00000000000E+00  0.80659897018E+02  0.80659897018E+02  0.00000000000E+00 0. -1.
         21   -1    0    0  501  502  0.00000000000E+00 -0.00000000000E+00 -0.67078071491E+03  0.67078071491E+03  0.00000000000E+00 0. -1.
         23    2    1    2    0    0 -0.52438485452E+02  0.11952724409E+03 -0.60545087871E+02  0.17116210285E+03  0.92704913307E+02 0.  0.
         23    2    1    2    0    0  0.54798138115E+02 -0.55494048274E+02 -0.19022894904E+03  0.22494880086E+03  0.91282444218E+02 0.  0.
        -11    1    3    3    0    0 -0.26844823202E+02  0.11966947910E+03 -0.72971979046E+02  0.14271068105E+03  0.00000000000E+00 0. -1.
         11    1    3    3    0    0 -0.25593662250E+02 -0.14223500855E+00  0.12426891175E+02  0.28451421800E+02  0.00000000000E+00 0.  1.
        -13    1    4    4    0    0  0.78684018842E+02 -0.39172379885E+02 -0.16316441556E+03  0.18533288071E+03  0.00000000000E+00 0.  1.
         13    1    4    4    0    0 -0.23885880727E+02 -0.16321668389E+02 -0.27064533473E+02  0.39615920148E+02  0.00000000000E+00 0. -1.
         21    1    1    2  503  502  0.21430459339E+02 -0.49022676234E+01 -0.20116786596E+02  0.29799025459E+02  0.00000000000E+00 0. -1.
          1    1    1    2  501    0 -0.23790112002E+02 -0.59130928193E+02 -0.31922999439E+03  0.32553068276E+03  0.00000000000E+00 0. -1.
<scales pt_clust_5="13000.00000" pt_clust_6="13000.00000" pt_clust_7="13000.00000" pt_clust_8="13000.00000" pt_clust_9="21.98401" pt_clust_10="63.60025"></scales>
<clustering>
<clus scale="   21.984">  1  9  2 -1</clus>
<clus scale="   63.600">  2 10  1 -1</clus>
<clus scale="   91.282">  7  8 -1 -1</clus>
<clus scale="   92.705">  5  6 -1 -1</clus>
<clus scale="  139.218">  2  7  1 -1</clus>
<clus scale="   63.600">  2  5  1 -1</clus>
</clustering>
</event>
<event>
10    2  0.3544405E-006  0.8958889E+02  0.7546771E-02  0.1303899E+00
         21   -1    0    0  501  502  0.00000000000E+00  0.00000000000E+00  0.22456047343E+03  0.22456047343E+03  0.00000000000E+00 0. -1.
          2   -1    0    0  503    0 -0.00000000000E+00 -0.00000000000E+00 -0.43011915586E+03  0.43011915586E+03  0.00000000000E+00 0. -1.
         23    2    1    2    0    0 -0.37205356425E+02 -0.44565099742E+02 -0.11476349684E+03  0.15602463829E+03  0.88333124510E+02 0.  0.
         23    2    1    2    0    0 -0.56836484210E+02 -0.28291062696E+02 -0.27533655749E+02  0.11261272121E+03  0.88841165080E+02 0.  0.
        -11    1    3    3    0    0 -0.16939282648E+01 -0.63804580464E+02 -0.57211345953E+02  0.85714829445E+02  0.00000000000E+00 0.  1.
         11    1    3    3    0    0 -0.35511428160E+02  0.19239480721E+02 -0.57552150885E+02  0.70309808846E+02  0.00000000000E+00 0. -1.
        -11    1    4    4    0    0 -0.16557421329E+02  0.32169729329E+02 -0.48485337536E+01  0.36504081494E+02  0.00000000000E+00 0.  1.
         11    1    4    4    0    0 -0.40279062881E+02 -0.60460792025E+02 -0.22685121995E+02  0.76108639712E+02  0.00000000000E+00 0. -1.
         21    1    1    2  503  502  0.42488509996E+02  0.75468954420E+02 -0.21178227001E+03  0.22880683218E+03  0.00000000000E+00 0. -1.
          2    1    1    2  501    0  0.51553330639E+02 -0.26127919818E+01  0.14852074017E+03  0.15723543761E+03  0.00000000000E+00 0. -1.
<scales pt_clust_5="13000.00000" pt_clust_6="13000.00000" pt_clust_7="13000.00000" pt_clust_8="13000.00000" pt_clust_9="89.50869" pt_clust_10="51.61950"></scales>
<clustering>
<clus scale="   51.619">  1 10  2 -1</clus>
<clus scale="   88.333">  5  6 -1 -1</clus>
<clus scale="   88.841">  7  8 -1 -1</clus>
<clus scale="   89.509">  2  9  1 -1</clus>
<clus scale="   89.509">  2  5  1 -1</clus>
<clus scale="   51.619">  1  5  2 -1</clus>
</clustering>
</event>
<event>
10    2  0.3544405E-006  0.1075293E+03  0.7546771E-02  0.1265446E+00
          2   -1    0    0  503    0 -0.00000000000E+00  0.00000000000E+00  0.12742830312E+04  0.12742830312E+04  0.00000000000E+00 0. -1.
         21   -1    0    0  501  502  0.00000000000E+00 -0.00000000000E+00 -0.25679439844E+02  0.25679439844E+02  0.00000000000E+00 0.  1.
         23    2    1    2    0    0 -0.31434191004E+02 -0.51345324045E+02  0.52418003957E+03  0.53565154158E+03  0.92376455061E+02 0.  0.
         23    2    1    2    0    0  0.35980360803E+02  0.35514372884E+02  0.53929302873E+03  0.54938361107E+03  0.91812440539E+02 0.  0.
        -11    1    3    3    0    0  0.12524672517E+02  0.21365469010E+02  0.97697624990E+02  0.10078778009E+03  0.00000000000E+00 0.  1.
         11    1    3    3    0    0 -0.43958863521E+02 -0.72710793055E+02  0.42648241458E+03  0.43486376149E+03  0.00000000000E+00 0. -1.
        -11    1    4    4    0    0 -0.17283543969E+02  0.46765256389E+02  0.28508902297E+03  0.28941572368E+03  0.00000000000E+00 0. -1.
         11    1    4    4    0    0  0.53263904772E+02 -0.11250883504E+02  0.25420400576E+03  0.25996788739E+03  0.00000000000E+00 0.  1.
         21    1    1    2  503  502  0.22863006182E+02  0.41648320776E+01  0.18363664876E+03  0.18510127402E+03  0.00000000000E+00 0.  1.
          2    1    1    2  501    0 -0.27409175981E+02  0.11666119083E+02  0.14938743057E+01  0.29826044371E+02  0.00000000000E+00 0. -1.
<scales pt_clust_5="13000.00000" pt_clust_6="13000.00000" pt_clust_7="13000.00000" pt_clust_8="13000.00000" pt_clust_9="23.23925" pt_clust_10="29.51036"></scales>
<clustering>
<clus scale="   23.239">  1  9  2 -1</clus>
<clus scale="   29.510">  2 10  1 -1</clus>
<clus scale="   91.812">  7  8 -1 -1</clus>
<clus scale="   92.376">  5  6 -1 -1</clus>
<clus scale="  107.045">  2  7  1 -1</clus>
<clus scale="   29.510">  2  5  1 -1</clus>
</clustering>
</event>
<event>
10    2  0.3544405E-006  0.2016035E+03  0.7546771E-02  0.1148467E+00
          2   -1    0    0  503    0 -0.00000000000E+00  0.00000000000E+00  0.15114161706E+04  0.15114161706E+04  0.00000000000E+00 0. -1.
         21   -1    0    0  501  502  0.00000000000E+00 -0.00000000000E+00 -0.66162216901E+02  0.66162216901E+02  0.00000000000E+00 0.  1.
         23    2    1    2    0    0  0.70632286560E+02 -0.18982129685E+03  0.51889153224E+03  0.56457224557E+03  0.92045388809E+02 0.  0.
         23    2    1    2    0    0 -0.10112132811E+03  0.12782834634E+03  0.28558537963E+03  0.34125452235E+03  0.91269002609E+02 0.  0.
        -11    1    3    3    0    0 -0.21639791299E+02 -0.48312883191E+02  0.10686983923E+03  0.11926264204E+03  0.00000000000E+00 0. -1.
         11    1    3    3    0    0  0.92272077858E+02 -0.14150841366E+03  0.41202169300E+03  0.44530960353E+03  0.00000000000E+00 0.  1.
        -13    1    4    4    0    0 -0.11515346039E+03  0.89296443412E+02  0.22685365084E+03  0.26962335423E+03  0.00000000000E+00 0. -1.
         13    1    4    4    0    0  0.14032132279E+02  0.38531902926E+02  0.58731728791E+02  0.71631168120E+02  0.00000000000E+00 0.  1.
         21    1    1    2  503  502  0.71594971881E+02  0.65430931819E+02  0.61609284515E+03  0.62368055981E+03  0.00000000000E+00 0. -1.
          2    1    1    2  501    0 -0.41105930329E+02 -0.34379813061E+01  0.24684196721E+02  0.48071059812E+02  0.00000000000E+00 0. -1.
<scales pt_clust_5="13000.00000" pt_clust_6="13000.00000" pt_clust_7="13000.00000" pt_clust_8="13000.00000" pt_clust_9="94.73118" pt_clust_10="41.24945"></scales>
<clustering>
<clus scale="   41.249">  2 10  1 -1</clus>
<clus scale="   91.269">  7  8 -1 -1</clus>
<clus scale="   92.045">  5  6 -1 -1</clus>
<clus scale="   94.731">  1  9  2 -1</clus>
<clus scale="  201.250">  2  7  1 -1</clus>
<clus scale="   41.249">  2  5  1 -1</clus>
</clustering>
</event>
<event>
10    2  0.3544405E-006  0.1024004E+03  0.7546771E-02  0.1275430E+00
          1   -1    0    0  503    0 -0.00000000000E+00  0.00000000000E+00  0.37497993318E+03  0.37497993318E+03  0.00000000000E+00 0. -1.
         21   -1    0    0  501  502  0.00000000000E+00 -0.00000000000E+00 -0.17081641845E+03  0.17081641845E+03  0.00000000000E+00 0. -1.
         23    2    1    2    0    0 -0.37943303906E+02  0.12043547351E+02  0.14725337936E+03  0.17760503021E+03  0.90968388347E+02 0.  0.
         23    2    1    2    0    0  0.38446228877E+02  0.21390193335E+02  0.57665831089E+02  0.11652119596E+03  0.91193136507E+02 0.  0.
        -11    1    4    4    0    0  0.26455624678E+02  0.49680303992E+02  0.63915394898E+02  0.85165781784E+02  0.00000000000E+00 0. -1.
         11    1    4    4    0    0  0.11990604198E+02 -0.28290110658E+02 -0.62495638091E+01  0.31355414172E+02  0.00000000000E+00 0.  1.
        -13    1    3    3    0    0  0.13040097870E+02 -0.25065109247E+02  0.82571458921E+02  0.87271700352E+02  0.00000000000E+00 0.  1.
         13    1    3    3    0    0 -0.50983401776E+02  0.37108656598E+02  0.64681920437E+02  0.90333329854E+02  0.00000000000E+00 0. -1.
         21    1    1    2  503  502 -0.38377773742E+02  0.37063827653E+01  0.11663928193E+03  0.12284670480E+03  0.00000000000E+00 0. -1.
          1    1    1    2  501    0  0.37874848771E+02 -0.37140123451E+02 -0.11739497764E+03  0.12882342067E+03  0.00000000000E+00 0. -1.
<scales pt_clust_5="13000.00000" pt_clust_6="13000.00000" pt_clust_7="13000.00000" pt_clust_8="13000.00000" pt_clust_9="38.55633" pt_clust_10="52.37738"></scales>
<clustering>
<clus scale="   38.556">  1  9  2 -1</clus>
<clus scale="   52.377">  2 10  1 -1</clus>
<clus scale="   90.968">  7  8 -1 -1</clus>
<clus scale="   91.193">  5  6 -1 -1</clus>
<clus scale="  102.200">  1  7  2 -1</clus>
<clus scale="   52.377">  2  5  1 -1</clus>
</clustering>
</event>
<event>
10    2  0.3544405E-006  0.9525988E+02  0.7546771E-02  0.1291658E+00
          2   -1    0    0  503    0 -0.00000000000E+00  0.00000000000E+00  0.55598815121E+03  0.55598815121E+03  0.00000000000E+00 0. -1.
         21   -1    0    0  501  502  0.00000000000E+00 -0.00000000000E+00 -0.74203452633E+02  0.74203452633E+02  0.00000000000E+00 0. -1.
         23    2    1    2    0    0 -0.45872663831E+02  0.25796700634E+02  0.21714944177E+03  0.24105949062E+03  0.90476664992E+02 0.  0.
         23    2    1    2    0    0  0.24683409530E+02  0.67532617395E+01  0.13852566641E+03  0.16635955945E+03  0.88494437758E+02 0.  0.
        -11    1    3    3    0    0 -0.64743493084E+02  0.14164492748E+02  0.88775303071E+02  0.11078541053E+03  0.00000000000E+00 0.  1.
         11    1    3    3    0    0  0.18870829253E+02  0.11632207886E+02  0.12837413870E+03  0.13027408009E+03  0.00000000000E+00 0. -1.
        -13    1    4    4    0    0  0.25595962387E+02 -0.24269716320E+02  0.12923540369E+03  0.13396253949E+03  0.00000000000E+00 0. -1.
         13    1    4    4    0    0 -0.91255285732E+00  0.31022978059E+02  0.92902627238E+01  0.32397019953E+02  0.00000000000E+00 0.  1.
         21    1    1    2  503  502  0.44659313830E+02 -0.29868466094E+02  0.16706564571E+03  0.17549219229E+03  0.00000000000E+00 0. -1.
          2    1    1    2  501    0 -0.23470059529E+02 -0.26814962796E+01 -0.40956055306E+02  0.47280361492E+02  0.00000000000E+00 0. -1.
<scales pt_clust_5="13000.00000" pt_clust_6="13000.00000" pt_clust_7="13000.00000" pt_clust_8="13000.00000" pt_clust_9="51.24822" pt_clust_10="23.62275"></scales>
<clustering>
<clus scale="   23.623">  2 10  1 -1</clus>
<clus scale="   51.248">  1  9  2 -1</clus>
<clus scale="   88.494">  7  8 -1 -1</clus>
<clus scale="   90.477">  5  6 -1 -1</clus>
<clus scale="   93.379">  2  7  1 -1</clus>
<clus scale="   23.623">  2  5  1 -1</clus>
</clustering>
</event>
<event>
10    2  0.3544405E-006  0.1023957E+03  0.7546771E-02  0.1276388E+00
         21   -1    0    0  503  502  0.00000000000E+00  0.00000000000E+00  0.42654788892E+03  0.42654788892E+03  0.00000000000E+00 0. -1.
         -2   -1    0    0    0  501 -0.00000000000E+00 -0.00000000000E+00 -0.10411447439E+03  0.10411447439E+03  0.00000000000E+00 0.  1.
         23    2    1    2    0    0  0.35458634382E+02 -0.45482978450E+02 -0.17472120484E+02  0.10802657885E+03  0.89657407185E+02 0.  0.
         23    2    1    2    0    0 -0.29305945116E+02  0.52452546180E+02  0.29217045357E+03  0.31213144210E+03  0.91936691207E+02 0.  0.
        -13    1    4    4    0    0 -0.14841182050E+02 -0.20182715562E+02  0.27085020503E+02  0.36894457954E+02  0.00000000000E+00 0.  1.
         13    1    4    4    0    0 -0.14464763067E+02  0.72635261742E+02  0.26508543306E+03  0.27523698415E+03  0.00000000000E+00 0. -1.
        -13    1    3    3    0    0  0.51925884181E+02  0.30061820031E+01 -0.22297322948E+02  0.56590681113E+02  0.00000000000E+00 0.  1.
         13    1    3    3    0    0 -0.16467249798E+02 -0.48489160453E+02  0.48252024635E+01  0.51435897739E+02  0.00000000000E+00 0. -1.
         21    1    1    2  503  501 -0.25799491287E+02  0.60619648426E+01 -0.23530271220E+02  0.35440581712E+02  0.00000000000E+00 0. -1.
         -2    1    1    2    0  502  0.19646802021E+02 -0.13031532573E+02  0.71265352667E+02  0.75063760641E+02  0.00000000000E+00 0.  1.
<scales pt_clust_5="13000.00000" pt_clust_6="13000.00000" pt_clust_7="13000.00000" pt_clust_8="13000.00000" pt_clust_9="26.12992" pt_clust_10="23.57579"></scales>
<clustering>
<clus scale="   23.576">  1 10  2 -1</clus>
<clus scale="   26.130">  2  9  1 -1</clus>
<clus scale="   89.657">  7  8 -1 -1</clus>
<clus scale="   91.937">  5  6 -1 -1</clus>
<clus scale="  100.354">  2  7  1 -1</clus>
<clus scale="   23.576">  1  5  2 -1</clus>
</clustering>
</event>
<event>
10    2  0.3544405E-006  0.9681518E+02  0.7546771E-02  0.1287575E+00
          2   -1    0    0  503    0 -0.00000000000E+00  0.00000000000E+00  0.42477186177E+03  0.42477186177E+03  0.00000000000E+00 0. -1.
         21   -1    0    0  501  502  0.00000000000E+00 -0.00000000000E+00 -0.17154954954E+03  0.17154954954E+03  0.00000000000E+00 0. -1.
         23    2    1    2    0    0  0.17471656898E+02  0.90007274768E+02  0.11115143010E+03  0.17104743393E+03  0.92173835413E+02 0.  0.
         23    2    1    2    0    0  0.27936196034E+02  0.22659162084E+02  0.83152307549E+02  0.12865334080E+03  0.91342800330E+02 0.  0.
        -11    1    4    4    0    0  0.47739642790E+02 -0.19512329375E+02  0.44455176781E+02  0.68088671847E+02  0.00000000000E+00 0.  1.
         11    1    4    4    0    0 -0.19803446756E+02  0.42171491458E+02  0.38697130768E+02  0.60564668949E+02  0.00000000000E+00 0. -1.
        -13    1    3    3    0    0  0.27152158679E+02  0.36689406870E+02  0.10743701233E+03  0.11673073253E+03  0.00000000000E+00 0. -1.
         13    1    3    3    0    0 -0.96805017804E+01  0.53317867898E+02  0.37144177676E+01  0.54316701402E+02  0.00000000000E+00 0.  1.
         21    1    1    2  503  502  0.20885006448E+02 -0.67482732301E+02  0.15566156867E+03  0.17094041831E+03  0.00000000000E+00 0. -1.
          2    1    1    2  501    0 -0.66292859380E+02 -0.45183704550E+02 -0.96742994084E+02  0.12568021828E+03  0.00000000000E+00 0. -1.
<scales pt_clust_5="13000.00000" pt_clust_6="13000.00000" pt_clust_7="13000.00000" pt_clust_8="13000.00000" pt_clust_9="70.64066" pt_clust_10="81.46049"></scales>
<clustering>
<clus scale="   70.641">  1  9  2 -1</clus>
<clus scale="   81.460">  2 10  1 -1</clus>
<clus scale="   91.343">  5  6 -1 -1</clus>
<clus scale="   92.174">  7  8 -1 -1</clus>
<clus scale="   96.024">  2  5  1 -1</clus>
<clus scale="   81.460">  2  5  1 -1</clus>
</clustering>
</event>
<event>
10    2  0.3544405E-006  0.1777656E+03  0.7546771E-02  0.1170099E+00
         21   -1    0    0  503  502  0.00000000000E+00  0.00000000000E+00  0.44438173572E+03  0.44438173572E+03  0.00000000000E+00 0. -1.
         -1   -1    0    0    0  501 -0.00000000000E+00 -0.00000000000E+00 -0.23348257599E+03  0.23348257599E+03  0.00000000000E+00 0.  1.
         23    2    1    2    0    0  0.40144468992E+02 -0.17460765894E+03 -0.76702930861E+02  0.21531206901E+03  0.91523409597E+02 0.  0.
         23    2    1    2    0    0  0.90985667851E+01  0.12555947271E+03 -0.79209892959E-01  0.15510388630E+03  0.90604879376E+02 0.  0.
        -11    1    4    4    0    0  0.31468995423E+02  0.18582112148E+02 -0.23342240188E+02  0.43364187318E+02  0.00000000000E+00 0.  1.
         11    1    4    4    0    0 -0.22370428638E+02  0.10697736056E+03  0.23263030295E+02  0.11173969898E+03  0.00000000000E+00 0. -1.
        -13    1    3    3    0    0 -0.22837032129E+02 -0.41068680701E+02  0.38014437231E+01  0.47144644928E+02  0.00000000000E+00 0. -1.
         13    1    3    3    0    0  0.62981501122E+02 -0.13353897824E+03 -0.80504374584E+02  0.16816742408E+03  0.00000000000E+00 0.  1.
         21    1    1    2  503  501 -0.57001983121E+02  0.67556335382E+02  0.23506340669E+03  0.25113321105E+03  0.00000000000E+00 0. -1.
         -1    1    1    2    0  502  0.77589473433E+01 -0.18508149148E+02  0.52617893790E+02  0.56315145349E+02  0.00000000000E+00 0.  1.
<scales pt_clust_5="13000.00000" pt_clust_6="13000.00000" pt_clust_7="13000.00000" pt_clust_8="13000.00000" pt_clust_9="76.54452" pt_clust_10="20.06870"></scales>
<clustering>
<clus scale="   20.069">  1 10  2 -1</clus>
<clus scale="   76.545">  1  9  2 -1</clus>
<clus scale="   90.605">  5  6 -1 -1</clus>
<clus scale="   91.523">  7  8 -1 -1</clus>
<clus scale="  177.294">  1  5  2 -1</clus>
<clus scale="   20.069">  1  5  2 -1</clus>
</clustering>
</event>
<event>
10    2  0.3544405E-006  0.2616162E+03  0.7546771E-02  0.1106398E+00
         21   -1    0    0  503  502  0.00000000000E+00  0.00000000000E+00  0.22585085770E+03  0.22585085770E+03  0.00000000000E+00 0.  1.
         -4   -1    0    0    0  501 -0.00000000000E+00 -0.00000000000E+00 -0.79883248999E+03  0.79883248999E+03  0.00000000000E+00 0.  1.
         23    2    1    2    0    0  0.10849924831E+03  0.24754500861E+03 -0.44767640698E+03  0.53175366410E+03  0.96421863427E+02 0.  0.
         23    2    1    2    0    0 -0.23018010218E+02 -0.20321046534E+03 -0.12300376662E+03  0.25588724956E+03  0.92325705328E+02 0.  0.
        -13    1    3    3    0    0  0.26374113164E+02  0.10064341186E+03 -0.25793045127E+03  0.27812372766E+03  0.00000000000E+00 0.  1.
         13    1    3    3    0    0  0.82125135145E+02  0.14690159675E+03 -0.18974595571E+03  0.25362993644E+03  0.00000000000E+00 0. -1.
        -13    1    4    4    0    0  0.35283888447E+02 -0.88746163184E+02 -0.44706588925E+02  0.10544910316E+03  0.00000000000E+00 0.  1.
         13    1    4    4    0    0 -0.58301898665E+02 -0.11446430215E+03 -0.78297177697E+02  0.15043814640E+03  0.00000000000E+00 0. -1.
         21    1    1    2  503  501 -0.31972665523E+02  0.16025843185E+02 -0.10241281869E+03  0.10847794441E+03  0.00000000000E+00 0.  1.
         -4    1    1    2    0  502 -0.53508572568E+02 -0.60360386458E+02  0.10011136000E+03  0.12856448963E+03  0.00000000000E+00 0.  1.
<scales pt_clust_5="13000.00000" pt_clust_6="13000.00000" pt_clust_7="13000.00000" pt_clust_8="13000.00000" pt_clust_9="35.76421" pt_clust_10="80.85537"></scales>
<clustering>
<clus scale="   35.764">  2  9  1 -1</clus>
<clus scale="   80.855">  1 10  2 -1</clus>
<clus scale="   92.326">  7  8 -1 -1</clus>
<clus scale="   96.422">  5  6 -1 -1</clus>
<clus scale="  260.134">  1  7  2 -1</clus>
<clus scale="   80.855">  1  5  2 -1</clus>
</clustering>
</event>
<event>
10    2  0.3544405E-006  0.1357490E+03  0.7546771E-02  0.1219276E+00
         21   -1    0    0  501  502  0.00000000000E+00  0.00000000000E+00  0.17780220232E+03  0.17780220232E+03  0.00000000000E+00 0. -1.
          1   -1    0    0  503    0 -0.00000000000E+00 -0.00000000000E+00 -0.49278665128E+03  0.49278665128E+03  0.00000000000E+00 0. -1.
         23    2    1    2    0    0  0.34373290843E+02 -0.10489704011E+03 -0.14460747774E+03  0.20322661717E+03  0.90580478915E+02 0.  0.
         23    2    1    2    0    0  0.72968820682E+02  0.77867383621E+02  0.63804559095E+02  0.15410635642E+03  0.91049267455E+02 0.  0.
        -11    1    4    4    0    0 -0.13457162841E+02  0.41895511215E+02  0.34804361015E+02  0.56104123176E+02  0.00000000000E+00 0.  1.
         11    1    4    4    0    0  0.86425983523E+02  0.35971872407E+02  0.29000198080E+02  0.98002233245E+02  0.00000000000E+00 0. -1.
        -11    1    3    3    0    0 -0.19097814147E+02 -0.77911602433E+02 -0.10179586305E+03  0.12960456023E+03  0.00000000000E+00 0.  1.
         11    1    3    3    0    0  0.53471104991E+02 -0.26985437682E+02 -0.42811614696E+02  0.73622056944E+02  0.00000000000E+00 0. -1.
         21    1    1    2  503  502 -0.75263515209E+02  0.45463200720E+01 -0.25706069447E+03  0.26789077325E+03  0.00000000000E+00 0. -1.
          1    1    1    2  501    0 -0.32078596316E+02  0.22483336421E+02  0.22879164168E+02  0.45365106759E+02  0.00000000000E+00 0. -1.
<scales pt_clust_5="13000.00000" pt_clust_6="13000.00000" pt_clust_7="13000.00000" pt_clust_8="13000.00000" pt_clust_9="76.66247" pt_clust_10="39.17316"></scales>
<clustering>
<clus scale="   39.173">  1 10  2 -1</clus>
<clus scale="   76.662">  2  9  1 -1</clus>
<clus scale="   90.580">  7  8 -1 -1</clus>
<clus scale="   91.049">  5  6 -1 -1</clus>
<clus scale="  135.435">  2  7  1 -1</clus>
<clus scale="   39.173">  1  5  2 -1</clus>
</clustering>
</event>
<event>
10    2  0.3544405E-006  0.1416245E+03  0.7546771E-02  0.1211358E+00
         21   -1    0    0  503  502  0.00000000000E+00  0.00000000000E+00  0.11504987395E+04  0.11504987395E+04  0.00000000000E+00 0.  1.
         -1   -1    0    0    0  501 -0.00000000000E+00 -0.00000000000E+00 -0.16267817871E+03  0.16267817871E+03  0.00000000000E+00 0.  1.
         23    2    1    2    0    0  0.23578546263E+02 -0.11621938102E+03 -0.77863851422E+02  0.16768171160E+03  0.89395104336E+02 0.  0.
         23    2    1    2    0    0  0.20330401035E+01  0.22000760366E+03  0.60935397680E+03  0.65412535472E+03  0.90334000942E+02 0.  0.
        -11    1    4    4    0    0  0.22516394035E+02  0.20599611041E+03  0.48657752628E+03  0.52886583798E+03  0.00000000000E+00 0.  1.
         11    1    4    4    0    0 -0.20483353932E+02  0.14011493256E+02  0.12277645053E+03  0.12525951674E+03  0.00000000000E+00 0. -1.
        -11    1    3    3    0    0  0.50884384125E+02 -0.32815650460E+02 -0.27541448414E+02  0.66517808471E+02  0.00000000000E+00 0. -1.
         11    1    3    3    0    0 -0.27305837862E+02 -0.83403730557E+02 -0.50322403008E+02  0.10116390313E+03  0.00000000000E+00 0.  1.
         21    1    1    2  503  501 -0.37926766779E+01  0.22333549387E+02  0.63310416641E+01  0.23521350156E+02  0.00000000000E+00 0.  1.
         -1    1    1    2    0  502 -0.21818909689E+02 -0.12612177203E+03  0.44999939372E+03  0.46784850171E+03  0.00000000000E+00 0.  1.
<scales pt_clust_5="13000.00000" pt_clust_6="13000.00000" pt_clust_7="13000.00000" pt_clust_8="13000.00000" pt_clust_9="22.65330" pt_clust_10="126.75875"></scales>
<clustering>
<clus scale="   22.653">  2  9  1 -1</clus>
<clus scale="   89.395">  7  8 -1 -1</clus>
<clus scale="   90.334">  5  6 -1 -1</clus>
<clus scale="  126.759">  1 10  2 -1</clus>
<clus scale="  141.027">  2  7  1 -1</clus>
<clus scale="  126.759">  1  5  2 -1</clus>
</clustering>
</event>
<event>
10    2  0.3544405E-006  0.1242691E+03  0.7546771E-02  0.1236891E+00
         21   -1    0    0  503  502  0.00000000000E+00  0.00000000000E+00  0.18039595161E+03  0.18039595161E+03  0.00000000000E+00 0. -1.
         -1   -1    0    0    0  501 -0.00000000000E+00 -0.00000000000E+00 -0.22668993834E+03  0.22668993834E+03  0.00000000000E+00 0.  1.
         23    2    1    2    0    0  0.16244861001E+02  0.45260943947E+02 -0.36404969088E+02  0.10872222325E+03  0.90458562324E+02 0.  0.
         23    2    1    2    0    0 -0.26184267242E+02 -0.96848389166E+02  0.77353181738E+02  0.15430907229E+03  0.88105327486E+02 0.  0.
        -13    1    3    3    0    0 -0.30131357178E+02  0.27946137115E+02 -0.42172024773E+02  0.58884335255E+02  0.00000000000E+00 0. -1.
         13    1    3    3    0    0  0.46376218180E+02  0.17314806832E+02  0.57670556846E+01  0.49837887992E+02  0.00000000000E+00 0.  1.
        -13    1    4    4    0    0 -0.18606252017E+02 -0.36677591493E+02  0.83773193301E+02  0.93324092536E+02  0.00000000000E+00 0. -1.
         13    1    4    4    0    0 -0.75780152251E+01 -0.60170797672E+02 -0.64200115629E+01  0.60984979755E+02  0.00000000000E+00 0.  1.
         21    1    1    2  503  501  0.34564377805E+02  0.72572766834E+02 -0.73437580040E+02  0.10887874384E+03  0.00000000000E+00 0.  1.
         -1    1    1    2    0  502 -0.24624971564E+02 -0.20985321615E+02 -0.13804619336E+02  0.35175850563E+02  0.00000000000E+00 0.  1.
<scales pt_clust_5="13000.00000" pt_clust_6="13000.00000" pt_clust_7="13000.00000" pt_clust_8="13000.00000" pt_clust_9="77.31185" pt_clust_10="32.35389"></scales>
<clustering>
<clus scale="   32.354">  1 10  2 -1</clus>
<clus scale="   77.312">  2  9  1 -1</clus>
<clus scale="   88.105">  7  8 -1 -1</clus>
<clus scale="   90.459">  5  6 -1 -1</clus>
<clus scale="  122.567">  1  7  2 -1</clus>
<clus scale="   32.354">  1  5  2 -1</clus>
</clustering>
</event>
<event>
10    2  0.3544405E-006  0.2471888E+03  0.7546771E-02  0.1136948E+00
         21   -1    0    0  501  502  0.00000000000E+00  0.00000000000E+00  0.73775152654E+03  0.73775152654E+03  0.00000000000E+00 0. -1.
          2   -1    0    0  503    0 -0.00000000000E+00 -0.00000000000E+00 -0.22001402929E+03  0.22001402929E+03  0.00000000000E+00 0. -1.
         23    2    1    2    0    0  0.81899295512E+02 -0.34418585227E+02  0.22759603042E+03  0.26709620277E+03  0.10792726650E+03 0.  0.
         23    2    1    2    0    0 -0.32221239810E+03 -0.30881477151E+02  0.12436391155E+03  0.35847095602E+03  0.90887560745E+02 0.  0.
        -11    1    4    4    0    0 -0.36221684957E+02  0.51421873906E+01  0.47858747399E+02  0.60240453641E+02  0.00000000000E+00 0.  1.
         11    1    4    4    0    0 -0.28599071314E+03 -0.36023664541E+02  0.76505164148E+02  0.29823050238E+03  0.00000000000E+00 0. -1.
        -13    1    3    3    0    0  0.73027027081E+02 -0.58920082890E+02  0.22117858205E+03  0.24025921004E+03  0.00000000000E+00 0. -1.
         13    1    3    3    0    0  0.88722684314E+01  0.24501497664E+02  0.64174483697E+01  0.26836992724E+02  0.00000000000E+00 0.  1.
         21    1    1    2  503  502  0.57926468483E+02 -0.13387420641E+02 -0.17448367890E+02  0.61960828951E+02  0.00000000000E+00 0. -1.
          2    1    1    2  501    0  0.18238663410E+03  0.78687483019E+02  0.18322592317E+03  0.27023756809E+03  0.00000000000E+00 0. -1.
<scales pt_clust_5="13000.00000" pt_clust_6="13000.00000" pt_clust_7="13000.00000" pt_clust_8="13000.00000" pt_clust_9="59.45333" pt_clust_10="229.87331"></scales>
<clustering>
<clus scale="   59.453">  2  9  1 -1</clus>
<clus scale="   90.888">  5  6 -1 -1</clus>
<clus scale="  107.927">  7  8 -1 -1</clus>
<clus scale="  143.955">  2  7  1 -1</clus>
<clus scale="  229.873">  1 10  2 -1</clus>
<clus scale="  229.873">  1  5  2 -1</clus>
</clustering>
</event>
<event>
10    2  0.3544405E-006  0.2486395E+03  0.7546771E-02  0.1114307E+00
         21   -1    0    0  501  502  0.00000000000E+00  0.00000000000E+00  0.35354331891E+03  0.35354331891E+03  0.00000000000E+00 0. -1.
          2   -1    0    0  503    0 -0.00000000000E+00 -0.00000000000E+00 -0.43067020069E+03  0.43067020069E+03  0.00000000000E+00 0. -1.
         23    2    1    2    0    0  0.23593978971E+03 -0.16683649072E+02 -0.17113233604E+03  0.30662908057E+03  0.93750669866E+02 0.  0.
         23    2    1    2    0    0 -0.23391577321E+03  0.53316114944E+02 -0.43500209566E+02  0.26039969683E+03  0.91414095252E+02 0.  0.
        -13    1    4    4    0    0 -0.14762076842E+03 -0.11843537538E+02 -0.17001518196E+02  0.14906781098E+03  0.00000000000E+00 0.  1.
         13    1    4    4    0    0 -0.86295004789E+02  0.65159652482E+02 -0.26498691370E+02  0.11133188585E+03  0.00000000000E+00 0. -1.
        -13    1    3    3    0    0  0.13372081965E+03 -0.39194998529E+02 -0.53738391767E+02  0.14934965774E+03  0.00000000000E+00 0.  1.
         13    1    3    3    0    0  0.10221897005E+03  0.22511349457E+02 -0.11739394427E+03  0.15727942283E+03  0.00000000000E+00 0. -1.
         21    1    1    2  503  502 -0.24862616133E+02  0.14645994788E+02 -0.29338211623E+02  0.41150765553E+02  0.00000000000E+00 0. -1.
          2    1    1    2  501    0  0.22838599634E+02 -0.51278460660E+02  0.16684387544E+03  0.17603397665E+03  0.00000000000E+00 0. -1.
<scales pt_clust_5="13000.00000" pt_clust_6="13000.00000" pt_clust_7="13000.00000" pt_clust_8="13000.00000" pt_clust_9="28.85576" pt_clust_10="55.86182"></scales>
<clustering>
<clus scale="   28.856">  2  9  1 -1</clus>
<clus scale="   55.862">  1 10  2 -1</clus>
<clus scale="   91.414">  5  6 -1 -1</clus>
<clus scale="   93.751">  7  8 -1 -1</clus>
<clus scale="  247.768">  1  5  2 -1</clus>
<clus scale="   55.862">  1  5  2 -1</clus>
</clustering>
</event>
<event>
10    2  0.3544405E-006  0.1252138E+03  0.7546771E-02  0.1235151E+00
          1   -1    0    0  503    0 -0.00000000000E+00  0.00000000000E+00  0.79373427687E+03  0.79373427687E+03  0.00000000000E+00 0. -1.
         21   -1    0    0  501  502  0.00000000000E+00 -0.00000000000E+00 -0.15178661753E+03  0.15178661753E+03  0.00000000000E+00 0. -1.
         23    2    1    2    0    0  0.89061957725E+02  0.35611072979E+02  0.32163740748E+03  0.34963446572E+03  0.97946193905E+02 0.  0.
         23    2    1    2    0    0  0.38105504685E+02 -0.11508672092E+03  0.24329416255E+03  0.28490399202E+03  0.85330254417E+02 0.  0.
        -11    1    4    4    0    0  0.60522107173E+02 -0.10934517607E+03  0.20074690376E+03  0.23647116602E+03  0.00000000000E+00 0. -1.
         11    1    4    4    0    0 -0.22416602488E+02 -0.57415448464E+01  0.42547258791E+02  0.48432826007E+02  0.00000000000E+00 0.  1.
        -11    1    3    3    0    0  0.21402935080E+02  0.50095038310E+02  0.70239916076E+02  0.88888943653E+02  0.00000000000E+00 0.  1.
         11    1    3    3    0    0  0.67659022646E+02 -0.14483965331E+02  0.25139749140E+03  0.26074552207E+03  0.00000000000E+00 0. -1.
         21    1    1    2  503  502 -0.22844802261E+02  0.14783395763E+02  0.16033239286E+03  0.16262505951E+03  0.00000000000E+00 0.  1.
          1    1    1    2  501    0 -0.10432266015E+03  0.64692252175E+02 -0.83316303555E+02  0.14835737713E+03  0.00000000000E+00 0. -1.
<scales pt_clust_5="13000.00000" pt_clust_6="13000.00000" pt_clust_7="13000.00000" pt_clust_8="13000.00000" pt_clust_9="27.21091" pt_clust_10="124.15238"></scales>
<clustering>
<clus scale="   27.211">  1  9  2 -1</clus>
<clus scale="   85.330">  5  6 -1 -1</clus>
<clus scale="   97.946">  7  8 -1 -1</clus>
<clus scale="  124.152">  2 10  1 -1</clus>
<clus scale="  124.152">  2  5  1 -1</clus>
<clus scale="  124.152">  2  5  1 -1</clus>
</clustering>
</event>
<event>
10    2  0.3544405E-006  0.1322282E+03  0.7546771E-02  0.1224789E+00
         -3   -1    0    0    0  501 -0.00000000000E+00  0.00000000000E+00  0.10316151328E+04  0.10316151328E+04  0.00000000000E+00 0.  1.
         21   -1    0    0  503  502  0.00000000000E+00 -0.00000000000E+00 -0.10905320305E+03  0.10905320305E+03  0.00000000000E+00 0.  1.
         23    2    1    2    0    0 -0.23413415258E+01 -0.15523184209E+03  0.28775927673E+03  0.33894392986E+03  0.89303860850E+02 0.  0.
         23    2    1    2    0    0  0.95181302509E+01  0.46996211324E+02  0.11773828571E+03  0.15674947615E+03  0.91699812809E+02 0.  0.
        -13    1    3    3    0    0 -0.22165689514E+00 -0.11760450670E+03  0.27510648758E+03  0.29918965329E+03  0.00000000000E+00 0.  1.
         13    1    3    3    0    0 -0.21196846306E+01 -0.37627335395E+02  0.12652789147E+02  0.39754276563E+02  0.00000000000E+00 0. -1.
        -13    1    4    4    0    0 -0.21939152735E+02 -0.19465828656E+02  0.26132704608E+02  0.39283115433E+02  0.00000000000E+00 0. -1.
         13    1    4    4    0    0  0.31457282986E+02  0.66462039980E+02  0.91605581105E+02  0.11746636072E+03  0.00000000000E+00 0.  1.
         21    1    1    2  503  501  0.52749629036E+02  0.41392923572E+02  0.54642456752E+03  0.55052311983E+03  0.00000000000E+00 0.  1.
         -3    1    1    2    0  502 -0.59926417762E+02  0.66842707197E+02 -0.29360200235E+02  0.94451809983E+02  0.00000000000E+00 0.  1.
<scales pt_clust_5="13000.00000" pt_clust_6="13000.00000" pt_clust_7="13000.00000" pt_clust_8="13000.00000" pt_clust_9="67.05145" pt_clust_10="89.59020"></scales>
<clustering>
<clus scale="   67.051">  1  9  2 -1</clus>
<clus scale="   89.304">  5  6 -1 -1</clus>
<clus scale="   89.590">  2 10  1 -1</clus>
<clus scale="   91.700">  7  8 -1 -1</clus>
<clus scale="  130.578">  1  5  2 -1</clus>
<clus scale="   89.590">  2  5  1 -1</clus>
</clustering>
</event>
<event>
10    2  0.3544405E-006  0.1310106E+03  0.7546771E-02  0.1231354E+00
          1   -1    0    0  503    0 -0.00000000000E+00  0.00000000000E+00  0.15598364502E+03  0.15598364502E+03  0.00000000000E+00 0. -1.
         21   -1    0    0  501  502  0.00000000000E+00 -0.00000000000E+00 -0.31339369783E+03  0.31339369783E+03  0.00000000000E+00 0.  1.
         23    2    1    2    0    0 -0.26373696846E+02  0.81196866542E+02  0.39521770569E+02  0.11655546242E+03  0.68809174174E+02 0.  0.
         23    2    1    2    0    0  0.20083787070E+02 -0.11079961958E+03 -0.22001451551E+02  0.14605157216E+03  0.90371918521E+02 0.  0.
        -11    1    3    3    0    0  0.21295404170E+02  0.92985118420E+01  0.59403177683E+01  0.23984243504E+02  0.00000000000E+00 0. -1.
         11    1    3    3    0    0 -0.47669101016E+02  0.71898354700E+02  0.33581452801E+02  0.92571218921E+02  0.00000000000E+00 0.  1.
        -13    1    4    4    0    0  0.26424247394E+02 -0.79134469683E+02 -0.54962672988E+02  0.99906959539E+02  0.00000000000E+00 0.  1.
         13    1    4    4    0    0 -0.63404603245E+01 -0.31665149901E+02  0.32961221437E+02  0.46144612621E+02  0.00000000000E+00 0. -1.
         21    1    1    2  503  502  0.27984988862E+02  0.71419854337E+01  0.19492116307E+00  0.28882616776E+02  0.00000000000E+00 0. -1.
          1    1    1    2  501    0 -0.21695079086E+02  0.22460767607E+02 -0.17512529300E+03  0.17788769149E+03  0.00000000000E+00 0. -1.
<scales pt_clust_5="13000.00000" pt_clust_6="13000.00000" pt_clust_7="13000.00000" pt_clust_8="13000.00000" pt_clust_9="28.88196" pt_clust_10="31.08887"></scales>
<clustering>
<clus scale="   28.882">  1  9  2 -1</clus>
<clus scale="   31.089">  2 10  1 -1</clus>
<clus scale="   68.809">  5  6 -1 -1</clus>
<clus scale="   90.372">  7  8 -1 -1</clus>
<clus scale="  117.181">  1  5  2 -1</clus>
<clus scale="   31.089">  2  5  1 -1</clus>
</clustering>
</event>
<event>
10    2  0.3544405E-006  0.9514589E+02  0.7546771E-02  0.1291104E+00
          2   -1    0    0  503    0 -0.00000000000E+00  0.00000000000E+00  0.55302885574E+02  0.55302885574E+02  0.00000000000E+00 0. -1.
         21   -1    0    0  501  502  0.00000000000E+00 -0.00000000000E+00 -0.98666138144E+03  0.98666138144E+03  0.00000000000E+00 0.  1.
         23    2    1    2    0    0 -0.25977716094E+01 -0.34383572236E+02 -0.14578204728E+03  0.17590613812E+03  0.92204043634E+02 0.  0.
         23    2    1    2    0    0 -0.54871227929E+02  0.29205264693E+02 -0.34452093581E+03  0.36190313390E+03  0.91735510960E+02 0.  0.
        -11    1    3    3    0    0  0.61125577163E+01  0.30645144193E+02 -0.62576090949E+02  0.69944659431E+02  0.00000000000E+00 0.  1.
         11    1    3    3    0    0 -0.87103293257E+01 -0.65028716428E+02 -0.83205956332E+02  0.10596147869E+03  0.00000000000E+00 0. -1.
        -13    1    4    4    0    0 -0.78939394547E+02  0.19496871215E+02 -0.21621662936E+03  0.23100040435E+03  0.00000000000E+00 0.  1.
         13    1    4    4    0    0  0.24068166618E+02  0.97083934776E+01 -0.12830430646E+03  0.13090272955E+03  0.00000000000E+00 0. -1.
         21    1    1    2  503  502 -0.20450211669E+02  0.36567642003E+02  0.11837094866E+02  0.43537574736E+02  0.00000000000E+00 0. -1.
          2    1    1    2  501    0  0.77919211207E+02 -0.31389334461E+02 -0.45289260764E+03  0.46061742026E+03  0.00000000000E+00 0. -1.
<scales pt_clust_5="13000.00000" pt_clust_6="13000.00000" pt_clust_7="13000.00000" pt_clust_8="13000.00000" pt_clust_9="41.89754" pt_clust_10="79.52495"></scales>
<clustering>
<clus scale="   41.898">  1  9  2 -1</clus>
<clus scale="   79.525">  2 10  1 -1</clus>
<clus scale="   91.736">  7  8 -1 -1</clus>
<clus scale="   92.204">  5  6 -1 -1</clus>
<clus scale="   94.692">  2  7  1 -1</clus>
<clus scale="   79.525">  2  5  1 -1</clus>
</clustering>
</event>
<event>
10    2  0.3544405E-006  0.1367335E+03  0.7546771E-02  0.1217935E+00
          1   -1    0    0  503    0 -0.00000000000E+00  0.00000000000E+00  0.57764922570E+03  0.57764922570E+03  0.00000000000E+00 0. -1.
         21   -1    0    0  501  502  0.00000000000E+00 -0.00000000000E+00 -0.10970197897E+03  0.10970197897E+03  0.00000000000E+00 0. -1.
         23    2    1    2    0    0  0.80025462156E+02  0.65446651650E+01  0.27605732404E+03  0.30173759221E+03  0.91602517198E+02 0.  0.
         23    2    1    2    0    0 -0.17448714011E+03 -0.43592246250E+02  0.17189606494E+03  0.26490310418E+03  0.90990941665E+02 0.  0.
        -11    1    3    3    0    0  0.63652875575E+01  0.36721622483E+02  0.52127420914E+02  0.64080125270E+02  0.00000000000E+00 0.  1.
         11    1    3    3    0    0  0.73660174599E+02 -0.30176957318E+02  0.22392990313E+03  0.23765746694E+03  0.00000000000E+00 0. -1.
        -13    1    4    4    0    0 -0.50682638504E+02  0.21877460746E+02  0.21083923212E+02  0.59092173360E+02  0.00000000000E+00 0.  1.
         13    1    4    4    0    0 -0.12380450161E+03 -0.65469706996E+02  0.15081214173E+03  0.20581093082E+03  0.00000000000E+00 0. -1.
         21    1    1    2  503  502  0.86621381991E+02  0.14590766919E+02  0.32715483309E+02  0.93736103746E+02  0.00000000000E+00 0. -1.
          1    1    1    2  501    0  0.78402959640E+01  0.22456814166E+02 -0.12721625567E+02  0.26974404541E+02  0.00000000000E+00 0. -1.
<scales pt_clust_5="13000.00000" pt_clust_6="13000.00000" pt_clust_7="13000.00000" pt_clust_8="13000.00000" pt_clust_9="92.00605" pt_clust_10="23.78610"></scales>
<clustering>
<clus scale="   23.786">  2 10  1 -1</clus>
<clus scale="   90.991">  7  8 -1 -1</clus>
<clus scale="   91.603">  5  6 -1 -1</clus>
<clus scale="   92.006">  2  9  1 -1</clus>
<clus scale="  136.325">  2  7  1 -1</clus>
<clus scale="   23.786">  2  5  1 -1</clus>
</clustering>
</event>
<event>
10    2  0.3544405E-006  0.2916814E+03  0.7546771E-02  0.1089509E+00
         21   -1    0    0  501  502  0.00000000000E+00  0.00000000000E+00  0.91773370141E+03  0.91773370141E+03  0.00000000000E+00 0.  1.
          2   -1    0    0  503    0 -0.00000000000E+00 -0.00000000000E+00 -0.11431828922E+03  0.11431828922E+03  0.00000000000E+00 0. -1.
         23    2    1    2    0    0  0.28411632477E+03 -0.10192800886E+03  0.35417337261E+03  0.47419543858E+03  0.91165405285E+02 0.  0.
         23    2    1    2    0    0 -0.23865852331E+03  0.87854278183E+02  0.35319936642E+03  0.44450458461E+03  0.90323133022E+02 0.  0.
        -11    1    4    4    0    0 -0.22054018056E+03  0.10533193732E+03  0.31376944940E+03  0.39772359201E+03  0.00000000000E+00 0. -1.
         11    1    4    4    0    0 -0.18118342752E+02 -0.17477659141E+02  0.39429917014E+02  0.46780992602E+02  0.00000000000E+00 0.  1.
        -13    1    3    3    0    0  0.41576156821E+02 -0.27616173591E+02  0.18011381716E+02  0.53062602001E+02  0.00000000000E+00 0. -1.
         13    1    3    3    0    0  0.24254016795E+03 -0.74311835268E+02  0.33616199089E+03  0.42113283658E+03  0.00000000000E+00 0.  1.
         21    1    1    2  503  502 -0.28676439433E+02 -0.63237694097E+01  0.28902308078E+02  0.41202811195E+02  0.00000000000E+00 0. -1.
          2    1    1    2  501    0 -0.16781362018E+02  0.20397500085E+02  0.67140365093E+02  0.72149156237E+02  0.00000000000E+00 0. -1.
<scales pt_clust_5="13000.00000" pt_clust_6="13000.00000" pt_clust_7="13000.00000" pt_clust_8="13000.00000" pt_clust_9="29.87703" pt_clust_10="26.41348"></scales>
<clustering>
<clus scale="   26.413">  1 10  2 -1</clus>
<clus scale="   29.877">  2  9  1 -1</clus>
<clus scale="   90.323">  5  6 -1 -1</clus>
<clus scale="   91.165">  7  8 -1 -1</clus>
<clus scale="  291.419">  1  5  2 -1</clus>
<clus scale="   26.413">  1  5  2 -1</clus>
</clustering>
</event>
<event>
10    2  0.3544405E-006  0.9980952E+02  0.7546771E-02  0.1281529E+00
         21   -1    0    0  501  502  0.00000000000E+00  0.00000000000E+00  0.57198692373E+02  0.57198692373E+02  0.00000000000E+00 0. -1.
          1   -1    0    0  503    0 -0.00000000000E+00 -0.00000000000E+00 -0.11914645392E+04  0.11914645392E+04  0.00000000000E+00 0. -1.
         23    2    1    2    0    0  0.53740170688E+01 -0.77239494036E+02 -0.43033407619E+03  0.44667825012E+03  0.91319343511E+02 0.  0.
         23    2    1    2    0    0  0.33118611355E+02  0.43538584589E+01 -0.26385617697E+03  0.28065137402E+03  0.89606434535E+02 0.  0.
        -11    1    3    3    0    0 -0.33180161745E+02 -0.65100987446E+02 -0.20234323803E+03  0.21513216328E+03  0.00000000000E+00 0. -1.
         11    1    3    3    0    0  0.38554178814E+02 -0.12138506590E+02 -0.22799083816E+03  0.23154608684E+03  0.00000000000E+00 0.  1.
        -11    1    4    4    0    0  0.48249913811E+02 -0.29622497847E+02 -0.13154281773E+03  0.14320984413E+03  0.00000000000E+00 0.  1.
         11    1    4    4    0    0 -0.15131302457E+02  0.33976356306E+02 -0.13231335925E+03  0.13744152988E+03  0.00000000000E+00 0. -1.
         21    1    1    2  503  502 -0.39376131518E+02  0.50594462848E+02 -0.47531888212E+03  0.47962310110E+03  0.00000000000E+00 0. -1.
          1    1    1    2  501    0  0.88350309478E+00  0.22291172729E+02  0.35243288448E+02  0.41710506351E+02  0.00000000000E+00 0. -1.
<scales pt_clust_5="13000.00000" pt_clust_6="13000.00000" pt_clust_7="13000.00000" pt_clust_8="13000.00000" pt_clust_9="66.09195" pt_clust_10="22.30867"></scales>
<clustering>
<clus scale="   22.309">  1 10  2 -1</clus>
<clus scale="   66.092">  2  9  1 -1</clus>
<clus scale="   89.606">  7  8 -1 -1</clus>
<clus scale="   91.319">  5  6 -1 -1</clus>
<clus scale="   98.245">  1  7  2 -1</clus>
<clus scale="   22.309">  1  5  2 -1</clus>
</clustering>
</event>
<event>
10    2  0.3544405E-006  0.1960644E+03  0.7546771E-02  0.1175111E+00
          1   -1    0    0  503    0 -0.00000000000E+00  0.00000000000E+00  0.39925736066E+03  0.39925736066E+03  0.00000000000E+00 0. -1.
         21   -1    0    0  501  502  0.00000000000E+00 -0.00000000000E+00 -0.31114926789E+03  0.31114926789E+03  0.00000000000E+00 0. -1.
         23    2    1    2    0    0  0.32656317370E+02  0.43247476580E+02  0.12267650832E+02  0.10810974681E+03  0.92738572364E+02 0.  0.
         23    2    1    2    0    0 -0.17806568073E+03  0.79852413689E+02 -0.97867694150E+02  0.23646489289E+03  0.90850236027E+02 0.  0.
        -11    1    4    4    0    0 -0.64021063251E+02  0.51213619920E+02 -0.85133961757E+02  0.11819188995E+03  0.00000000000E+00 0.  1.
         11    1    4    4    0    0 -0.11404461748E+03  0.28638793769E+02 -0.12733732393E+02  0.11827300295E+03  0.00000000000E+00 0. -1.
        -11    1    3    3    0    0 -0.13738122436E+02  0.55956763431E+02 -0.28426372648E+01  0.57688612121E+02  0.00000000000E+00 0.  1.
         11    1    3    3    0    0  0.46394439806E+02 -0.12709286852E+02  0.15110288097E+02  0.50421134691E+02  0.00000000000E+00 0. -1.
         21    1    1    2  503  502  0.66764807802E+02  0.27919026655E+02  0.18148894132E+03  0.19538487002E+03  0.00000000000E+00 0.  1.
          1    1    1    2  501    0  0.78644555560E+02 -0.15101891692E+03 -0.77808052359E+01  0.17044711883E+03  0.00000000000E+00 0. -1.
<scales pt_clust_5="13000.00000" pt_clust_6="13000.00000" pt_clust_7="13000.00000" pt_clust_8="13000.00000" pt_clust_9="72.36720" pt_clust_10="173.74555"></scales>
<clustering>
<clus scale="   72.367">  1  9  2 -1</clus>
<clus scale="   90.850">  5  6 -1 -1</clus>
<clus scale="   92.739">  7  8 -1 -1</clus>
<clus scale="  117.892">  1  7  2 -1</clus>
<clus scale="  173.746">  2 10  1 -1</clus>
<clus scale="  173.746">  2  5  1 -1</clus>
</clustering>
</event>
<event>
10    2  0.3544405E-006  0.2745557E+03  0.7546771E-02  0.1098728E+00
         -3   -1    0    0    0  501 -0.00000000000E+00  0.00000000000E+00  0.12411624887E+04  0.12411624887E+04  0.00000000000E+00 0.  1.
         21   -1    0    0  503  502  0.00000000000E+00 -0.00000000000E+00 -0.15698017769E+03  0.15698017769E+03  0.00000000000E+00 0.  1.
         23    2    1    2    0    0 -0.14748321263E+03  0.22424532006E+03  0.89386467134E+03  0.93764395467E+03  0.90248952856E+02 0.  0.
         23    2    1    2    0    0  0.60544713863E+02 -0.21311227609E+03  0.85094929365E+02  0.25368954457E+03  0.89636674539E+02 0.  0.
        -13    1    3    3    0    0 -0.13214400003E+03  0.20331257447E+03  0.86708709508E+03  0.90035441363E+03  0.00000000000E+00 0.  1.
         13    1    3    3    0    0 -0.15339212602E+02  0.20932745588E+02  0.26777576252E+02  0.37289541041E+02  0.00000000000E+00 0. -1.
        -13    1    4    4    0    0  0.55709964073E+02 -0.63981606414E+02  0.65997369946E+01  0.85092905607E+02  0.00000000000E+00 0.  1.
         13    1    4    4    0    0  0.48347497907E+01 -0.14913066968E+03  0.78495192370E+02  0.16859663896E+03  0.00000000000E+00 0. -1.
         21    1    1    2  503  501  0.40059991395E+02  0.27561882032E+02  0.13178766473E+03  0.14047223508E+03  0.00000000000E+00 0. -1.
         -3    1    1    2    0  502  0.46878507369E+02 -0.38694925998E+02 -0.26564954434E+02  0.66336932061E+02  0.00000000000E+00 0.  1.
<scales pt_clust_5="13000.00000" pt_clust_6="13000.00000" pt_clust_7="13000.00000" pt_clust_8="13000.00000" pt_clust_9="48.62572" pt_clust_10="61.03165"></scales>
<clustering>
<clus scale="   48.626">  1  9  2 -1</clus>
<clus scale="   61.032">  2 10  1 -1</clus>
<clus scale="   89.637">  7  8 -1 -1</clus>
<clus scale="   90.249">  5  6 -1 -1</clus>
<clus scale="  274.355">  2  7  1 -1</clus>
<clus scale="   61.032">  2  5  1 -1</clus>
</clustering>
</event>
<event>
10    2  0.3544405E-006  0.9654794E+02  0.7546771E-02  0.1291518E+00
          2   -1    0    0  503    0 -0.00000000000E+00  0.00000000000E+00  0.67487445426E+03  0.67487445426E+03  0.00000000000E+00 0. -1.
         21   -1    0    0  501  502  0.00000000000E+00 -0.00000000000E+00 -0.29270779860E+02  0.29270779860E+02  0.00000000000E+00 0.  1.
         23    2    1    2    0    0  0.14213276875E+02 -0.10679258717E+02  0.34388150234E+03  0.35566419577E+03  0.89030717721E+02 0.  0.
         23    2    1    2    0    0  0.29501871268E+01  0.70749459839E+00  0.19890864198E+03  0.22075999054E+03  0.95713747281E+02 0.  0.
        -11    1    4    4    0    0 -0.39066643661E+01  0.47864755447E+02  0.10448148652E+03  0.11498990332E+03  0.00000000000E+00 0.  1.
         11    1    4    4    0    0  0.68568514929E+01 -0.47157260848E+02  0.94427155458E+02  0.10577008722E+03  0.00000000000E+00 0. -1.
        -13    1    3    3    0    0  0.47451117006E+02 -0.26029589103E+02  0.19898227436E+03  0.20621128370E+03  0.00000000000E+00 0.  1.
         13    1    3    3    0    0 -0.33237840131E+02  0.15350330386E+02  0.14489922798E+03  0.14945291208E+03  0.00000000000E+00 0. -1.
         21    1    1    2  503  502 -0.16071061552E+02 -0.23308410915E+02  0.85755043108E+02  0.90307743064E+02  0.00000000000E+00 0. -1.
          2    1    1    2  501    0 -0.10924024495E+01  0.33280175034E+02  0.17058486970E+02  0.37413304734E+02  0.00000000000E+00 0. -1.
<scales pt_clust_5="13000.00000" pt_clust_6="13000.00000" pt_clust_7="13000.00000" pt_clust_8="13000.00000" pt_clust_9="28.31185" pt_clust_10="32.25084"></scales>
<clustering>
<clus scale="   28.312">  1  9  2 -1</clus>
<clus scale="   32.251">  2 10  1 -1</clus>
<clus scale="   89.031">  7  8 -1 -1</clus>
<clus scale="   89.927">  1  7  2 -1</clus>
<clus scale="   95.714">  5  6 -1 -1</clus>
<clus scale="   32.251">  2  5  1 -1</clus>
</clustering>
</event>
<event>
10    2  0.3544405E-006  0.2105263E+03  0.7546771E-02  0.1141444E+00
         21   -1    0    0  501  502  0.00000000000E+00  0.00000000000E+00  0.19258737470E+03  0.19258737470E+03  0.00000000000E+00 0. -1.
          3   -1    0    0  503    0 -0.00000000000E+00 -0.00000000000E+00 -0.10590306147E+04  0.10590306147E+04  0.00000000000E+00 0. -1.
         23    2    1    2    0    0 -0.17225322182E+03 -0.94605650929E+02 -0.69392143276E+03  0.72697868206E+03  0.91376406760E+02 0.  0.
         23    2    1    2    0    0  0.17169484357E+03  0.48832941514E+02 -0.25277071084E+03  0.32168783581E+03  0.87899123808E+02 0.  0.
        -11    1    3    3    0    0 -0.17352718617E+03 -0.66942932720E+02 -0.55536085075E+03  0.58567799610E+03  0.00000000000E+00 0. -1.
         11    1    3    3    0    0  0.12739643434E+01 -0.27662718209E+02 -0.13856058201E+03  0.14130068596E+03  0.00000000000E+00 0.  1.
        -11    1    4    4    0    0  0.12427664530E+03  0.60857252065E+02 -0.22836570128E+03  0.26701906901E+03  0.00000000000E+00 0.  1.
         11    1    4    4    0    0  0.47418198275E+02 -0.12024310551E+02 -0.24405009556E+02  0.54668766799E+02  0.00000000000E+00 0. -1.
         21    1    1    2  503  502  0.11403022840E+02  0.26535062458E+02 -0.57020116195E+02  0.63917385119E+02  0.00000000000E+00 0. -1.
          3    1    1    2  501    0 -0.10844644593E+02  0.19237646957E+02  0.13726901981E+03  0.13903408639E+03  0.00000000000E+00 0. -1.
<scales pt_clust_5="13000.00000" pt_clust_6="13000.00000" pt_clust_7="13000.00000" pt_clust_8="13000.00000" pt_clust_9="29.75074" pt_clust_10="22.08378"></scales>
<clustering>
<clus scale="   22.084">  1 10  2 -1</clus>
<clus scale="   29.751">  1  9  2 -1</clus>
<clus scale="   87.899">  7  8 -1 -1</clus>
<clus scale="   91.376">  5  6 -1 -1</clus>
<clus scale="  209.041">  1  7  2 -1</clus>
<clus scale="   22.084">  1  5  2 -1</clus>
</clustering>
</event>
<event>
10    2  0.3544405E-006  0.1899212E+03  0.7546771E-02  0.1158849E+00
          1   -1    0    0  503    0 -0.00000000000E+00  0.00000000000E+00  0.70739714330E+02  0.70739714330E+02  0.00000000000E+00 0. -1.
         21   -1    0    0  501  502  0.00000000000E+00 -0.00000000000E+00 -0.19470035569E+04  0.19470035569E+04  0.00000000000E+00 0.  1.
         23    2    1    2    0    0 -0.95057979822E+02  0.36564126982E+02 -0.10919322649E+03  0.17502305224E+03  0.91306917551E+02 0.  0.
         23    2    1    2    0    0  0.23611679499E+03 -0.13102897140E+03 -0.13800710942E+04  0.14093907547E+04  0.94161256800E+02 0.  0.
        -13    1    4    4    0    0  0.55412767721E+02 -0.51563904929E+02 -0.22033780933E+03  0.23297673990E+03  0.00000000000E+00 0. -1.
         13    1    4    4    0    0  0.18070402727E+03 -0.79465066469E+02 -0.11597332848E+04  0.11764140148E+04  0.00000000000E+00 0.  1.
        -13    1    3    3    0    0 -0.23424284336E+02 -0.28519981066E+02 -0.47873680479E+02  0.60448124034E+02  0.00000000000E+00 0.  1.
         13    1    3    3    0    0 -0.71633695486E+02  0.65084108048E+02 -0.61319546011E+02  0.11457492820E+03  0.00000000000E+00 0. -1.
         21    1    1    2  503  502 -0.60151219054E+02  0.40106635785E+02 -0.66120391940E+02  0.97972535018E+02  0.00000000000E+00 0. -1.
          1    1    1    2  501    0 -0.80907596118E+02  0.54358208631E+02 -0.32087912997E+03  0.33535692926E+03  0.00000000000E+00 0. -1.
<scales pt_clust_5="13000.00000" pt_clust_6="13000.00000" pt_clust_7="13000.00000" pt_clust_8="13000.00000" pt_clust_9="72.29600" pt_clust_10="107.01996"></scales>
<clustering>
<clus scale="   72.296">  1  9  2 -1</clus>
<clus scale="   91.307">  7  8 -1 -1</clus>
<clus scale="   94.161">  5  6 -1 -1</clus>
<clus scale="  107.020">  2 10  1 -1</clus>
<clus scale="  188.522">  1  7  2 -1</clus>
<clus scale="  107.020">  2  5  1 -1</clus>
</clustering>
</event>
<event>
10    2  0.3544405E-006  0.9400994E+02  0.7546771E-02  0.1294833E+00
          1   -1    0    0  503    0 -0.00000000000E+00  0.00000000000E+00  0.30830546972E+03  0.30830546972E+03  0.00000000000E+00 0. -1.
         21   -1    0    0  501  502  0.00000000000E+00 -0.00000000000E+00 -0.16482083465E+03  0.16482083465E+03  0.00000000000E+00 0.  1.
         23    2    1    2    0    0  0.29213384227E+02 -0.14879332684E+02  0.16178862594E+03  0.18706879479E+03  0.88002034864E+02 0.  0.
         23    2    1    2    0    0 -0.35368487475E+02 -0.14536398052E+01  0.60149678858E+02  0.11431302875E+03  0.90534201827E+02 0.  0.
        -13    1    4    4    0    0 -0.38333939573E+02 -0.41818195232E+02  0.34505818349E+02  0.66399577375E+02  0.00000000000E+00 0.  1.
         13    1    4    4    0    0  0.29654520978E+01  0.40364555427E+02  0.25643860509E+02  0.47913451376E+02  0.00000000000E+00 0. -1.
        -13    1    3    3    0    0 -0.21284215229E+02 -0.12966476723E+01  0.51566545971E+01  0.21938327187E+02  0.00000000000E+00 0.  1.
         13    1    3    3    0    0  0.50497599456E+02 -0.13582685012E+02  0.15663197135E+03  0.16513046760E+03  0.00000000000E+00 0. -1.
         21    1    1    2  503  502 -0.30052547058E+02 -0.11318332405E+02  0.36187917409E+02  0.48382079321E+02  0.00000000000E+00 0.  1.
          1    1    1    2  501    0  0.36207650306E+02  0.27651304895E+02 -0.11464158714E+03  0.12336240150E+03  0.00000000000E+00 0. -1.
<scales pt_clust_5="13000.00000" pt_clust_6="13000.00000" pt_clust_7="13000.00000" pt_clust_8="13000.00000" pt_clust_9="32.11324" pt_clust_10="45.05479"></scales>
<clustering>
<clus scale="   32.113">  1  9  2 -1</clus>
<clus scale="   45.055">  2 10  1 -1</clus>
<clus scale="   88.002">  7  8 -1 -1</clus>
<clus scale="   90.534">  5  6 -1 -1</clus>
<clus scale="   91.574">  1  7  2 -1</clus>
<clus scale="   45.055">  2  5  1 -1</clus>
</clustering>
</event>
<event>
10    2  0.3544405E-006  0.9474037E+02  0.7546771E-02  0.1294288E+00
         21   -1    0    0  501  502  0.00000000000E+00  0.00000000000E+00  0.47432697076E+02  0.47432697076E+02  0.00000000000E+00 0. -1.
          2   -1    0    0  503    0 -0.00000000000E+00 -0.00000000000E+00 -0.48521100176E+03  0.48521100176E+03  0.00000000000E+00 0. -1.
         23    2    1    2    0    0  0.84690732838E+01  0.48726325260E+02 -0.32157122351E+03  0.33798852757E+03  0.91554426466E+02 0.  0.
         23    2    1    2    0    0  0.19528198781E+01  0.16819206141E+01 -0.83881225972E+02  0.12090529674E+03  0.87036706893E+02 0.  0.
        -11    1    4    4    0    0 -0.37057027821E+02 -0.17078033663E+02 -0.25097532679E+02  0.47903744022E+02  0.00000000000E+00 0. -1.
         11    1    4    4    0    0  0.39009847700E+02  0.18759954277E+02 -0.58783693293E+02  0.73001552718E+02  0.00000000000E+00 0.  1.
        -11    1    3    3    0    0 -0.30415575010E+02  0.50832340331E+02 -0.24530018371E+03  0.25235137042E+03  0.00000000000E+00 0. -1.
         11    1    3    3    0    0  0.38884648293E+02 -0.21060150709E+01 -0.76271039803E+02  0.85637157151E+02  0.00000000000E+00 0.  1.
         21    1    1    2  503  502 -0.12162762883E+00 -0.20058522960E+02 -0.36280927932E+02  0.41456783139E+02  0.00000000000E+00 0.  1.
          2    1    1    2  501    0 -0.10300265533E+02 -0.30349722914E+02  0.39550727279E+01  0.32293091387E+02  0.00000000000E+00 0. -1.
<scales pt_clust_5="13000.00000" pt_clust_6="13000.00000" pt_clust_7="13000.00000" pt_clust_8="13000.00000" pt_clust_9="20.05889" pt_clust_10="32.65481"></scales>
<clustering>
<clus scale="   20.059">  2  9  1 -1</clus>
<clus scale="   32.655">  1 10  2 -1</clus>
<clus scale="   87.037">  5  6 -1 -1</clus>
<clus scale="   90.382">  1  5  2 -1</clus>
<clus scale="   91.554">  7  8 -1 -1</clus>
<clus scale="   32.655">  1  5  2 -1</clus>
</clustering>
</event>
<event>
10    2  0.3544405E-006  0.9490026E+02  0.7546771E-02  0.1292176E+00
          1   -1    0    0  503    0 -0.00000000000E+00  0.00000000000E+00  0.18577578545E+03  0.18577578545E+03  0.00000000000E+00 0. -1.
         21   -1    0    0  501  502  0.00000000000E+00 -0.00000000000E+00 -0.15467469181E+03  0.15467469181E+03  0.00000000000E+00 0. -1.
         23    2    1    2    0    0 -0.15759295520E+02  0.19742445166E+02  0.46682573487E+02  0.10646646381E+03  0.92291525681E+02 0.  0.
         23    2    1    2    0    0  0.10383543966E+02  0.42243140408E+02  0.11533481064E+02  0.10392366919E+03  0.93673939470E+02 0.  0.
        -11    1    3    3    0    0  0.57048238623E+01  0.47162809714E+02  0.52892436230E+02  0.71094904499E+02  0.00000000000E+00 0. -1.
         11    1    3    3    0    0 -0.21464119383E+02 -0.27420364548E+02 -0.62098627432E+01  0.35371559311E+02  0.00000000000E+00 0.  1.
        -13    1    4    4    0    0 -0.13002696839E+02  0.67371906500E+02  0.37063470313E+01  0.68715216065E+02  0.00000000000E+00 0.  1.
         13    1    4    4    0    0  0.23386240804E+02 -0.25128766093E+02  0.78271340331E+01  0.35208453125E+02  0.00000000000E+00 0. -1.
         21    1    1    2  503  502  0.82030646726E+01 -0.22639861269E+02  0.43187438184E+02  0.49447026252E+02  0.00000000000E+00 0. -1.
          1    1    1    2  501    0 -0.28273131177E+01 -0.39345724305E+02 -0.70302399101E+02  0.80613318006E+02  0.00000000000E+00 0. -1.
<scales pt_clust_5="13000.00000" pt_clust_6="13000.00000" pt_clust_7="13000.00000" pt_clust_8="13000.00000" pt_clust_9="24.08015" pt_clust_10="40.26186"></scales>
<clustering>
<clus scale="   24.080">  1  9  2 -1</clus>
<clus scale="   40.262">  2 10  1 -1</clus>
<clus scale="   92.292">  5  6 -1 -1</clus>
<clus scale="   93.536">  1  5  2 -1</clus>
<clus scale="   93.674">  7  8 -1 -1</clus>
<clus scale="   40.262">  2  5  1 -1</clus>
</clustering>
</event>
<event>
10    2  0.3544405E-006  0.1126889E+03  0.7546771E-02  0.1258109E+00
          1   -1    0    0  503    0 -0.00000000000E+00  0.00000000000E+00  0.56522927489E+03  0.56522927489E+03  0.00000000000E+00 0. -1.
         21   -1    0    0  501  502  0.00000000000E+00 -0.00000000000E+00 -0.26196034595E+03  0.26196034595E+03  0.00000000000E+00 0.  1.
         23    2    1    2    0    0  0.33320133084E+01  0.47771155293E+02  0.18953197695E+03  0.21859168428E+03  0.97809859198E+02 0.  0.
         23    2    1    2    0    0 -0.46242701146E+02  0.32051826442E+02 -0.18150671042E+03  0.21097565921E+03  0.91653346188E+02 0.  0.
        -13    1    4    4    0    0 -0.28120176514E+02 -0.25676672792E+02 -0.11463176930E+03  0.12079105259E+03  0.00000000000E+00 0. -1.
         13    1    4    4    0    0 -0.18122524632E+02  0.57728499234E+02 -0.66874941115E+02  0.90184606625E+02  0.00000000000E+00 0.  1.
        -13    1    3    3    0    0  0.35844086785E+02  0.47432463941E+02  0.57843762990E+02  0.82949009095E+02  0.00000000000E+00 0.  1.
         13    1    3    3    0    0 -0.32512073477E+02  0.33869135239E+00  0.13168821396E+03  0.13564267518E+03  0.00000000000E+00 0. -1.
         21    1    1    2  503  502  0.34318272129E+02 -0.10187766115E+03  0.33473880273E+03  0.35157768373E+03  0.00000000000E+00 0. -1.
          1    1    1    2  501    0  0.85924157087E+01  0.22054679413E+02 -0.39495140325E+02  0.46044593614E+02  0.00000000000E+00 0. -1.
<scales pt_clust_5="13000.00000" pt_clust_6="13000.00000" pt_clust_7="13000.00000" pt_clust_8="13000.00000" pt_clust_9="106.80669" pt_clust_10="23.66936"></scales>
<clustering>
<clus scale="   23.669">  2 10  1 -1</clus>
<clus scale="   91.653">  5  6 -1 -1</clus>
<clus scale="   97.810">  7  8 -1 -1</clus>
<clus scale="  106.807">  1  9  2 -1</clus>
<clus scale="  107.389">  2  5  1 -1</clus>
<clus scale="   23.669">  2  5  1 -1</clus>
</clustering>
</event>
<event>
10    2  0.3544405E-006  0.1368122E+03  0.7546771E-02  0.1221009E+00
          3   -1    0    0  503    0 -0.00000000000E+00  0.00000000000E+00  0.12038480893E+03  0.12038480893E+03  0.00000000000E+00 0. -1.
         21   -1    0    0  501  502  0.00000000000E+00 -0.00000000000E+00 -0.61318611980E+03  0.61318611980E+03  0.00000000000E+00 0.  1.
         23    2    1    2    0    0  0.64645761302E+02  0.43846359291E+02  0.22606243687E+02  0.13161985805E+03  0.10349476848E+03 0.  0.
         23    2    1    2    0    0 -0.87178834627E+02 -0.81929604632E+02 -0.99822053512E+02  0.18040690318E+03  0.90937335708E+02 0.  0.
        -13    1    4    4    0    0 -0.45406720466E+02 -0.52626391109E+02 -0.10829561485E+03  0.12868273972E+03  0.00000000000E+00 0.  1.
         13    1    4    4    0    0 -0.41772114162E+02 -0.29303213523E+02  0.84735613405E+01  0.51724163464E+02  0.00000000000E+00 0. -1.
        -13    1    3    3    0    0 -0.12932492719E+02  0.26108673239E+02  0.40656132241E+02  0.50018329391E+02  0.00000000000E+00 0.  1.
         13    1    3    3    0    0  0.77578254021E+02  0.17737686052E+02 -0.18049888554E+02  0.81601528663E+02  0.00000000000E+00 0. -1.
         21    1    1    2  503  502  0.35119525394E+02  0.66105988519E+01 -0.17789384779E+03  0.18144779459E+03  0.00000000000E+00 0.  1.
          3    1    1    2  501    0 -0.12586452069E+02  0.31472646489E+02 -0.23769165326E+03  0.24009637290E+03  0.00000000000E+00 0. -1.
<scales pt_clust_5="13000.00000" pt_clust_6="13000.00000" pt_clust_7="13000.00000" pt_clust_8="13000.00000" pt_clust_9="36.29323" pt_clust_10="33.89611"></scales>
<clustering>
<clus scale="   33.896">  2 10  1 -1</clus>
<clus scale="   36.293">  2  9  1 -1</clus>
<clus scale="   90.937">  5  6 -1 -1</clus>
<clus scale="  103.495">  7  8 -1 -1</clus>
<clus scale="  127.577">  2  5  1 -1</clus>
<clus scale="   33.896">  2  5  1 -1</clus>
</clustering>
</event>
<event>
10    2  0.3544405E-006  0.9598398E+02  0.7546771E-02  0.1290067E+00
         21   -1    0    0  503  502  0.00000000000E+00  0.00000000000E+00  0.24440329499E+03  0.24440329499E+03  0.00000000000E+00 0. -1.
         -2   -1    0    0    0  501 -0.00000000000E+00 -0.00000000000E+00 -0.17217357702E+03  0.17217357702E+03  0.00000000000E+00 0.  1.
         23    2    1    2    0    0 -0.41607063926E+01  0.23163085061E+02 -0.50483328972E+02  0.10612332745E+03  0.90331357443E+02 0.  0.
         23    2    1    2    0    0 -0.33463898512E+02 -0.71511267581E+02  0.78285915973E+02  0.14453912761E+03  0.92353564497E+02 0.  0.
        -11    1    4    4    0    0 -0.33884650248E+02 -0.48286018280E+02 -0.39152678245E+01  0.59118849835E+02  0.00000000000E+00 0.  1.
         11    1    4    4    0    0  0.42075173526E+00 -0.23225249301E+02  0.82201183797E+02  0.85420277773E+02  0.00000000000E+00 0. -1.
        -11    1    3    3    0    0 -0.16405713745E+02 -0.28553484874E+02 -0.40242692843E+02  0.51999262199E+02  0.00000000000E+00 0. -1.
         11    1    3    3    0    0  0.12245007352E+02  0.51716569935E+02 -0.10240636129E+02  0.54124065250E+02  0.00000000000E+00 0.  1.
         21    1    1    2  503  501  0.13476452262E+02 -0.18798074482E+02 -0.45544582642E+02  0.51081223340E+02  0.00000000000E+00 0. -1.
         -2    1    1    2    0  502  0.24148152643E+02  0.67146257003E+02  0.89971713616E+02  0.11483319362E+03  0.00000000000E+00 0.  1.
<scales pt_clust_5="13000.00000" pt_clust_6="13000.00000" pt_clust_7="13000.00000" pt_clust_8="13000.00000" pt_clust_9="23.12969" pt_clust_10="70.06503"></scales>
<clustering>
<clus scale="   23.130">  2  9  1 -1</clus>
<clus scale="   70.065">  1 10  2 -1</clus>
<clus scale="   90.331">  7  8 -1 -1</clus>
<clus scale="   92.354">  5  6 -1 -1</clus>
<clus scale="   94.040">  2  7  1 -1</clus>
<clus scale="   70.065">  1  5  2 -1</clus>
</clustering>
</event>
<event>
10    2  0.3544405E-006  0.2092576E+03  0.7546771E-02  0.1142212E+00
          1   -1    0    0  503    0 -0.00000000000E+00  0.00000000000E+00  0.32510926555E+03  0.32510926555E+03  0.00000000000E+00 0. -1.
         21   -1    0    0  501  502  0.00000000000E+00 -0.00000000000E+00 -0.36964534782E+03  0.36964534782E+03  0.00000000000E+00 0. -1.
         23    2    1    2    0    0  0.13111522840E+03 -0.18249224877E+03 -0.13492525742E+02  0.24281499659E+03  0.91007968526E+02 0.  0.
         23    2    1    2    0    0 -0.14136743481E+03  0.10511424958E+03 -0.17099329657E+02  0.19931777086E+03  0.91659312762E+02 0.  0.
        -13    1    4    4    0    0 -0.41948654441E+02  0.12161297410E+02  0.32517640477E+02  0.54451663945E+02  0.00000000000E+00 0.  1.
         13    1    4    4    0    0 -0.99418780366E+02  0.92952952173E+02 -0.49616970135E+02  0.14486610691E+03  0.00000000000E+00 0. -1.
        -13    1    3    3    0    0  0.32536427633E+02 -0.13434126191E+02 -0.30231143147E+02  0.46400612987E+02  0.00000000000E+00 0.  1.
         13    1    3    3    0    0  0.98578800769E+02 -0.16905812258E+03  0.16738617405E+02  0.19641438360E+03  0.00000000000E+00 0. -1.
         21    1    1    2  503  502 -0.47189246877E+02  0.86373941090E+02  0.90098656235E+02  0.13343556713E+03  0.00000000000E+00 0. -1.
          1    1    1    2  501    0  0.57441453282E+02 -0.89959419016E+01 -0.10404288311E+03  0.11918627879E+03  0.00000000000E+00 0. -1.
<scales pt_clust_5="13000.00000" pt_clust_6="13000.00000" pt_clust_7="13000.00000" pt_clust_8="13000.00000" pt_clust_9="95.52678" pt_clust_10="58.14162"></scales>
<clustering>
<clus scale="   58.142">  2 10  1 -1</clus>
<clus scale="   91.008">  7  8 -1 -1</clus>
<clus scale="   91.659">  5  6 -1 -1</clus>
<clus scale="   95.527">  1  9  2 -1</clus>
<clus scale="  208.973">  1  7  2 -1</clus>
<clus scale="   58.142">  2  5  1 -1</clus>
</clustering>
</event>
<event>
10    2  0.3544405E-006  0.1950357E+03  0.7546771E-02  0.1154298E+00
         21   -1    0    0  501  502  0.00000000000E+00  0.00000000000E+00  0.11410723839E+03  0.11410723839E+03  0.00000000000E+00 0.  1.
          1   -1    0    0  503    0 -0.00000000000E+00 -0.00000000000E+00 -0.10009751823E+04  0.10009751823E+04  0.00000000000E+00 0. -1.
         23    2    1    2    0    0 -0.17106562236E+03 -0.13848125839E+03 -0.46990381100E+03  0.52653878442E+03  0.89403544848E+02 0.  0.
         23    2    1    2    0    0  0.15486693483E+03  0.79049187230E+02 -0.50235995841E+02  0.20318944583E+03  0.92356667950E+02 0.  0.
        -11    1    4    4    0    0  0.13674289800E+03  0.91841931348E+02 -0.20357678790E+02  0.16597588859E+03  0.00000000000E+00 0.  1.
         11    1    4    4    0    0  0.18124036832E+02 -0.12792744118E+02 -0.29878317051E+02  0.37213557247E+02  0.00000000000E+00 0. -1.
        -11    1    3    3    0    0 -0.17560900744E+02 -0.33518992926E+02 -0.27913172742E+02  0.47021838907E+02  0.00000000000E+00 0.  1.
         11    1    3    3    0    0 -0.15350472162E+03 -0.10496226547E+03 -0.44199063825E+03  0.47951694551E+03  0.00000000000E+00 0. -1.
         21    1    1    2  503  502  0.36797527522E+02  0.64588792564E+02 -0.35137168624E+03  0.35914876033E+03  0.00000000000E+00 0.  1.
          1    1    1    2  501    0 -0.20598839990E+02 -0.51567213985E+01 -0.15356450838E+02  0.26205430103E+02  0.00000000000E+00 0. -1.
<scales pt_clust_5="13000.00000" pt_clust_6="13000.00000" pt_clust_7="13000.00000" pt_clust_8="13000.00000" pt_clust_9="73.81243" pt_clust_10="21.23450"></scales>
<clustering>
<clus scale="   21.234">  1 10  2 -1</clus>
<clus scale="   73.812">  2  9  1 -1</clus>
<clus scale="   89.404">  7  8 -1 -1</clus>
<clus scale="   92.357">  5  6 -1 -1</clus>
<clus scale="  193.655">  2  7  1 -1</clus>
<clus scale="   21.234">  1  5  2 -1</clus>
</clustering>
</event>
<event>
10    2  0.3544405E-006  0.9305240E+02  0.7546771E-02  0.1296218E+00
          2   -1    0    0  503    0 -0.00000000000E+00  0.00000000000E+00  0.18507613779E+03  0.18507613779E+03  0.00000000000E+00 0. -1.
         21   -1    0    0  501  502  0.00000000000E+00 -0.00000000000E+00 -0.19976764817E+03  0.19976764817E+03  0.00000000000E+00 0.  1.
         23    2    1    2    0    0 -0.24354890685E+00  0.17372465195E+01  0.40881700542E+02  0.10124033475E+03  0.92602454614E+02 0.  0.
         23    2    1    2    0    0 -0.90996253514E+01 -0.17275112348E+02 -0.63055897226E+01  0.93848090356E+02  0.91577676939E+02 0.  0.
        -11    1    4    4    0    0 -0.49882180077E+02 -0.74694744916E+01 -0.11053834714E+02  0.51635377410E+02  0.00000000000E+00 0.  1.
         11    1    4    4    0    0  0.40782554726E+02 -0.98056378565E+01  0.47482449919E+01  0.42212712946E+02  0.00000000000E+00 0. -1.
        -11    1    3    3    0    0  0.42135428918E+01 -0.44811634145E+02  0.26890620041E+02  0.52430353276E+02  0.00000000000E+00 0.  1.
         11    1    3    3    0    0 -0.44570917987E+01  0.46548880665E+02  0.13991080501E+02  0.48809981479E+02  0.00000000000E+00 0. -1.
         21    1    1    2  503  502 -0.19229895858E+02  0.59215224017E+01  0.66837248435E+02  0.69800222783E+02  0.00000000000E+00 0.  1.
          2    1    1    2  501    0  0.28573070116E+02  0.96163434269E+01 -0.11610486963E+03  0.11995513807E+03  0.00000000000E+00 0. -1.
<scales pt_clust_5="13000.00000" pt_clust_6="13000.00000" pt_clust_7="13000.00000" pt_clust_8="13000.00000" pt_clust_9="20.12097" pt_clust_10="29.87914"></scales>
<clustering>
<clus scale="   20.121">  1  9  2 -1</clus>
<clus scale="   29.879">  2 10  1 -1</clus>
<clus scale="   91.578">  5  6 -1 -1</clus>
<clus scale="   92.033">  2  5  1 -1</clus>
<clus scale="   92.602">  7  8 -1 -1</clus>
<clus scale="   29.879">  2  5  1 -1</clus>
</clustering>
</event>
<event>
10    2  0.3544405E-006  0.1343403E+03  0.7546771E-02  0.1221419E+00
          2   -1    0    0  503    0 -0.00000000000E+00  0.00000000000E+00  0.77728491266E+03  0.77728491266E+03  0.00000000000E+00 0. -1.
         21   -1    0    0  501  502  0.00000000000E+00 -0.00000000000E+00 -0.20903537719E+03  0.20903537719E+03  0.00000000000E+00 0. -1.
         23    2    1    2    0    0  0.13376830563E+03 -0.67649402295E+02  0.20565610316E+03  0.27043310159E+03  0.91483487275E+02 0.  0.
         23    2    1    2    0    0 -0.67608137856E+02  0.99298221256E+02 -0.10484438555E+03  0.18436845131E+03  0.92565563833E+02 0.  0.
        -11    1    3    3    0    0  0.17791516264E+02 -0.30931162733E+02  0.53525800960E+01  0.36082197725E+02  0.00000000000E+00 0.  1.
         11    1    3    3    0    0  0.11597678937E+03 -0.36718239561E+02  0.20030352306E+03  0.23435090386E+03  0.00000000000E+00 0. -1.
        -11    1    4    4    0    0 -0.18738130582E+02 -0.15707054015E+02 -0.30034134157E+02  0.38728262265E+02  0.00000000000E+00 0.  1.
         11    1    4    4    0    0 -0.48870007274E+02  0.11500527527E+03 -0.74810251393E+02  0.14564018904E+03  0.00000000000E+00 0. -1.
         21    1    1    2  503  502 -0.73110547905E+02  0.15422347755E+02  0.47714257278E+03  0.48295759212E+03  0.00000000000E+00 0. -1.
          2    1    1    2  501    0  0.69503801267E+01 -0.47071166717E+02 -0.97047549230E+01  0.48561144840E+02  0.00000000000E+00 0. -1.
<scales pt_clust_5="13000.00000" pt_clust_6="13000.00000" pt_clust_7="13000.00000" pt_clust_8="13000.00000" pt_clust_9="74.45604" pt_clust_10="47.58154"></scales>
<clustering>
<clus scale="   47.582">  2 10  1 -1</clus>
<clus scale="   74.456">  1  9  2 -1</clus>
<clus scale="   91.483">  5  6 -1 -1</clus>
<clus scale="   92.566">  7  8 -1 -1</clus>
<clus scale="  133.597">  1  5  2 -1</clus>
<clus scale="   47.582">  2  5  1 -1</clus>
</clustering>
</event>
<event>
10    2  0.3544405E-006  0.4230503E+03  0.7546771E-02  0.1036180E+00
         -2   -1    0    0    0  501 -0.00000000000E+00  0.00000000000E+00  0.51195729849E+03  0.51195729849E+03  0.00000000000E+00 0.  1.
         21   -1    0    0  503  502  0.00000000000E+00 -0.00000000000E+00 -0.63042667098E+03  0.63042667098E+03  0.00000000000E+00 0. -1.
         23    2    1    2    0    0 -0.18807228502E+03 -0.36041124389E+03  0.14151422159E+03  0.44108755672E+03  0.96252317697E+02 0.  0.
         23    2    1    2    0    0  0.26206070639E+03  0.29220258525E+03 -0.17592892501E+03  0.43955826268E+03  0.90566632793E+02 0.  0.
        -11    1    4    4    0    0  0.19729522777E+03  0.23398672820E+03 -0.17480760547E+03  0.35246687051E+03  0.00000000000E+00 0. -1.
         11    1    4    4    0    0  0.64765478623E+02  0.58215857048E+02 -0.11213195358E+01  0.87091392172E+02  0.00000000000E+00 0.  1.
        -13    1    3    3    0    0 -0.34184598158E+02 -0.16058321511E+03  0.73361983289E+02  0.17982640607E+03  0.00000000000E+00 0.  1.
         13    1    3    3    0    0 -0.15388768686E+03 -0.19982802878E+03  0.68152238304E+02  0.26126115065E+03  0.00000000000E+00 0. -1.
         21    1    1    2  503  501 -0.96709711386E+02  0.87055901114E+01  0.52987555797E+02  0.11061752413E+03  0.00000000000E+00 0.  1.
         -2    1    1    2    0  502  0.22721290011E+02  0.59503068538E+02 -0.13704222488E+03  0.15112062594E+03  0.00000000000E+00 0.  1.
<scales pt_clust_5="13000.00000" pt_clust_6="13000.00000" pt_clust_7="13000.00000" pt_clust_8="13000.00000" pt_clust_9="96.14468" pt_clust_10="63.69358"></scales>
<clustering>
<clus scale="   63.694">  2 10  1 -1</clus>
<clus scale="   90.567">  5  6 -1 -1</clus>
<clus scale="   96.145">  1  9  2 -1</clus>
<clus scale="   96.252">  7  8 -1 -1</clus>
<clus scale="  421.793">  2  5  1 -1</clus>
<clus scale="   63.694">  2  5  1 -1</clus>
</clustering>
</event>
<event>
10    2  0.3544405E-006  0.3504996E+03  0.7546771E-02  0.1062411E+00
         -1   -1    0    0    0  501 -0.00000000000E+00  0.00000000000E+00  0.41569505035E+03  0.41569505035E+03  0.00000000000E+00 0.  1.
         21   -1    0    0  503  502  0.00000000000E+00 -0.00000000000E+00 -0.76061036089E+03  0.76061036089E+03  0.00000000000E+00 0.  1.
         23    2    1    2    0    0 -0.31397127897E+03  0.19341322537E+03 -0.17750736897E+03  0.41916097388E+03  0.90556149539E+02 0.  0.
         23    2    1    2    0    0  0.23091512093E+03 -0.22392267273E+03 -0.19105256916E+03  0.38491543259E+03  0.90529827314E+02 0.  0.
        -11    1    3    3    0    0 -0.57341264815E+02 -0.94091634751E+00 -0.34310154294E+02  0.66828831068E+02  0.00000000000E+00 0. -1.
         11    1    3    3    0    0 -0.25663001415E+03  0.19435414172E+03 -0.14319721468E+03  0.35233214281E+03  0.00000000000E+00 0.  1.
        -13    1    4    4    0    0  0.15429318922E+03 -0.88131085197E+02 -0.90755192153E+02  0.19952438778E+03  0.00000000000E+00 0.  1.
         13    1    4    4    0    0  0.76621931712E+02 -0.13579158753E+03 -0.10029737700E+03  0.18539104482E+03  0.00000000000E+00 0. -1.
         21    1    1    2  503  501  0.48275409347E+01 -0.12984252247E+03  0.11344464001E+03  0.17248788984E+03  0.00000000000E+00 0.  1.
         -1    1    1    2    0  502  0.78228617108E+02  0.16035196983E+03 -0.89800012419E+02  0.19974111493E+03  0.00000000000E+00 0.  1.
<scales pt_clust_5="13000.00000" pt_clust_6="13000.00000" pt_clust_7="13000.00000" pt_clust_8="13000.00000" pt_clust_9="129.93224" pt_clust_10="155.81247"></scales>
<clustering>
<clus scale="   90.530">  7  8 -1 -1</clus>
<clus scale="   90.556">  5  6 -1 -1</clus>
<clus scale="  129.932">  1  9  2 -1</clus>
<clus scale="  155.812">  2 10  1 -1</clus>
<clus scale="  350.493">  2  7  1 -1</clus>
<clus scale="  155.812">  2  5  1 -1</clus>
</clustering>
</event>
<event>
10    2  0.3544405E-006  0.1877848E+03  0.7546771E-02  0.1160503E+00
          2   -1    0    0  503    0 -0.00000000000E+00  0.00000000000E+00  0.16075252930E+04  0.16075252930E+04  0.00000000000E+00 0. -1.
         21   -1    0    0  501  502  0.00000000000E+00 -0.00000000000E+00 -0.84220749112E+02  0.84220749112E+02  0.00000000000E+00 0. -1.
         23    2    1    2    0    0  0.91786142466E+02 -0.10294819922E+03  0.46650874128E+03  0.49478296386E+03  0.90314716205E+02 0.  0.
         23    2    1    2    0    0 -0.95109091469E+02  0.14233321002E+03  0.25690161530E+03  0.32157905718E+03  0.90056471821E+02 0.  0.
        -11    1    3    3    0    0  0.30741765478E+02 -0.88600304033E+02  0.19854332823E+03  0.21957805720E+03  0.00000000000E+00 0. -1.
         11    1    3    3    0    0  0.61044376988E+02 -0.14347895191E+02  0.26796541305E+03  0.27520490666E+03  0.00000000000E+00 0.  1.
        -13    1    4    4    0    0 -0.20955613226E+02  0.74324387691E+02  0.17694150535E+03  0.19305840735E+03  0.00000000000E+00 0.  1.
         13    1    4    4    0    0 -0.74153478242E+02  0.68008822334E+02  0.79960109954E+02  0.12852064984E+03  0.00000000000E+00 0. -1.
         21    1    1    2  503  502 -0.33453238613E+02 -0.13603932578E+03  0.74547707925E+03  0.75852613206E+03  0.00000000000E+00 0. -1.
          2    1    1    2  501    0  0.36776187616E+02  0.96654314981E+02  0.54417108101E+02  0.11685788905E+03  0.00000000000E+00 0. -1.
<scales pt_clust_5="13000.00000" pt_clust_6="13000.00000" pt_clust_7="13000.00000" pt_clust_8="13000.00000" pt_clust_9="127.46631" pt_clust_10="103.41443"></scales>
<clustering>
<clus scale="   90.056">  7  8 -1 -1</clus>
<clus scale="   90.315">  5  6 -1 -1</clus>
<clus scale="  103.414">  2 10  1 -1</clus>
<clus scale="  127.466">  1  9  2 -1</clus>
<clus scale="  187.661">  2  7  1 -1</clus>
<clus scale="  103.414">  2  5  1 -1</clus>
</clustering>
</event>
<event>
10    2  0.3544405E-006  0.1446817E+03  0.7546771E-02  0.1207209E+00
         21   -1    0    0  503  502  0.00000000000E+00  0.00000000000E+00  0.25387211971E+03  0.25387211971E+03  0.00000000000E+00 0. -1.
         -3   -1    0    0    0  501 -0.00000000000E+00 -0.00000000000E+00 -0.64859250816E+03  0.64859250816E+03  0.00000000000E+00 0.  1.
         23    2    1    2    0    0  0.54403968829E+02 -0.11730837642E+03 -0.50344707387E+03  0.52758478107E+03  0.90364251908E+02 0.  0.
         23    2    1    2    0    0 -0.11505716636E+03  0.92721307123E+02  0.92930130961E+02  0.19666508675E+03  0.90585621267E+02 0.  0.
        -11    1    3    3    0    0  0.12117269780E+02 -0.33737908138E+02 -0.35843494310E+02  0.50693498171E+02  0.00000000000E+00 0. -1.
         11    1    3    3    0    0  0.42286699049E+02 -0.83570468280E+02 -0.46760357956E+03  0.47689128290E+03  0.00000000000E+00 0.  1.
        -13    1    4    4    0    0 -0.11995663076E+03  0.65587351336E+02  0.98540279508E+02  0.16852738829E+03  0.00000000000E+00 0. -1.
         13    1    4    4    0    0  0.48994643956E+01  0.27133955787E+02 -0.56101485466E+01  0.28137698462E+02  0.00000000000E+00 0.  1.
         21    1    1    2  503  501 -0.29832506136E+01  0.21720326002E+02 -0.68861605266E+02  0.72267510166E+02  0.00000000000E+00 0. -1.
         -3    1    1    2    0  502  0.63636448145E+02  0.28667432932E+01  0.84658159726E+02  0.10594724988E+03  0.00000000000E+00 0.  1.
<scales pt_clust_5="13000.00000" pt_clust_6="13000.00000" pt_clust_7="13000.00000" pt_clust_8="13000.00000" pt_clust_9="21.92424" pt_clust_10="63.66538"></scales>
<clustering>
<clus scale="   21.924">  2  9  1 -1</clus>
<clus scale="   63.665">  1 10  2 -1</clus>
<clus scale="   90.364">  5  6 -1 -1</clus>
<clus scale="   90.586">  7  8 -1 -1</clus>
<clus scale="  144.543">  2  5  1 -1</clus>
<clus scale="   63.665">  1  5  2 -1</clus>
</clustering>
</event>
<event>
10    2  0.3544405E-006  0.1440057E+03  0.7546771E-02  0.1227805E+00
         21   -1    0    0  501  502  0.00000000000E+00  0.00000000000E+00  0.40951078606E+03  0.40951078606E+03  0.00000000000E+00 0.  1.
          1   -1    0    0  503    0 -0.00000000000E+00 -0.00000000000E+00 -0.13116065913E+03  0.13116065913E+03  0.00000000000E+00 0. -1.
         23    2    1    2    0    0 -0.27481072018E+02 -0.17740493246E+02  0.61494595167E+02  0.11448718452E+03  0.90861409659E+02 0.  0.
         23    2    1    2    0    0  0.11409055841E+03  0.13664932895E+02 -0.14173128866E+02  0.14802229513E+03  0.92229801935E+02 0.  0.
        -11    1    4    4    0    0  0.53504210326E+02  0.33904769238E+02  0.30271563534E+02  0.70203998878E+02  0.00000000000E+00 0.  1.
         11    1    4    4    0    0  0.60586348084E+02 -0.20239836343E+02 -0.44444692400E+02  0.77818296254E+02  0.00000000000E+00 0. -1.
        -13    1    3    3    0    0  0.93876734390E+01 -0.35459690057E+02 -0.43835816375E+01  0.36942303928E+02  0.00000000000E+00 0. -1.
         13    1    3    3    0    0 -0.36868745457E+02  0.17719196812E+02  0.65878176804E+02  0.77544880593E+02  0.00000000000E+00 0.  1.
         21    1    1    2  503  502  0.23335809126E+02  0.72418482938E+01  0.25247128539E+01  0.24563764558E+02  0.00000000000E+00 0.  1.
          1    1    1    2  501    0 -0.10994529552E+03 -0.31662879432E+01  0.22850394778E+03  0.25359820097E+03  0.00000000000E+00 0. -1.
<scales pt_clust_5="13000.00000" pt_clust_6="13000.00000" pt_clust_7="13000.00000" pt_clust_8="13000.00000" pt_clust_9="24.43367" pt_clust_10="110.59529"></scales>
<clustering>
<clus scale="   24.434">  2  9  1 -1</clus>
<clus scale="   90.861">  7  8 -1 -1</clus>
<clus scale="   92.230">  5  6 -1 -1</clus>
<clus scale="   94.949">  2  7  1 -1</clus>
<clus scale="  110.595">  1 10  2 -1</clus>
<clus scale="  110.595">  1  5  2 -1</clus>
</clustering>
</event>
<event>
10    2  0.3544405E-006  0.1420084E+03  0.7546771E-02  0.1217717E+00
         21   -1    0    0  503  502  0.00000000000E+00  0.00000000000E+00  0.13867788720E+03  0.13867788720E+03  0.00000000000E+00 0. -1.
         -4   -1    0    0    0  501 -0.00000000000E+00 -0.00000000000E+00 -0.28138211225E+03  0.28138211225E+03  0.00000000000E+00 0.  1.
         23    2    1    2    0    0  0.10308073130E+03 -0.21092427075E+02 -0.36699831531E+02  0.16051381653E+03  0.11553042896E+03 0.  0.
         23    2    1    2    0    0 -0.63580965707E+02  0.20533147264E+02 -0.38443652130E+02  0.11860981445E+03  0.90145573151E+02 0.  0.
        -11    1    4    4    0    0 -0.82232139283E+02  0.30215170573E+02 -0.42233888412E+02  0.97256272776E+02  0.00000000000E+00 0.  1.
         11    1    4    4    0    0  0.18651173576E+02 -0.96820233090E+01  0.37902362815E+01  0.21353541678E+02  0.00000000000E+00 0. -1.
        -13    1    3    3    0    0  0.39556702861E+02  0.23523882225E+02  0.32644304431E+02  0.56424785227E+02  0.00000000000E+00 0. -1.
         13    1    3    3    0    0  0.63524028437E+02 -0.44616309300E+02 -0.69344135963E+02  0.10408903130E+03  0.00000000000E+00 0.  1.
         21    1    1    2  503  501 -0.53665583015E+02  0.36947063979E+02 -0.76896766783E+02  0.10078786176E+03  0.00000000000E+00 0.  1.
         -4    1    1    2    0  502  0.14165817425E+02 -0.36387784168E+02  0.93360253963E+01  0.40148506699E+02  0.00000000000E+00 0.  1.
<scales pt_clust_5="13000.00000" pt_clust_6="13000.00000" pt_clust_7="13000.00000" pt_clust_8="13000.00000" pt_clust_9="61.81036" pt_clust_10="39.04793"></scales>
<clustering>
<clus scale="   39.048">  1 10  2 -1</clus>
<clus scale="   61.810">  2  9  1 -1</clus>
<clus scale="   90.146">  5  6 -1 -1</clus>
<clus scale="  115.530">  7  8 -1 -1</clus>
<clus scale="  122.251">  1  5  2 -1</clus>
<clus scale="   39.048">  1  5  2 -1</clus>
</clustering>
</event>
<event>
10    2  0.3544405E-006  0.9419073E+02  0.7546771E-02  0.1293123E+00
         21   -1    0    0  501  502  0.00000000000E+00  0.00000000000E+00  0.31214631139E+03  0.31214631139E+03  0.00000000000E+00 0. -1.
          1   -1    0    0  503    0 -0.00000000000E+00 -0.00000000000E+00 -0.16805430903E+03  0.16805430903E+03  0.00000000000E+00 0. -1.
         23    2    1    2    0    0 -0.60910087303E+01 -0.10709256704E+02 -0.85680449690E+02  0.12583066996E+03  0.91325951826E+02 0.  0.
         23    2    1    2    0    0 -0.48208924215E+02  0.46745669826E+02  0.16879309738E+03  0.20341706894E+03  0.91532159333E+02 0.  0.
        -11    1    3    3    0    0 -0.18869156849E+02 -0.48046628589E+02 -0.38945782815E+02  0.64662953830E+02  0.00000000000E+00 0. -1.
         11    1    3    3    0    0  0.12778148119E+02  0.37337371885E+02 -0.46734666875E+02  0.61167716130E+02  0.00000000000E+00 0.  1.
        -13    1    4    4    0    0  0.25193756852E+02 -0.21589533870E+01  0.39721957655E+02  0.47087369686E+02  0.00000000000E+00 0.  1.
         13    1    4    4    0    0 -0.73402681066E+02  0.48904623213E+02  0.12907113972E+03  0.15632969925E+03  0.00000000000E+00 0. -1.
         21    1    1    2  503  502 -0.36003734901E+02  0.54063957844E+01  0.45578498507E+01  0.36691579926E+02  0.00000000000E+00 0. -1.
          1    1    1    2  501    0  0.90303667846E+02 -0.41442808906E+02  0.56421504820E+02  0.11426130160E+03  0.00000000000E+00 0. -1.
<scales pt_clust_5="13000.00000" pt_clust_6="13000.00000" pt_clust_7="13000.00000" pt_clust_8="13000.00000" pt_clust_9="36.40739" pt_clust_10="92.72374"></scales>
<clustering>
<clus scale="   36.407">  2  9  1 -1</clus>
<clus scale="   91.326">  5  6 -1 -1</clus>
<clus scale="   91.532">  7  8 -1 -1</clus>
<clus scale="   92.724">  1 10  2 -1</clus>
<clus scale="   93.990">  2  5  1 -1</clus>
<clus scale="   92.724">  1  5  2 -1</clus>
</clustering>
</event>
<event>
10    2  0.3544405E-006  0.2555072E+03  0.7546771E-02  0.1150777E+00
         21   -1    0    0  501  502  0.00000000000E+00  0.00000000000E+00  0.73860427610E+03  0.73860427610E+03  0.00000000000E+00 0. -1.
          2   -1    0    0  503    0 -0.00000000000E+00 -0.00000000000E+00 -0.39301000204E+03  0.39301000204E+03  0.00000000000E+00 0. -1.
         23    2    1    2    0    0 -0.13911399383E+02  0.33792814680E+01  0.10022882470E+03  0.13680516456E+03  0.92004832334E+02 0.  0.
         23    2    1    2    0    0  0.66093978473E+02  0.21583949466E+03 -0.26628117680E+02  0.24475733151E+03  0.90785424115E+02 0.  0.
        -11    1    3    3    0    0 -0.46589126076E+01 -0.40419006119E+02  0.20956091191E+02  0.45766355332E+02  0.00000000000E+00 0.  1.
         11    1    3    3    0    0 -0.92524867750E+01  0.43798287587E+02  0.79272733512E+02  0.91038809227E+02  0.00000000000E+00 0. -1.
        -13    1    4    4    0    0  0.63125203122E+02  0.19418227701E+03  0.73927642419E+01  0.20431887073E+03  0.00000000000E+00 0. -1.
         13    1    4    4    0    0  0.29687753513E+01  0.21657217650E+02 -0.34020881922E+02  0.40438460779E+02  0.00000000000E+00 0.  1.
         21    1    1    2  503  502 -0.23319623424E+02  0.21298759550E+02 -0.20906833194E+03  0.21144032116E+03  0.00000000000E+00 0. -1.
          2    1    1    2  501    0 -0.28862955666E+02 -0.24051753568E+03  0.48106189897E+03  0.53861146091E+03  0.00000000000E+00 0. -1.
<scales pt_clust_5="13000.00000" pt_clust_6="13000.00000" pt_clust_7="13000.00000" pt_clust_8="13000.00000" pt_clust_9="31.58231" pt_clust_10="238.83452"></scales>
<clustering>
<clus scale="   31.582">  2  9  1 -1</clus>
<clus scale="   90.785">  7  8 -1 -1</clus>
<clus scale="   92.005">  5  6 -1 -1</clus>
<clus scale="   93.590">  2  5  1 -1</clus>
<clus scale="  238.835">  1 10  2 -1</clus>
<clus scale="  238.835">  1  5  2 -1</clus>
</clustering>
</event>
<event>
10    2  0.3544405E-006  0.1829498E+03  0.7546771E-02  0.1165154E+00
          1   -1    0    0  503    0 -0.00000000000E+00  0.00000000000E+00  0.15724970325E+03  0.15724970325E+03  0.00000000000E+00 0. -1.
         21   -1    0    0  501  502  0.00000000000E+00 -0.00000000000E+00 -0.43068456070E+03  0.43068456070E+03  0.00000000000E+00 0.  1.
         23    2    1    2    0    0 -0.15251106583E+03  0.86019507429E+02 -0.32004885896E+02  0.19995897217E+03  0.91105965629E+02 0.  0.
         23    2    1    2    0    0  0.12024613801E+03 -0.42276616323E+02 -0.14664735302E+03  0.21522611542E+03  0.92576393423E+02 0.  0.
        -11    1    4    4    0    0  0.33682160702E+02 -0.28127036777E+02  0.54021322993E+00  0.43885190871E+02  0.00000000000E+00 0. -1.
         11    1    4    4    0    0  0.86563977305E+02 -0.14149579546E+02 -0.14718756625E+03  0.17134092455E+03  0.00000000000E+00 0.  1.
        -13    1    3    3    0    0 -0.80732268361E+02  0.92389335418E+02 -0.35767723176E+02  0.12779991579E+03  0.00000000000E+00 0.  1.
         13    1    3    3    0    0 -0.71778797464E+02 -0.63698279890E+01  0.37628372803E+01  0.72159056385E+02  0.00000000000E+00 0. -1.
         21    1    1    2  503  502  0.67518096432E+00  0.28248149082E+02  0.19287747781E+02  0.34211562524E+02  0.00000000000E+00 0. -1.
          1    1    1    2  501    0  0.31589746853E+02 -0.71991040188E+02 -0.11407036632E+03  0.13853761383E+03  0.00000000000E+00 0. -1.
<scales pt_clust_5="13000.00000" pt_clust_6="13000.00000" pt_clust_7="13000.00000" pt_clust_8="13000.00000" pt_clust_9="28.25622" pt_clust_10="76.22571"></scales>
<clustering>
<clus scale="   28.256">  1  9  2 -1</clus>
<clus scale="   76.226">  2 10  1 -1</clus>
<clus scale="   91.106">  7  8 -1 -1</clus>
<clus scale="   92.576">  5  6 -1 -1</clus>
<clus scale="  182.210">  1  7  2 -1</clus>
<clus scale="   76.226">  2  5  1 -1</clus>
</clustering>
</event>
<event>
10    2  0.3544405E-006  0.9511243E+02  0.7546771E-02  0.1291559E+00
          2   -1    0    0  503    0 -0.00000000000E+00  0.00000000000E+00  0.45119978426E+03  0.45119978426E+03  0.00000000000E+00 0. -1.
         21   -1    0    0  501  502  0.00000000000E+00 -0.00000000000E+00 -0.67187568331E+02  0.67187568331E+02  0.00000000000E+00 0.  1.
         23    2    1    2    0    0 -0.10218841577E+02  0.17383815767E+02  0.20184245404E+03  0.22292294204E+03  0.92453448084E+02 0.  0.
         23    2    1    2    0    0  0.17057724241E+02 -0.13214456859E+02  0.15275074672E+03  0.17925854806E+03  0.91297582670E+02 0.  0.
        -11    1    3    3    0    0 -0.43985244986E+02 -0.15121968438E+02  0.11856468200E+03  0.12736153078E+03  0.00000000000E+00 0.  1.
         11    1    3    3    0    0  0.33766403409E+02  0.32505784205E+02  0.83277772040E+02  0.95561411259E+02  0.00000000000E+00 0. -1.
        -13    1    4    4    0    0  0.42012928755E+02 -0.21141434331E+02  0.34985848643E+02  0.58617881516E+02  0.00000000000E+00 0.  1.
         13    1    4    4    0    0 -0.24955204514E+02  0.79269774717E+01  0.11776489808E+03  0.12064066654E+03  0.00000000000E+00 0. -1.
         21    1    1    2  503  502 -0.21672610872E+02  0.98505386659E+01  0.68279862960E+02  0.72310959473E+02  0.00000000000E+00 0. -1.
          2    1    1    2  501    0  0.14833728208E+02 -0.14019897574E+02 -0.38860847787E+02  0.43894903022E+02  0.00000000000E+00 0. -1.
<scales pt_clust_5="13000.00000" pt_clust_6="13000.00000" pt_clust_7="13000.00000" pt_clust_8="13000.00000" pt_clust_9="22.30459" pt_clust_10="20.41071"></scales>
<clustering>
<clus scale="   20.411">  2 10  1 -1</clus>
<clus scale="   22.305">  1  9  2 -1</clus>
<clus scale="   91.298">  7  8 -1 -1</clus>
<clus scale="   92.453">  5  6 -1 -1</clus>
<clus scale="   93.989">  2  7  1 -1</clus>
<clus scale="   20.411">  2  5  1 -1</clus>
</clustering>
</event>
<event>
10    2  0.3544405E-006  0.3947433E+03  0.7546771E-02  0.1045647E+00
         21   -1    0    0  501  502  0.00000000000E+00  0.00000000000E+00  0.18674227940E+03  0.18674227940E+03  0.00000000000E+00 0. -1.
          1   -1    0    0  503    0 -0.00000000000E+00 -0.00000000000E+00 -0.14805435034E+04  0.14805435034E+04  0.00000000000E+00 0. -1.
         23    2    1    2    0    0  0.35667696076E+03 -0.23192605082E+03 -0.90253034156E+03  0.10018228178E+04  0.89887671429E+02 0.  0.
         23    2    1    2    0    0 -0.29840359986E+03  0.11572779597E+03 -0.25469076632E+03  0.41912679159E+03  0.91445337810E+02 0.  0.
        -11    1    4    4    0    0 -0.69281605342E+02  0.54745537731E+00 -0.92976752927E+02  0.11595221917E+03  0.00000000000E+00 0.  1.
         11    1    4    4    0    0 -0.22912199451E+03  0.11518034059E+03 -0.16171401340E+03  0.30317457241E+03  0.00000000000E+00 0. -1.
        -11    1    3    3    0    0  0.48973463424E+02 -0.43309053986E+02 -0.78079318919E+02  0.10183542763E+03  0.00000000000E+00 0.  1.
         11    1    3    3    0    0  0.30770349734E+03 -0.18861699683E+03 -0.82445102265E+03  0.89998739019E+03  0.00000000000E+00 0. -1.
         21    1    1    2  503  502  0.43939193532E+02  0.88951884282E+02 -0.64784054105E+02  0.11849077648E+03  0.00000000000E+00 0. -1.
          1    1    1    2  501    0 -0.10221255444E+03  0.27246370564E+02 -0.71796062038E+02  0.12784539694E+03  0.00000000000E+00 0. -1.
<scales pt_clust_5="13000.00000" pt_clust_6="13000.00000" pt_clust_7="13000.00000" pt_clust_8="13000.00000" pt_clust_9="99.21235" pt_clust_10="103.76605"></scales>
<clustering>
<clus scale="   89.888">  7  8 -1 -1</clus>
<clus scale="   91.445">  5  6 -1 -1</clus>
<clus scale="   99.212">  1  9  2 -1</clus>
<clus scale="  103.766">  1 10  2 -1</clus>
<clus scale="  394.385">  2  7  1 -1</clus>
<clus scale="   99.212">  1  5  2 -1</clus>
</clustering>
</event>
<event>
10    2  0.3544405E-006  0.1846862E+03  0.7546771E-02  0.1192107E+00
          2   -1    0    0  503    0 -0.00000000000E+00  0.00000000000E+00  0.28904135616E+03  0.28904135616E+03  0.00000000000E+00 0. -1.
         21   -1    0    0  501  502  0.00000000000E+00 -0.00000000000E+00 -0.42269497483E+03  0.42269497483E+03  0.00000000000E+00 0.  1.
         23    2    1    2    0    0 -0.14152709004E+01 -0.44003058408E+02  0.13564018886E+03  0.16955198219E+03  0.91713367022E+02 0.  0.
         23    2    1    2    0    0  0.14142328333E+03 -0.57784306935E+02 -0.53127676647E+02  0.18598610018E+03  0.91807996608E+02 0.  0.
        -11    1    3    3    0    0 -0.20381133449E+02 -0.25448680843E+01 -0.54737217554E+01  0.21256259880E+02  0.00000000000E+00 0.  1.
         11    1    3    3    0    0  0.18965862549E+02 -0.41458190323E+02  0.14111391061E+03  0.14829572231E+03  0.00000000000E+00 0. -1.
        -13    1    4    4    0    0  0.12462054698E+03 -0.70818958998E+01 -0.37472485785E+02  0.13032505964E+03  0.00000000000E+00 0.  1.
         13    1    4    4    0    0  0.16802736344E+02 -0.50702411035E+02 -0.15655190862E+02  0.55661040543E+02  0.00000000000E+00 0. -1.
         21    1    1    2  503  502  0.25085443221E+01  0.22286511544E+02  0.43827478752E+02  0.49232400766E+02  0.00000000000E+00 0.  1.
          2    1    1    2  501    0 -0.14251655675E+03  0.79500853798E+02 -0.25999360963E+03  0.30696584786E+03  0.00000000000E+00 0. -1.
<scales pt_clust_5="13000.00000" pt_clust_6="13000.00000" pt_clust_7="13000.00000" pt_clust_8="13000.00000" pt_clust_9="22.42725" pt_clust_10="160.25072"></scales>
<clustering>
<clus scale="   22.427">  1  9  2 -1</clus>
<clus scale="   91.713">  5  6 -1 -1</clus>
<clus scale="   91.808">  7  8 -1 -1</clus>
<clus scale="   96.489">  1  5  2 -1</clus>
<clus scale="  160.251">  2 10  1 -1</clus>
<clus scale="  160.251">  2  5  1 -1</clus>
</clustering>
</event>
<event>
10    2  0.3544405E-006  0.9984206E+02  0.7546771E-02  0.1284960E+00
          1   -1    0    0  503    0 -0.00000000000E+00  0.00000000000E+00  0.32761091852E+03  0.32761091852E+03  0.00000000000E+00 0. -1.
         21   -1    0    0  501  502  0.00000000000E+00 -0.00000000000E+00 -0.84782393910E+02  0.84782393910E+02  0.00000000000E+00 0.  1.
         23    2    1    2    0    0  0.21074538993E+01 -0.29841367903E+02  0.19973378231E+03  0.22161132199E+03  0.91230727486E+02 0.  0.
         23    2    1    2    0    0  0.45041564462E+02  0.33566846627E+02 -0.21911588744E+02  0.10222446877E+03  0.82548461963E+02 0.  0.
        -11    1    3    3    0    0  0.17394886416E+02  0.29762306399E+02  0.70681054428E+02  0.78639610952E+02  0.00000000000E+00 0.  1.
         11    1    3    3    0    0 -0.15287432517E+02 -0.59603674301E+02  0.12905272788E+03  0.14297171104E+03  0.00000000000E+00 0. -1.
        -13    1    4    4    0    0  0.17465795491E+02  0.36796594684E+02 -0.48806445689E+02  0.63569745424E+02  0.00000000000E+00 0.  1.
         13    1    4    4    0    0  0.27575768971E+02 -0.32297480568E+01  0.26894856946E+02  0.38654723346E+02  0.00000000000E+00 0. -1.
         21    1    1    2  503  502 -0.17634632281E+02 -0.10395412372E+02  0.51503936755E+02  0.55422922652E+02  0.00000000000E+00 0. -1.
          1    1    1    2  501    0 -0.29514386081E+02  0.66699336475E+01  0.13502394288E+02  0.33134599018E+02  0.00000000000E+00 0. -1.
<scales pt_clust_5="13000.00000" pt_clust_6="13000.00000" pt_clust_7="13000.00000" pt_clust_8="13000.00000" pt_clust_9="20.47059" pt_clust_10="31.54940"></scales>
<clustering>
<clus scale="   20.471">  1  9  2 -1</clus>
<clus scale="   31.549">  2 10  1 -1</clus>
<clus scale="   82.548">  7  8 -1 -1</clus>
<clus scale="   91.231">  5  6 -1 -1</clus>
<clus scale="   91.976">  2  7  1 -1</clus>
<clus scale="   31.549">  2  5  1 -1</clus>
</clustering>
</event>
<event>
10    2  0.3544405E-006  0.1480341E+03  0.7546771E-02  0.1224088E+00
          1   -1    0    0  503    0 -0.00000000000E+00  0.00000000000E+00  0.52276736077E+03  0.52276736077E+03  0.00000000000E+00 0. -1.
         21   -1    0    0  501  502  0.00000000000E+00 -0.00000000000E+00 -0.18144684300E+03  0.18144684300E+03  0.00000000000E+00 0.  1.
         23    2    1    2    0    0 -0.24729612347E+02 -0.45343392971E+01  0.22257797783E+03  0.24206213199E+03  0.91766037124E+02 0.  0.
         23    2    1    2    0    0 -0.82925539876E+02 -0.10353631896E+03 -0.13426382212E+02  0.16131693192E+03  0.90810078072E+02 0.  0.
        -13    1    3    3    0    0 -0.25968140429E+02 -0.44830807555E+02  0.94257306993E+02  0.10755735933E+03  0.00000000000E+00 0.  1.
         13    1    3    3    0    0  0.12385280812E+01  0.40296468258E+02  0.12832067084E+03  0.13450477267E+03  0.00000000000E+00 0. -1.
        -13    1    4    4    0    0 -0.99084924597E+02 -0.65456356106E+02 -0.16220038781E+02  0.11985594059E+03  0.00000000000E+00 0.  1.
         13    1    4    4    0    0  0.16159384721E+02 -0.38079962850E+02  0.27936565693E+01  0.41460991332E+02  0.00000000000E+00 0. -1.
         21    1    1    2  503  502  0.69853463721E+02  0.39382796889E+01  0.16995037516E+03  0.18378831970E+03  0.00000000000E+00 0. -1.
          1    1    1    2  501    0  0.37801688502E+02  0.10413237856E+03 -0.37781453005E+02  0.11704682016E+03  0.00000000000E+00 0. -1.
<scales pt_clust_5="13000.00000" pt_clust_6="13000.00000" pt_clust_7="13000.00000" pt_clust_8="13000.00000" pt_clust_9="69.96439" pt_clust_10="116.90857"></scales>
<clustering>
<clus scale="   69.964">  1  9  2 -1</clus>
<clus scale="   90.810">  7  8 -1 -1</clus>
<clus scale="   91.766">  5  6 -1 -1</clus>
<clus scale="   94.429">  1  5  2 -1</clus>
<clus scale="  116.909">  2 10  1 -1</clus>
<clus scale="  116.909">  2  5  1 -1</clus>
</clustering>
</event>
<event>
10    2  0.3544405E-006  0.1863175E+03  0.7546771E-02  0.1162460E+00
          2   -1    0    0  503    0 -0.00000000000E+00  0.00000000000E+00  0.22375465715E+03  0.22375465715E+03  0.00000000000E+00 0. -1.
         21   -1    0    0  501  502  0.00000000000E+00 -0.00000000000E+00 -0.56121967500E+03  0.56121967500E+03  0.00000000000E+00 0. -1.
         23    2    1    2    0    0  0.96293254340E+02  0.31451620350E+02 -0.11529959941E+03  0.17991666320E+03  0.93885104357E+02 0.  0.
         23    2    1    2    0    0 -0.19522088728E+03 -0.10146627243E+03 -0.70057282142E+02  0.25126758814E+03  0.99099842592E+02 0.  0.
        -11    1    4    4    0    0 -0.40153073676E+02  0.17521441891E+02 -0.25866017310E+02  0.50875545236E+02  0.00000000000E+00 0.  1.
         11    1    4    4    0    0 -0.15506781360E+03 -0.11898771432E+03 -0.44191264832E+02  0.20039204291E+03  0.00000000000E+00 0. -1.
        -11    1    3    3    0    0  0.13377781885E+02  0.35241222402E+02  0.18869615220E+00  0.37695416310E+02  0.00000000000E+00 0.  1.
         11    1    3    3    0    0  0.82915472454E+02 -0.37896020513E+01 -0.11548829556E+03  0.14222124689E+03  0.00000000000E+00 0. -1.
         21    1    1    2  503  502  0.12878887388E+02 -0.17693868450E+02  0.84442171110E+02  0.87231983715E+02  0.00000000000E+00 0. -1.
          2    1    1    2  501    0  0.86048745547E+02  0.87708520530E+02 -0.23655030741E+03  0.26655809708E+03  0.00000000000E+00 0. -1.
<scales pt_clust_5="13000.00000" pt_clust_6="13000.00000" pt_clust_7="13000.00000" pt_clust_8="13000.00000" pt_clust_9="21.88467" pt_clust_10="122.50021"></scales>
<clustering>
<clus scale="   21.885">  1  9  2 -1</clus>
<clus scale="   93.885">  7  8 -1 -1</clus>
<clus scale="   99.100">  5  6 -1 -1</clus>
<clus scale="  122.500">  2 10  1 -1</clus>
<clus scale="  183.597">  1  7  2 -1</clus>
<clus scale="  122.500">  2  5  1 -1</clus>
</clustering>
</event>
<event>
10    2  0.3544405E-006  0.1619975E+03  0.7546771E-02  0.1188453E+00
         21   -1    0    0  503  502  0.00000000000E+00  0.00000000000E+00  0.34780897817E+03  0.34780897817E+03  0.00000000000E+00 0. -1.
         -4   -1    0    0    0  501 -0.00000000000E+00 -0.00000000000E+00 -0.30825577934E+03  0.30825577934E+03  0.00000000000E+00 0.  1.
         23    2    1    2    0    0  0.74595985522E+02 -0.91303898583E+02  0.12291572133E+01  0.14516586850E+03  0.84679723645E+02 0.  0.
         23    2    1    2    0    0 -0.74379110070E+02  0.95909135291E+02  0.24158718349E+03  0.28720689304E+03  0.96915519565E+02 0.  0.
        -11    1    3    3    0    0  0.29761651162E+02 -0.79767025980E+02 -0.28923661464E+02  0.89917253662E+02  0.00000000000E+00 0. -1.
         11    1    3    3    0    0  0.44834334361E+02 -0.11536872602E+02  0.30152818678E+02  0.55248614835E+02  0.00000000000E+00 0.  1.
        -13    1    4    4    0    0 -0.73181557050E+02  0.70838425884E+02  0.24150922689E+03  0.26210747710E+03  0.00000000000E+00 0. -1.
         13    1    4    4    0    0 -0.11975530200E+01  0.25070709407E+02  0.77956599143E-01  0.25099415942E+02  0.00000000000E+00 0.  1.
         21    1    1    2  503  501  0.16433682682E+02 -0.19080553926E+02 -0.19977392221E+03  0.20135479498E+03  0.00000000000E+00 0.  1.
         -4    1    1    2    0  502 -0.16650558135E+02  0.14475317219E+02 -0.34892196601E+01  0.22337201002E+02  0.00000000000E+00 0.  1.
<scales pt_clust_5="13000.00000" pt_clust_6="13000.00000" pt_clust_7="13000.00000" pt_clust_8="13000.00000" pt_clust_9="25.13101" pt_clust_10="22.06301"></scales>
<clustering>
<clus scale="   22.063">  1 10  2 -1</clus>
<clus scale="   25.131">  2  9  1 -1</clus>
<clus scale="   84.680">  5  6 -1 -1</clus>
<clus scale="   96.916">  7  8 -1 -1</clus>
<clus scale="  154.988">  2  5  1 -1</clus>
<clus scale="   22.063">  1  5  2 -1</clus>
</clustering>
</event>
<event>
10    2  0.3544405E-006  0.9659431E+02  0.7546771E-02  0.1288750E+00
         -3   -1    0    0    0  501 -0.00000000000E+00  0.00000000000E+00  0.17911258608E+03  0.17911258608E+03  0.00000000000E+00 0.  1.
         21   -1    0    0  503  502  0.00000000000E+00 -0.00000000000E+00 -0.12589375157E+03  0.12589375157E+03  0.00000000000E+00 0. -1.
         23    2    1    2    0    0  0.25538428325E+01 -0.20461025051E+02  0.10050886432E+03  0.13650835345E+03  0.90040674673E+02 0.  0.
         23    2    1    2    0    0 -0.30679308714E+02  0.33312950974E+02 -0.45112995549E+02  0.10866180765E+03  0.87870549046E+02 0.  0.
        -13    1    3    3    0    0 -0.34661032513E+02 -0.34381628271E+02  0.74318842235E+02  0.88920041883E+02  0.00000000000E+00 0. -1.
         13    1    3    3    0    0  0.37214875346E+02  0.13920603219E+02  0.26190022084E+02  0.47588311566E+02  0.00000000000E+00 0.  1.
        -13    1    4    4    0    0  0.13265443536E+02 -0.15040489453E+02  0.10699441950E+02  0.22730296374E+02  0.00000000000E+00 0.  1.
         13    1    4    4    0    0 -0.43944752250E+02  0.48353440426E+02 -0.55812437500E+02  0.85931511281E+02  0.00000000000E+00 0. -1.
         21    1    1    2  503  501 -0.63545609206E+01 -0.21761869300E+02  0.56706763324E+01  0.23369124288E+02  0.00000000000E+00 0.  1.
         -3    1    1    2    0  502  0.34480026802E+02  0.89099433779E+01 -0.78477105922E+01  0.36467052264E+02  0.00000000000E+00 0.  1.
<scales pt_clust_5="13000.00000" pt_clust_6="13000.00000" pt_clust_7="13000.00000" pt_clust_8="13000.00000" pt_clust_9="22.67067" pt_clust_10="34.64580"></scales>
<clustering>
<clus scale="   22.671">  1  9  2 -1</clus>
<clus scale="   34.646">  2 10  1 -1</clus>
<clus scale="   87.871">  7  8 -1 -1</clus>
<clus scale="   90.041">  5  6 -1 -1</clus>
<clus scale="   94.575">  2  7  1 -1</clus>
<clus scale="   34.646">  2  5  1 -1</clus>
</clustering>
</event>
<event>
10    2  0.3544405E-006  0.1050748E+03  0.7546771E-02  0.1271921E+00
          3   -1    0    0  503    0 -0.00000000000E+00  0.00000000000E+00  0.14570460327E+03  0.14570460327E+03  0.00000000000E+00 0. -1.
         21   -1    0    0  501  502  0.00000000000E+00 -0.00000000000E+00 -0.52063412012E+03  0.52063412012E+03  0.00000000000E+00 0. -1.
         23    2    1    2    0    0 -0.39228455182E+01  0.10510222297E+03 -0.21748871484E+02  0.14225287167E+03  0.93279151468E+02 0.  0.
         23    2    1    2    0    0 -0.10654262912E+02  0.18585951260E+01 -0.47682994492E+02  0.10144504264E+03  0.88884537564E+02 0.  0.
        -11    1    3    3    0    0  0.78853334583E+01  0.40342824257E+02  0.36032737050E+02  0.54663334073E+02  0.00000000000E+00 0. -1.
         11    1    3    3    0    0 -0.11808178976E+02  0.64759398709E+02 -0.57781608533E+02  0.87589537598E+02  0.00000000000E+00 0.  1.
        -11    1    4    4    0    0  0.30160142645E+02 -0.26074933703E+02 -0.24771296759E+02  0.46937762144E+02  0.00000000000E+00 0.  1.
         11    1    4    4    0    0 -0.40814405557E+02  0.27933528829E+02 -0.22911697734E+02  0.54507280494E+02  0.00000000000E+00 0. -1.
         21    1    1    2  503  502  0.51714065696E+02 -0.29014096356E+02  0.36688650301E+02  0.69729616657E+02  0.00000000000E+00 0.  1.
          3    1    1    2  501    0 -0.37136957266E+02 -0.77946721736E+02 -0.34218630118E+03  0.35291119243E+03  0.00000000000E+00 0. -1.
<scales pt_clust_5="13000.00000" pt_clust_6="13000.00000" pt_clust_7="13000.00000" pt_clust_8="13000.00000" pt_clust_9="59.29724" pt_clust_10="86.63838"></scales>
<clustering>
<clus scale="   59.297">  1  9  2 -1</clus>
<clus scale="   86.638">  2 10  1 -1</clus>
<clus scale="   88.885">  7  8 -1 -1</clus>
<clus scale="   93.279">  5  6 -1 -1</clus>
<clus scale="  101.194">  2  7  1 -1</clus>
<clus scale="   86.638">  2  5  1 -1</clus>
</clustering>
</event>
<event>
10    2  0.3544405E-006  0.3792745E+03  0.7546771E-02  0.1051280E+00
         21   -1    0    0  501  502  0.00000000000E+00  0.00000000000E+00  0.36671406930E+03  0.36671406930E+03  0.00000000000E+00 0. -1.
          1   -1    0    0  503    0 -0.00000000000E+00 -0.00000000000E+00 -0.85458332399E+03  0.85458332399E+03  0.00000000000E+00 0. -1.
         23    2    1    2    0    0  0.11172044624E+03 -0.28100636818E+03 -0.22331818693E+03  0.38597045627E+03  0.87499391033E+02 0.  0.
         23    2    1    2    0    0 -0.22785556479E+03  0.36031318706E+03 -0.29135419745E+02  0.43689942946E+03  0.91041131389E+02 0.  0.
        -11    1    4    4    0    0 -0.18704574805E+03  0.28102706151E+03 -0.59323019668E+02  0.34275580495E+03  0.00000000000E+00 0.  1.
         11    1    4    4    0    0 -0.40809816745E+02  0.79286125546E+02  0.30187599922E+02  0.94143624510E+02  0.00000000000E+00 0. -1.
        -13    1    3    3    0    0  0.61259122719E+02 -0.52683061033E+02 -0.51789333775E+02  0.95970412779E+02  0.00000000000E+00 0.  1.
         13    1    3    3    0    0  0.50461323521E+02 -0.22832330715E+03 -0.17152885315E+03  0.29000004349E+03  0.00000000000E+00 0. -1.
         21    1    1    2  503  502  0.99308696906E+02 -0.66025643545E+02 -0.30400904210E+03  0.32656255230E+03  0.00000000000E+00 0.  1.
          1    1    1    2  501    0  0.16826421648E+02 -0.13281175328E+02  0.68593394078E+02  0.71864955261E+02  0.00000000000E+00 0. -1.
<scales pt_clust_5="13000.00000" pt_clust_6="13000.00000" pt_clust_7="13000.00000" pt_clust_8="13000.00000" pt_clust_9="120.06701" pt_clust_10="21.43637"></scales>
<clustering>
<clus scale="   21.436">  1 10  2 -1</clus>
<clus scale="   87.499">  7  8 -1 -1</clus>
<clus scale="   91.041">  5  6 -1 -1</clus>
<clus scale="  120.067">  2  9  1 -1</clus>
<clus scale="  378.440">  2  7  1 -1</clus>
<clus scale="   21.436">  1  5  2 -1</clus>
</clustering>
</event>
<event>
10    2  0.3544405E-006  0.1337888E+03  0.7546771E-02  0.1239195E+00
         21   -1    0    0  501  502  0.00000000000E+00  0.00000000000E+00  0.69288528141E+02  0.69288528141E+02  0.00000000000E+00 0. -1.
          1   -1    0    0  503    0 -0.00000000000E+00 -0.00000000000E+00 -0.10838632156E+04  0.10838632156E+04  0.00000000000E+00 0. -1.
         23    2    1    2    0    0  0.97464731211E+02  0.33945259499E+02 -0.57204503402E+03  0.58842183674E+03  0.91395199721E+02 0.  0.
         23    2    1    2    0    0 -0.60888564985E+01  0.10428696248E+01 -0.26852711144E+03  0.28433847289E+03  0.93291992342E+02 0.  0.
        -11    1    4    4    0    0  0.34694064072E+02  0.27355677181E+02 -0.10975753732E+03  0.11831622101E+03  0.00000000000E+00 0.  1.
         11    1    4    4    0    0 -0.40782920570E+02 -0.26312807556E+02 -0.15876957412E+03  0.16602225188E+03  0.00000000000E+00 0. -1.
        -13    1    3    3    0    0  0.69632987880E+02 -0.23934384708E+02 -0.30734172056E+03  0.31603882826E+03  0.00000000000E+00 0.  1.
         13    1    3    3    0    0  0.27831743332E+02  0.57879644207E+02 -0.26470331346E+03  0.27238300848E+03  0.00000000000E+00 0. -1.
         21    1    1    2  503  502 -0.92127867712E+02 -0.97371823157E+01 -0.21393905012E+03  0.23313574135E+03  0.00000000000E+00 0. -1.
          1    1    1    2  501    0  0.75199299874E+00 -0.25250946808E+02  0.39936508177E+02  0.47255692710E+02  0.00000000000E+00 0. -1.
<scales pt_clust_5="13000.00000" pt_clust_6="13000.00000" pt_clust_7="13000.00000" pt_clust_8="13000.00000" pt_clust_9="97.70547" pt_clust_10="25.26214"></scales>
<clustering>
<clus scale="   25.262">  1 10  2 -1</clus>
<clus scale="   91.395">  7  8 -1 -1</clus>
<clus scale="   93.292">  5  6 -1 -1</clus>
<clus scale="   93.717">  1  5  2 -1</clus>
<clus scale="   97.705">  1  9  2 -1</clus>
<clus scale="   25.262">  1  5  2 -1</clus>
</clustering>
</event>
<event>
10    2  0.3544405E-006  0.1674296E+03  0.7546771E-02  0.1188803E+00
          1   -1    0    0  503    0 -0.00000000000E+00  0.00000000000E+00  0.13370649556E+03  0.13370649556E+03  0.00000000000E+00 0. -1.
         21   -1    0    0  501  502  0.00000000000E+00 -0.00000000000E+00 -0.14630460110E+04  0.14630460110E+04  0.00000000000E+00 0. -1.
         23    2    1    2    0    0 -0.58967348662E+02 -0.10728015658E+03 -0.30114848968E+02  0.15682677063E+03  0.93282107889E+02 0.  0.
         23    2    1    2    0    0 -0.44309608739E+02  0.15225956828E+03 -0.64918605219E+03  0.67427438000E+03  0.89761303505E+02 0.  0.
        -11    1    4    4    0    0  0.17097556243E+02  0.68641989836E+02 -0.17271886404E+03  0.18664365832E+03  0.00000000000E+00 0.  1.
         11    1    4    4    0    0 -0.61407164983E+02  0.83617578441E+02 -0.47646718816E+03  0.48763072168E+03  0.00000000000E+00 0. -1.
        -13    1    3    3    0    0 -0.43147779204E+02 -0.23831230530E+02 -0.49339905426E+02  0.69742990087E+02  0.00000000000E+00 0.  1.
         13    1    3    3    0    0 -0.15819569458E+02 -0.83448926054E+02  0.19225056458E+02  0.87083780541E+02  0.00000000000E+00 0. -1.
         21    1    1    2  503  502 -0.12730686527E+02  0.39263306837E+02  0.42018314760E+02  0.58900054486E+02  0.00000000000E+00 0.  1.
          1    1    1    2  501    0  0.11600764393E+03 -0.84242718530E+02 -0.69205692907E+03  0.70675130149E+03  0.00000000000E+00 0. -1.
<scales pt_clust_5="13000.00000" pt_clust_6="13000.00000" pt_clust_7="13000.00000" pt_clust_8="13000.00000" pt_clust_9="41.27563" pt_clust_10="141.33499"></scales>
<clustering>
<clus scale="   41.276">  1  9  2 -1</clus>
<clus scale="   89.761">  5  6 -1 -1</clus>
<clus scale="   93.282">  7  8 -1 -1</clus>
<clus scale="  139.305">  1  7  2 -1</clus>
<clus scale="  141.335">  2 10  1 -1</clus>
<clus scale="  141.335">  2  5  1 -1</clus>
</clustering>
</event>
<event>
10    2  0.3544405E-006  0.9791222E+02  0.7546771E-02  0.1286157E+00
         21   -1    0    0  501  502  0.00000000000E+00  0.00000000000E+00  0.10054434831E+03  0.10054434831E+03  0.00000000000E+00 0.  1.
          1   -1    0    0  503    0 -0.00000000000E+00 -0.00000000000E+00 -0.22861504628E+03  0.22861504628E+03  0.00000000000E+00 0. -1.
         23    2    1    2    0    0 -0.19374054714E+02  0.43218888395E+02 -0.10713052021E+03  0.14834810435E+03  0.91032880834E+02 0.  0.
         23    2    1    2    0    0 -0.15006720508E+02 -0.16560312815E+02 -0.30277292730E+02  0.95953540848E+02  0.88266199223E+02 0.  0.
        -11    1    3    3    0    0 -0.15839765688E+02  0.18111216088E+02 -0.11824190961E+03  0.12066508822E+03  0.00000000000E+00 0. -1.
         11    1    3    3    0    0 -0.35342890260E+01  0.25107672307E+02  0.11111389404E+02  0.27683016131E+02  0.00000000000E+00 0.  1.
        -13    1    4    4    0    0 -0.30078673312E+02  0.28524349727E+02 -0.40224887012E+01  0.41647875467E+02  0.00000000000E+00 0.  1.
         13    1    4    4    0    0  0.15071952804E+02 -0.45084662542E+02 -0.26254804029E+02  0.54305665380E+02  0.00000000000E+00 0. -1.
         21    1    1    2  503  502  0.98855823814E+01  0.19274031013E+02 -0.16032293775E+02  0.26948978723E+02  0.00000000000E+00 0.  1.
          1    1    1    2  501    0  0.24495192840E+02 -0.45932606594E+02  0.25369408743E+02  0.57908770672E+02  0.00000000000E+00 0. -1.
<scales pt_clust_5="13000.00000" pt_clust_6="13000.00000" pt_clust_7="13000.00000" pt_clust_8="13000.00000" pt_clust_9="21.66133" pt_clust_10="51.10454"></scales>
<clustering>
<clus scale="   21.661">  2  9  1 -1</clus>
<clus scale="   51.105">  1 10  2 -1</clus>
<clus scale="   88.266">  7  8 -1 -1</clus>
<clus scale="   91.033">  5  6 -1 -1</clus>
<clus scale="   95.345">  1  7  2 -1</clus>
<clus scale="   51.105">  1  5  2 -1</clus>
</clustering>
</event>
<event>
10    2  0.3544405E-006  0.2001074E+03  0.7546771E-02  0.1150252E+00
         21   -1    0    0  501  502  0.00000000000E+00  0.00000000000E+00  0.60513272438E+03  0.60513272438E+03  0.00000000000E+00 0. -1.
          4   -1    0    0  503    0 -0.00000000000E+00 -0.00000000000E+00 -0.31170813632E+03  0.31170813632E+03  0.00000000000E+00 0. -1.
         23    2    1    2    0    0  0.33006361957E+02 -0.17810812036E+03 -0.87215127857E+02  0.21948775371E+03  0.88070841009E+02 0.  0.
         23    2    1    2    0    0 -0.10245270362E+03  0.15376463228E+03 -0.64030885353E+01  0.20752500924E+03  0.94262990069E+02 0.  0.
        -11    1    4    4    0    0  0.16928386190E+02  0.19212816138E+02 -0.10311078983E+02  0.27604726275E+02  0.00000000000E+00 0.  1.
         11    1    4    4    0    0 -0.11938108981E+03  0.13455181614E+03  0.39079904474E+01  0.17992028296E+03  0.00000000000E+00 0. -1.
        -13    1    3    3    0    0  0.34224593078E+02 -0.15469664741E+03 -0.10499121604E+03  0.19006717480E+03  0.00000000000E+00 0. -1.
         13    1    3    3    0    0 -0.12182311214E+01 -0.23411472943E+02  0.17776088180E+02  0.29420578910E+02  0.00000000000E+00 0.  1.
         21    1    1    2  503  502 -0.21274909348E+02  0.53979159688E+01 -0.43873823439E+02  0.49057839819E+02  0.00000000000E+00 0. -1.
          4    1    1    2  501    0  0.90721251016E+02  0.18945572112E+02  0.43091662789E+03  0.44077025794E+03  0.00000000000E+00 0. -1.
<scales pt_clust_5="13000.00000" pt_clust_6="13000.00000" pt_clust_7="13000.00000" pt_clust_8="13000.00000" pt_clust_9="21.94902" pt_clust_10="92.31221"></scales>
<clustering>
<clus scale="   21.949">  2  9  1 -1</clus>
<clus scale="   88.071">  7  8 -1 -1</clus>
<clus scale="   92.312">  1 10  2 -1</clus>
<clus scale="   94.263">  5  6 -1 -1</clus>
<clus scale="  197.266">  2  7  1 -1</clus>
<clus scale="   92.312">  1  5  2 -1</clus>
</clustering>
</event>
<event>
10    2  0.3544405E-006  0.1025741E+03  0.7546771E-02  0.1279879E+00
         -1   -1    0    0    0  501 -0.00000000000E+00  0.00000000000E+00  0.41572749143E+03  0.41572749143E+03  0.00000000000E+00 0.  1.
         21   -1    0    0  503  502  0.00000000000E+00 -0.00000000000E+00 -0.26263194788E+03  0.26263194788E+03  0.00000000000E+00 0.  1.
         23    2    1    2    0    0 -0.19261593594E+02  0.65361986960E+01  0.75063067071E+02  0.11818454321E+03  0.88990962090E+02 0.  0.
         23    2    1    2    0    0  0.29018723319E+02 -0.42873428913E+01  0.35481052565E+02  0.10879945792E+03  0.98579659874E+02 0.  0.
        -11    1    3    3    0    0 -0.27580107597E+02 -0.12355909509E+02 -0.90724353390E+01  0.31553762341E+02  0.00000000000E+00 0. -1.
         11    1    3    3    0    0  0.83185140031E+01  0.18892108205E+02  0.84135502410E+02  0.86630780866E+02  0.00000000000E+00 0.  1.
        -13    1    4    4    0    0 -0.33196741115E+02  0.29272714401E+01  0.31793110008E+02  0.46058597273E+02  0.00000000000E+00 0.  1.
         13    1    4    4    0    0  0.62215464434E+02 -0.72146143314E+01  0.36879425571E+01  0.62740860649E+02  0.00000000000E+00 0. -1.
         21    1    1    2  503  501 -0.17949849073E+02  0.35176179019E+02  0.24356387558E+03  0.24674464967E+03  0.00000000000E+00 0.  1.
         -1    1    1    2    0  502  0.81927193485E+01 -0.37425034823E+02 -0.20101245166E+03  0.20463078851E+03  0.00000000000E+00 0.  1.
<scales pt_clust_5="13000.00000" pt_clust_6="13000.00000" pt_clust_7="13000.00000" pt_clust_8="13000.00000" pt_clust_9="38.50671" pt_clust_10="38.31128"></scales>
<clustering>
<clus scale="   38.311">  2 10  1 -1</clus>
<clus scale="   38.507">  1  9  2 -1</clus>
<clus scale="   88.991">  5  6 -1 -1</clus>
<clus scale="   93.396">  1  5  2 -1</clus>
<clus scale="   98.580">  7  8 -1 -1</clus>
<clus scale="   38.311">  2  5  1 -1</clus>
</clustering>
</event>
<event>
10    2  0.3544405E-006  0.1125313E+03  0.7546771E-02  0.1256538E+00
         21   -1    0    0  501  502  0.00000000000E+00  0.00000000000E+00  0.46171507594E+02  0.46171507594E+02  0.00000000000E+00 0.  1.
          2   -1    0    0  503    0 -0.00000000000E+00 -0.00000000000E+00 -0.70886922018E+03  0.70886922018E+03  0.00000000000E+00 0. -1.
         23    2    1    2    0    0  0.41780650735E+02  0.12349829313E+02 -0.32077322456E+03  0.33659477561E+03  0.92208678057E+02 0.  0.
         23    2    1    2    0    0 -0.10255045378E+03 -0.21248266300E+02 -0.19246308725E+03  0.23711377774E+03  0.90624606199E+02 0.  0.
        -11    1    3    3    0    0 -0.13467255499E+02  0.35707057511E+02 -0.82682656036E+02  0.91064716196E+02  0.00000000000E+00 0.  1.
         11    1    3    3    0    0  0.55247906234E+02 -0.23357228198E+02 -0.23809056853E+03  0.24553005941E+03  0.00000000000E+00 0. -1.
        -13    1    4    4    0    0 -0.43745594050E+02 -0.52807459737E+00 -0.10818368148E+02  0.45066539150E+02  0.00000000000E+00 0.  1.
         13    1    4    4    0    0 -0.58804859733E+02 -0.20720191703E+02 -0.18164471910E+03  0.19204723859E+03  0.00000000000E+00 0. -1.
         21    1    1    2  503  502  0.46431308940E+01  0.21121252343E+02 -0.10886592881E+03  0.11099304672E+03  0.00000000000E+00 0. -1.
          2    1    1    2  501    0  0.56126672154E+02 -0.12222815355E+02 -0.40595471958E+02  0.70339127702E+02  0.00000000000E+00 0. -1.
<scales pt_clust_5="13000.00000" pt_clust_6="13000.00000" pt_clust_7="13000.00000" pt_clust_8="13000.00000" pt_clust_9="21.62559" pt_clust_10="57.48099"></scales>
<clustering>
<clus scale="   21.626">  2  9  1 -1</clus>
<clus scale="   57.481">  1 10  2 -1</clus>
<clus scale="   90.625">  7  8 -1 -1</clus>
<clus scale="   92.209">  5  6 -1 -1</clus>
<clus scale="  111.237">  1  7  2 -1</clus>
<clus scale="   57.481">  1  5  2 -1</clus>
</clustering>
</event>
<event>
10    2  0.3544405E-006  0.1624439E+03  0.7546771E-02  0.1187010E+00
          2   -1    0    0  503    0 -0.00000000000E+00  0.00000000000E+00  0.92574351622E+03  0.92574351622E+03  0.00000000000E+00 0. -1.
         21   -1    0    0  501  502  0.00000000000E+00 -0.00000000000E+00 -0.54789272391E+02  0.54789272391E+02  0.00000000000E+00 0.  1.
         23    2    1    2    0    0  0.29422786913E+02 -0.12027889614E+03  0.41217738239E+03  0.43955628271E+03  0.89368998344E+02 0.  0.
         23    2    1    2    0    0  0.34685360665E+02  0.14707658572E+03  0.31452764093E+03  0.36186591325E+03  0.95836871546E+02 0.  0.
        -11    1    3    3    0    0  0.97928368085E+01 -0.90413139955E+02  0.38231703955E+03  0.39298441987E+03  0.00000000000E+00 0. -1.
         11    1    3    3    0    0  0.19629950105E+02 -0.29865756185E+02  0.29860342844E+02  0.46571862840E+02  0.00000000000E+00 0.  1.
        -13    1    4    4    0    0 -0.31541365555E+02  0.69427512117E+02  0.14964827832E+03  0.16795726951E+03  0.00000000000E+00 0. -1.
         13    1    4    4    0    0  0.66226726220E+02  0.77649073605E+02  0.16487936262E+03  0.19390864373E+03  0.00000000000E+00 0.  1.
         21    1    1    2  503  502 -0.56001458470E+02 -0.62611486822E-01  0.14008593393E+03  0.15086496000E+03  0.00000000000E+00 0. -1.
          2    1    1    2  501    0 -0.81066891082E+01 -0.26735078096E+02  0.41632865757E+01  0.28245632657E+02  0.00000000000E+00 0. -1.
<scales pt_clust_5="13000.00000" pt_clust_6="13000.00000" pt_clust_7="13000.00000" pt_clust_8="13000.00000" pt_clust_9="57.12678" pt_clust_10="27.93712"></scales>
<clustering>
<clus scale="   27.937">  2 10  1 -1</clus>
<clus scale="   57.127">  1  9  2 -1</clus>
<clus scale="   89.369">  5  6 -1 -1</clus>
<clus scale="   95.837">  7  8 -1 -1</clus>
<clus scale="  158.714">  1  5  2 -1</clus>
<clus scale="   27.937">  2  5  1 -1</clus>
</clustering>
</event>
<event>
10    2  0.3544405E-006  0.1094332E+03  0.7546771E-02  0.1262593E+00
         -1   -1    0    0    0  501 -0.00000000000E+00  0.00000000000E+00  0.47349656238E+03  0.47349656238E+03  0.00000000000E+00 0.  1.
         21   -1    0    0  503  502  0.00000000000E+00 -0.00000000000E+00 -0.73971995596E+02  0.73971995596E+02  0.00000000000E+00 0. -1.
         23    2    1    2    0    0  0.38570491909E+02 -0.55940696109E+02  0.24627140734E+03  0.27132399124E+03  0.91378650802E+02 0.  0.
         23    2    1    2    0    0  0.54291461767E+02  0.61191880315E+02  0.89828794706E+02  0.15054856926E+03  0.88902476408E+02 0.  0.
        -13    1    4    4    0    0  0.72818025702E+02  0.51530281131E+02  0.42501304468E+02  0.98813944472E+02  0.00000000000E+00 0. -1.
         13    1    4    4    0    0 -0.18526563935E+02  0.96615991839E+01  0.47327490238E+02  0.51734624791E+02  0.00000000000E+00 0.  1.
        -13    1    3    3    0    0  0.14795245713E+02 -0.39471425462E+02  0.23733966152E+03  0.24105395175E+03  0.00000000000E+00 0.  1.
         13    1    3    3    0    0  0.23775246196E+02 -0.16469270647E+02  0.89317458171E+01  0.30270039489E+02  0.00000000000E+00 0. -1.
         21    1    1    2  503  501 -0.34760647612E+02 -0.74032656742E+01  0.56903409681E+02  0.67090304802E+02  0.00000000000E+00 0.  1.
         -1    1    1    2    0  502 -0.58101306063E+02  0.21520814673E+01  0.65209550656E+01  0.58505692679E+02  0.00000000000E+00 0.  1.
<scales pt_clust_5="13000.00000" pt_clust_6="13000.00000" pt_clust_7="13000.00000" pt_clust_8="13000.00000" pt_clust_9="35.54027" pt_clust_10="60.86798"></scales>
<clustering>
<clus scale="   35.540">  1  9  2 -1</clus>
<clus scale="   60.868">  2 10  1 -1</clus>
<clus scale="   88.902">  5  6 -1 -1</clus>
<clus scale="   91.379">  7  8 -1 -1</clus>
<clus scale="  107.374">  2  5  1 -1</clus>
<clus scale="   60.868">  2  5  1 -1</clus>
</clustering>
</event>
<event>
10    2  0.3544405E-006  0.9765276E+02  0.7546771E-02  0.1286571E+00
         21   -1    0    0  501  502  0.00000000000E+00  0.00000000000E+00  0.81179043104E+03  0.81179043104E+03  0.00000000000E+00 0.  1.
          1   -1    0    0  503    0 -0.00000000000E+00 -0.00000000000E+00 -0.25255911423E+02  0.25255911423E+02  0.00000000000E+00 0. -1.
         23    2    1    2    0    0 -0.71180462969E+01 -0.99346994345E+01  0.23819636820E+03  0.25495965731E+03  0.90097459449E+02 0.  0.
         23    2    1    2    0    0 -0.23944630194E+02  0.59146622235E+02  0.32937089482E+03  0.34801834498E+03  0.92519802487E+02 0.  0.
        -11    1    4    4    0    0 -0.38617094087E+02  0.75809193062E+02  0.29562544891E+03  0.30762431593E+03  0.00000000000E+00 0.  1.
         11    1    4    4    0    0  0.14672463893E+02 -0.16662570828E+02  0.33745445909E+02  0.40394029049E+02  0.00000000000E+00 0. -1.
        -13    1    3    3    0    0 -0.34202940650E+02 -0.30064066010E+02  0.70689775927E+02  0.84087654473E+02  0.00000000000E+00 0. -1.
         13    1    3    3    0    0  0.27084894353E+02  0.20129366575E+02  0.16750659227E+03  0.17087200284E+03  0.00000000000E+00 0.  1.
         21    1    1    2  503  502  0.30231062202E+02  0.28560771733E+01  0.89993824840E+02  0.94978749244E+02  0.00000000000E+00 0.  1.
          1    1    1    2  501    0  0.83161428862E+00 -0.52067999973E+02  0.12897343176E+03  0.13908959093E+03  0.00000000000E+00 0. -1.
<scales pt_clust_5="13000.00000" pt_clust_6="13000.00000" pt_clust_7="13000.00000" pt_clust_8="13000.00000" pt_clust_9="30.36568" pt_clust_10="51.93973"></scales>
<clustering>
<clus scale="   30.366">  1  9  2 -1</clus>
<clus scale="   51.940">  1 10  2 -1</clus>
<clus scale="   90.097">  7  8 -1 -1</clus>
<clus scale="   92.520">  5  6 -1 -1</clus>
<clus scale="   95.361">  2  7  1 -1</clus>
<clus scale="   30.366">  1  5  2 -1</clus>
</clustering>
</event>
<event>
10    2  0.3544405E-006  0.1270689E+03  0.7546771E-02  0.1233088E+00
         21   -1    0    0  501  502  0.00000000000E+00  0.00000000000E+00  0.50415379688E+02  0.50415379688E+02  0.00000000000E+00 0. -1.
          2   -1    0    0  503    0 -0.00000000000E+00 -0.00000000000E+00 -0.81274181577E+03  0.81274181577E+03  0.00000000000E+00 0.  1.
         23    2    1    2    0    0  0.72518399101E+02 -0.10715819302E+02 -0.33723917363E+03  0.35725439831E+03  0.92340120685E+02 0.  0.
         23    2    1    2    0    0 -0.95777006433E+02  0.39827679509E+02 -0.29960244554E+03  0.32902787260E+03  0.87967247073E+02 0.  0.
        -11    1    3    3    0    0  0.80850668872E+02 -0.33907757948E+02 -0.20858824264E+03  0.22626449494E+03  0.00000000000E+00 0.  1.
         11    1    3    3    0    0 -0.83322697706E+01  0.23191938646E+02 -0.12865093100E+03  0.13098990337E+03  0.00000000000E+00 0. -1.
        -11    1    4    4    0    0 -0.11082019599E+02 -0.25154355616E+02 -0.85113707876E+02  0.89442137907E+02  0.00000000000E+00 0.  1.
         11    1    4    4    0    0 -0.84694986834E+02  0.64982035125E+02 -0.21448873766E+03  0.23958573469E+03  0.00000000000E+00 0. -1.
         21    1    1    2  503  502 -0.29818621171E-01 -0.41482880679E+02 -0.14052298811E+03  0.14651805508E+03  0.00000000000E+00 0. -1.
          2    1    1    2  501    0  0.23288425953E+02  0.12371020472E+02  0.15038171197E+02  0.30356869467E+02  0.00000000000E+00 0.  1.
<scales pt_clust_5="13000.00000" pt_clust_6="13000.00000" pt_clust_7="13000.00000" pt_clust_8="13000.00000" pt_clust_9="40.22209" pt_clust_10="26.37030"></scales>
<clustering>
<clus scale="   26.370">  1 10  2 -1</clus>
<clus scale="   40.222">  2  9  1 -1</clus>
<clus scale="   87.967">  7  8 -1 -1</clus>
<clus scale="   92.340">  5  6 -1 -1</clus>
<clus scale="  123.928">  1  7  2 -1</clus>
<clus scale="   26.370">  1  5  2 -1</clus>
</clustering>
</event>
<event>
10    2  0.3544405E-006  0.1127531E+03  0.7546771E-02  0.1256195E+00
         21   -1    0    0  501  502  0.00000000000E+00  0.00000000000E+00  0.65339017920E+03  0.65339017920E+03  0.00000000000E+00 0. -1.
          1   -1    0    0  503    0 -0.00000000000E+00 -0.00000000000E+00 -0.12381539026E+03  0.12381539026E+03  0.00000000000E+00 0. -1.
         23    2    1    2    0    0 -0.13388542250E+03 -0.10054959226E+02  0.11114658539E+03  0.19627461444E+03  0.90242740794E+02 0.  0.
         23    2    1    2    0    0  0.14487187206E+02 -0.15963043907E+02  0.90553142798E+02  0.13086739960E+03  0.91987538519E+02 0.  0.
        -13    1    4    4    0    0  0.17747104438E+02  0.24206664584E+02 -0.18351549909E+01  0.30071416994E+02  0.00000000000E+00 0.  1.
         13    1    4    4    0    0 -0.32599172311E+01 -0.40169708490E+02  0.92388297789E+02  0.10079598260E+03  0.00000000000E+00 0. -1.
        -13    1    3    3    0    0 -0.18366318492E+02  0.33584942281E+02  0.27011115267E+02  0.46849443443E+02  0.00000000000E+00 0.  1.
         13    1    3    3    0    0 -0.11551910401E+03 -0.43639901507E+02  0.84135470122E+02  0.14942517099E+03  0.00000000000E+00 0. -1.
         21    1    1    2  503  502  0.66642775886E+02  0.31937096019E+02 -0.36093854312E+02  0.82243565092E+02  0.00000000000E+00 0.  1.
          1    1    1    2  501    0  0.52755459407E+02 -0.59190928861E+01  0.36396891507E+03  0.36781999034E+03  0.00000000000E+00 0. -1.
<scales pt_clust_5="13000.00000" pt_clust_6="13000.00000" pt_clust_7="13000.00000" pt_clust_8="13000.00000" pt_clust_9="77.54618" pt_clust_10="53.08648"></scales>
<clustering>
<clus scale="   53.086">  1 10  2 -1</clus>
<clus scale="   77.546">  2  9  1 -1</clus>
<clus scale="   90.243">  7  8 -1 -1</clus>
<clus scale="   91.988">  5  6 -1 -1</clus>
<clus scale="  111.334">  2  7  1 -1</clus>
<clus scale="   53.086">  1  5  2 -1</clus>
</clustering>
</event>
<event>
10    2  0.3544405E-006  0.1169385E+03  0.7546771E-02  0.1248649E+00
         21   -1    0    0  501  502  0.00000000000E+00  0.00000000000E+00  0.14447771951E+03  0.14447771951E+03  0.00000000000E+00 0.  1.
          2   -1    0    0  503    0 -0.00000000000E+00 -0.00000000000E+00 -0.17924387042E+03  0.17924387042E+03  0.00000000000E+00 0. -1.
         23    2    1    2    0    0  0.74588601939E+02 -0.60386649692E+02 -0.56777374817E+02  0.14216767670E+03  0.88192805866E+02 0.  0.
         23    2    1    2    0    0 -0.58210251384E+02  0.15210605757E+02 -0.67371177247E+00  0.10781149969E+03  0.89459877512E+02 0.  0.
        -11    1    3    3    0    0  0.20104918627E+02 -0.61060301864E+02 -0.11428978548E+01  0.64295213136E+02  0.00000000000E+00 0.  1.
         11    1    3    3    0    0  0.54483683312E+02  0.67365217154E+00 -0.55634476962E+02  0.77872463563E+02  0.00000000000E+00 0. -1.
        -11    1    4    4    0    0 -0.36820132584E+02 -0.84509238787E+01  0.40725842754E+02  0.55549388349E+02  0.00000000000E+00 0.  1.
         11    1    4    4    0    0 -0.21390118800E+02  0.23661529636E+02 -0.41399554526E+02  0.52262111342E+02  0.00000000000E+00 0. -1.
         21    1    1    2  503  502 -0.14740559968E+02  0.13886175753E+02 -0.14655377618E+02  0.24997801470E+02  0.00000000000E+00 0.  1.
          2    1    1    2  501    0 -0.16377905873E+01  0.31289868181E+02  0.37340313296E+02  0.48744612070E+02  0.00000000000E+00 0. -1.
<scales pt_clust_5="13000.00000" pt_clust_6="13000.00000" pt_clust_7="13000.00000" pt_clust_8="13000.00000" pt_clust_9="20.25117" pt_clust_10="31.86021"></scales>
<clustering>
<clus scale="   20.251">  2  9  1 -1</clus>
<clus scale="   31.860">  1 10  2 -1</clus>
<clus scale="   88.193">  5  6 -1 -1</clus>
<clus scale="   89.460">  7  8 -1 -1</clus>
<clus scale="  115.972">  2  5  1 -1</clus>
<clus scale="   31.860">  1  5  2 -1</clus>
</clustering>
</event>
<event>
10    2  0.3544405E-006  0.1464422E+03  0.7546771E-02  0.1205657E+00
         21   -1    0    0  503  502  0.00000000000E+00  0.00000000000E+00  0.54556340852E+03  0.54556340852E+03  0.00000000000E+00 0.  1.
         -3   -1    0    0    0  501 -0.00000000000E+00 -0.00000000000E+00 -0.86102960138E+02  0.86102960138E+02  0.00000000000E+00 0.  1.
         23    2    1    2    0    0  0.14091956500E+03  0.47193196987E+01  0.10568210681E+03  0.19945560533E+03  0.93451779110E+02 0.  0.
         23    2    1    2    0    0 -0.77020480817E+02  0.16929993797E+02  0.16755473739E+03  0.20579633373E+03  0.89770606537E+02 0.  0.
        -11    1    3    3    0    0  0.12944928072E+03  0.37163154772E+02  0.86398049833E+02  0.16000887277E+03  0.00000000000E+00 0.  1.
         11    1    3    3    0    0  0.11470284281E+02 -0.32443835074E+02  0.19284056982E+02  0.39446732557E+02  0.00000000000E+00 0. -1.
        -13    1    4    4    0    0  0.13876424973E+02  0.20333975200E+02  0.60499276384E+02  0.65316063571E+02  0.00000000000E+00 0.  1.
         13    1    4    4    0    0 -0.90896905790E+02 -0.34039814027E+01  0.10705546101E+03  0.14048027016E+03  0.00000000000E+00 0. -1.
         21    1    1    2  503  501  0.11388436852E+02  0.26400879630E+02  0.13070947539E+02  0.31584056242E+02  0.00000000000E+00 0.  1.
         -3    1    1    2    0  502 -0.75287521033E+02 -0.48050193125E+02  0.17315265664E+03  0.19483037336E+03  0.00000000000E+00 0.  1.
<scales pt_clust_5="13000.00000" pt_clust_6="13000.00000" pt_clust_7="13000.00000" pt_clust_8="13000.00000" pt_clust_9="28.75244" pt_clust_10="85.98697"></scales>
<clustering>
<clus scale="   28.752">  2  9  1 -1</clus>
<clus scale="   85.987">  1 10  2 -1</clus>
<clus scale="   89.771">  7  8 -1 -1</clus>
<clus scale="   93.452">  5  6 -1 -1</clus>
<clus scale="  144.121">  1  7  2 -1</clus>
<clus scale="   85.987">  1  5  2 -1</clus>
</clustering>
</event>
<event>
10    2  0.3544405E-006  0.9755780E+02  0.7546771E-02  0.1287043E+00
         21   -1    0    0  501  502  0.00000000000E+00  0.00000000000E+00  0.20900938381E+03  0.20900938381E+03  0.00000000000E+00 0.  1.
          2   -1    0    0  503    0 -0.00000000000E+00 -0.00000000000E+00 -0.31884669197E+03  0.31884669197E+03  0.00000000000E+00 0. -1.
         23    2    1    2    0    0 -0.81451071214E+01 -0.44896555523E+01 -0.35324133050E+02  0.97557172390E+02  0.90460531350E+02 0.  0.
         23    2    1    2    0    0 -0.94960561583E+02 -0.18224322918E+02  0.12224164543E+03  0.17872898310E+03  0.87472254570E+02 0.  0.
        -13    1    4    4    0    0 -0.22136629863E+02 -0.22126786199E+02 -0.53624111199E+01  0.31755007514E+02  0.00000000000E+00 0. -1.
         13    1    4    4    0    0 -0.72823931720E+02  0.39024632809E+01  0.12760405655E+03  0.14697397558E+03  0.00000000000E+00 0.  1.
        -13    1    3    3    0    0 -0.92390580416E+01  0.30231656371E+02  0.16118243918E+02  0.35483954507E+02  0.00000000000E+00 0.  1.
         13    1    3    3    0    0  0.10939509202E+01 -0.34721311924E+02 -0.51442376968E+02  0.62073217883E+02  0.00000000000E+00 0. -1.
         21    1    1    2  503  502  0.51864482265E+02  0.61136968232E+02 -0.15672994964E+03  0.17604525134E+03  0.00000000000E+00 0. -1.
          2    1    1    2  501    0  0.51241186439E+02 -0.38422989762E+02 -0.40024870910E+02  0.75524668959E+02  0.00000000000E+00 0. -1.
<scales pt_clust_5="13000.00000" pt_clust_6="13000.00000" pt_clust_7="13000.00000" pt_clust_8="13000.00000" pt_clust_9="80.43178" pt_clust_10="64.04678"></scales>
<clustering>
<clus scale="   64.047">  1 10  2 -1</clus>
<clus scale="   80.432">  2  9  1 -1</clus>
<clus scale="   87.472">  5  6 -1 -1</clus>
<clus scale="   90.461">  7  8 -1 -1</clus>
<clus scale="   94.794">  1  5  2 -1</clus>
<clus scale="   64.047">  1  5  2 -1</clus>
</clustering>
</event>
<event>
10    2  0.3544405E-006  0.1392157E+03  0.7546771E-02  0.1214398E+00
         21   -1    0    0  501  502  0.00000000000E+00  0.00000000000E+00  0.45773945282E+02  0.45773945282E+02  0.00000000000E+00 0. -1.
          2   -1    0    0  503    0 -0.00000000000E+00 -0.00000000000E+00 -0.10567756158E+04  0.10567756158E+04  0.00000000000E+00 0. -1.
         23    2    1    2    0    0 -0.10601216766E+03 -0.88336393461E+00 -0.54259145151E+03  0.56036233407E+03  0.91439062595E+02 0.  0.
         23    2    1    2    0    0  0.84749640828E+02  0.34845560499E+02 -0.23993996614E+03  0.27264793514E+03  0.91482208530E+02 0.  0.
        -11    1    4    4    0    0  0.92904423522E+02  0.67238348552E-02 -0.18612887015E+03  0.20802689311E+03  0.00000000000E+00 0.  1.
         11    1    4    4    0    0 -0.81547826943E+01  0.34838836664E+02 -0.53811095997E+02  0.64621042032E+02  0.00000000000E+00 0. -1.
        -13    1    3    3    0    0 -0.19793322814E+02 -0.38072733190E+02 -0.11932962960E+03  0.12681036686E+03  0.00000000000E+00 0. -1.
         13    1    3    3    0    0 -0.86218844845E+02  0.37189369255E+02 -0.42326182191E+03  0.43355196722E+03  0.00000000000E+00 0.  1.
         21    1    1    2  503  502 -0.25299941345E+02 -0.13420053186E+02 -0.21499363733E+03  0.21689271300E+03  0.00000000000E+00 0. -1.
          2    1    1    2  501    0  0.46562468177E+02 -0.20542143378E+02 -0.13476615491E+02  0.52646578829E+02  0.00000000000E+00 0. -1.
<scales pt_clust_5="13000.00000" pt_clust_6="13000.00000" pt_clust_7="13000.00000" pt_clust_8="13000.00000" pt_clust_9="28.63887" pt_clust_10="50.20309"></scales>
<clustering>
<clus scale="   28.639">  2  9  1 -1</clus>
<clus scale="   50.203">  1 10  2 -1</clus>
<clus scale="   91.439">  7  8 -1 -1</clus>
<clus scale="   91.482">  5  6 -1 -1</clus>
<clus scale="  139.187">  2  7  1 -1</clus>
<clus scale="   50.203">  1  5  2 -1</clus>
</clustering>
</event>
<event>
10    2  0.3544405E-006  0.1401390E+03  0.7546771E-02  0.1226996E+00
          1   -1    0    0  503    0 -0.00000000000E+00  0.00000000000E+00  0.88670188261E+03  0.88670188261E+03  0.00000000000E+00 0. -1.
         21   -1    0    0  501  502  0.00000000000E+00 -0.00000000000E+00 -0.58980421357E+02  0.58980421357E+02  0.00000000000E+00 0. -1.
         23    2    1    2    0    0  0.84962034666E+02 -0.11985043550E+02  0.26608153876E+03  0.29565397594E+03  0.96175358687E+02 0.  0.
         23    2    1    2    0    0  0.63832984769E+02  0.47136486675E+01  0.14036075557E+03  0.18033588785E+03  0.93397121550E+02 0.  0.
        -13    1    3    3    0    0  0.14775213115E+02  0.35971407770E+02  0.49229299713E+02  0.62735739812E+02  0.00000000000E+00 0.  1.
         13    1    3    3    0    0  0.70186821552E+02 -0.47956451320E+02  0.21685223905E+03  0.23291823613E+03  0.00000000000E+00 0. -1.
        -13    1    4    4    0    0  0.87366307803E+02 -0.52270013433E+01  0.10458572244E+03  0.13637582858E+03  0.00000000000E+00 0. -1.
         13    1    4    4    0    0 -0.23533323034E+02  0.99406500108E+01  0.35775033121E+02  0.43960059264E+02  0.00000000000E+00 0.  1.
         21    1    1    2  503  502 -0.11025838672E+03 -0.11041946000E+02  0.41117622136E+03  0.42584588929E+03  0.00000000000E+00 0.  1.
          1    1    1    2  501    0 -0.38536632716E+02  0.18313340882E+02  0.10102945564E+02  0.43846550884E+02  0.00000000000E+00 0. -1.
<scales pt_clust_5="13000.00000" pt_clust_6="13000.00000" pt_clust_7="13000.00000" pt_clust_8="13000.00000" pt_clust_9="101.92764" pt_clust_10="42.66674"></scales>
<clustering>
<clus scale="   42.667">  2 10  1 -1</clus>
<clus scale="   93.397">  7  8 -1 -1</clus>
<clus scale="   96.175">  5  6 -1 -1</clus>
<clus scale="  104.770">  2  7  1 -1</clus>
<clus scale="  101.928">  1  9  2 -1</clus>
<clus scale="   42.667">  2  5  1 -1</clus>
</clustering>
</event>
<event>
10    2  0.3544405E-006  0.1118700E+03  0.7546771E-02  0.1258926E+00
         21   -1    0    0  501  502  0.00000000000E+00  0.00000000000E+00  0.98408478305E+02  0.98408478305E+02  0.00000000000E+00 0.  1.
          2   -1    0    0  503    0 -0.00000000000E+00 -0.00000000000E+00 -0.61802764230E+03  0.61802764230E+03  0.00000000000E+00 0. -1.
         23    2    1    2    0    0  0.78053664793E+02 -0.88445813530E+00 -0.40278835681E+03  0.42069120361E+03  0.93002535237E+02 0.  0.
         23    2    1    2    0    0  0.96386979487E+01  0.41135760084E+02 -0.98941587415E+02  0.14516397876E+03  0.97458133335E+02 0.  0.
        -11    1    4    4    0    0  0.12040527486E+02 -0.28584152600E+02 -0.10992718884E+02  0.32906958998E+02  0.00000000000E+00 0. -1.
         11    1    4    4    0    0 -0.24018295369E+01  0.69719912685E+02 -0.87948868531E+02  0.11225701976E+03  0.00000000000E+00 0.  1.
        -13    1    3    3    0    0  0.71651487694E+02 -0.36637866668E+02 -0.32538970776E+03  0.33519357225E+03  0.00000000000E+00 0. -1.
         13    1    3    3    0    0  0.64021770988E+01  0.35753408533E+02 -0.77398649048E+02  0.85497631357E+02  0.00000000000E+00 0.  1.
         21    1    1    2  503  502 -0.60783029241E+02  0.58271164109E+01 -0.57696178787E+02  0.84008219693E+02  0.00000000000E+00 0.  1.
          2    1    1    2  501    0 -0.26909333501E+02 -0.46078418360E+02  0.39806959017E+02  0.66572718543E+02  0.00000000000E+00 0. -1.
<scales pt_clust_5="13000.00000" pt_clust_6="13000.00000" pt_clust_7="13000.00000" pt_clust_8="13000.00000" pt_clust_9="69.02943" pt_clust_10="53.36041"></scales>
<clustering>
<clus scale="   53.360">  1 10  2 -1</clus>
<clus scale="   69.029">  1  9  2 -1</clus>
<clus scale="   93.003">  7  8 -1 -1</clus>
<clus scale="   97.458">  5  6 -1 -1</clus>
<clus scale="  108.011">  2  7  1 -1</clus>
<clus scale="   53.360">  1  5  2 -1</clus>
</clustering>
</event>
<event>
10    2  0.3544405E-006  0.1542553E+03  0.7546771E-02  0.1196216E+00
          2   -1    0    0  503    0 -0.00000000000E+00  0.00000000000E+00  0.81313259521E+03  0.81313259521E+03  0.00000000000E+00 0. -1.
         21   -1    0    0  501  502  0.00000000000E+00 -0.00000000000E+00 -0.77748667632E+03  0.77748667632E+03  0.00000000000E+00 0. -1.
         23    2    1    2    0    0  0.49213423876E+02  0.63802120122E+02  0.16815660808E+03  0.20703167722E+03  0.89959985043E+02 0.  0.
         23    2    1    2    0    0 -0.18200031378E+03 -0.90955749258E+02  0.28204112788E+03  0.36046143846E+03  0.94806056045E+02 0.  0.
        -11    1    4    4    0    0 -0.89463539677E+02 -0.63662278579E+02  0.77773519866E+02  0.13455605166E+03  0.00000000000E+00 0.  1.
         11    1    4    4    0    0 -0.92536774106E+02 -0.27293470679E+02  0.20426760802E+03  0.22590538681E+03  0.00000000000E+00 0. -1.
        -13    1    3    3    0    0  0.53156097974E+02 -0.84414457018E+00  0.98408111985E+02  0.11185007750E+03  0.00000000000E+00 0.  1.
         13    1    3    3    0    0 -0.39426740980E+01  0.64646264692E+02  0.69748496096E+02  0.95181599720E+02  0.00000000000E+00 0. -1.
         21    1    1    2  503  502  0.39230906519E+02 -0.45204241047E+02  0.29641054778E+03  0.30239328741E+03  0.00000000000E+00 0. -1.
          2    1    1    2  501    0  0.93555983387E+02  0.72357870183E+02 -0.71096236485E+03  0.72073286844E+03  0.00000000000E+00 0. -1.
<scales pt_clust_5="13000.00000" pt_clust_6="13000.00000" pt_clust_7="13000.00000" pt_clust_8="13000.00000" pt_clust_9="59.85388" pt_clust_10="118.30597"></scales>
<clustering>
<clus scale="   59.854">  1  9  2 -1</clus>
<clus scale="   89.960">  7  8 -1 -1</clus>
<clus scale="   94.806">  5  6 -1 -1</clus>
<clus scale="  118.306">  2 10  1 -1</clus>
<clus scale="  151.325">  1  7  2 -1</clus>
<clus scale="  118.306">  2  5  1 -1</clus>
</clustering>
</event>
<event>
10    2  0.3544405E-006  0.1848352E+03  0.7546771E-02  0.1185839E+00
          1   -1    0    0  503    0 -0.00000000000E+00  0.00000000000E+00  0.69293913209E+03  0.69293913209E+03  0.00000000000E+00 0. -1.
         21   -1    0    0  501  502  0.00000000000E+00 -0.00000000000E+00 -0.11406358303E+03  0.11406358303E+03  0.00000000000E+00 0. -1.
         23    2    1    2    0    0  0.22521881093E+02 -0.53609281636E+02  0.72339337328E+02  0.13017022753E+03  0.91269481233E+02 0.  0.
         23    2    1    2    0    0  0.85988989015E+02 -0.52780989934E+02  0.41633862230E+03  0.43894903752E+03  0.95699895470E+02 0.  0.
        -11    1    3    3    0    0 -0.14545484257E+02 -0.15054603098E+02 -0.16377649789E+02  0.26578931494E+02  0.00000000000E+00 0.  1.
         11    1    3    3    0    0  0.37067365350E+02 -0.38554678538E+02  0.88716987118E+02  0.10359129604E+03  0.00000000000E+00 0. -1.
        -13    1    4    4    0    0 -0.28058876796E-01 -0.25995655296E+02  0.20836132121E+02  0.33315451120E+02  0.00000000000E+00 0.  1.
         13    1    4    4    0    0  0.86017047892E+02 -0.26785334638E+02  0.39550249018E+03  0.40563358640E+03  0.00000000000E+00 0. -1.
         21    1    1    2  503  502  0.79955839817E+00 -0.28740221789E+02  0.52766520196E+02  0.60091141575E+02  0.00000000000E+00 0.  1.
          1    1    1    2  501    0 -0.10931042851E+03  0.13513049336E+03  0.37431069224E+02  0.17779230849E+03  0.00000000000E+00 0. -1.
<scales pt_clust_5="13000.00000" pt_clust_6="13000.00000" pt_clust_7="13000.00000" pt_clust_8="13000.00000" pt_clust_9="28.75134" pt_clust_10="158.13152"></scales>
<clustering>
<clus scale="   28.751">  1  9  2 -1</clus>
<clus scale="   91.269">  5  6 -1 -1</clus>
<clus scale="   95.700">  7  8 -1 -1</clus>
<clus scale="  110.581">  1  5  2 -1</clus>
<clus scale="  158.132">  2 10  1 -1</clus>
<clus scale="  158.132">  2  5  1 -1</clus>
</clustering>
</event>
<event>
10    2  0.3544405E-006  0.1353472E+03  0.7546771E-02  0.1219919E+00
         21   -1    0    0  501  502  0.00000000000E+00  0.00000000000E+00  0.64621719037E+03  0.64621719037E+03  0.00000000000E+00 0.  1.
          1   -1    0    0  503    0 -0.00000000000E+00 -0.00000000000E+00 -0.46910097813E+02  0.46910097813E+02  0.00000000000E+00 0. -1.
         23    2    1    2    0    0  0.74639067292E+02  0.89766506267E+02  0.27884037429E+03  0.31614997260E+03  0.92573402361E+02 0.  0.
         23    2    1    2    0    0 -0.52999316943E+02 -0.60413850968E+02  0.27353336390E+03  0.29998914271E+03  0.93350005861E+02 0.  0.
        -11    1    3    3    0    0  0.29453331094E+02  0.98329939616E+02  0.20241572541E+03  0.22695462461E+03  0.00000000000E+00 0.  1.
         11    1    3    3    0    0  0.45185736198E+02 -0.85634333487E+01  0.76424648886E+02  0.89195347994E+02  0.00000000000E+00 0. -1.
        -11    1    4    4    0    0 -0.74254763737E+02 -0.22215917222E+02  0.14807425417E+03  0.16713258708E+03  0.00000000000E+00 0.  1.
         11    1    4    4    0    0  0.21255446794E+02 -0.38197933746E+02  0.12545910973E+03  0.13285655563E+03  0.00000000000E+00 0. -1.
         21    1    1    2  503  502  0.80390548999E+01 -0.26594153849E+02  0.10000035679E+02  0.29527548768E+02  0.00000000000E+00 0. -1.
          1    1    1    2  501    0 -0.29678805249E+02 -0.27585014497E+01  0.36933318685E+02  0.47460624104E+02  0.00000000000E+00 0. -1.
<scales pt_clust_5="13000.00000" pt_clust_6="13000.00000" pt_clust_7="13000.00000" pt_clust_8="13000.00000" pt_clust_9="27.78265" pt_clust_10="29.27651"></scales>
<clustering>
<clus scale="   27.783">  2  9  1 -1</clus>
<clus scale="   29.277">  1 10  2 -1</clus>
<clus scale="   92.573">  5  6 -1 -1</clus>
<clus scale="   93.350">  7  8 -1 -1</clus>
<clus scale="  134.813">  2  5  1 -1</clus>
<clus scale="   29.277">  1  5  2 -1</clus>
</clustering>
</event>
<event>
10    2  0.3544405E-006  0.1095233E+03  0.7546771E-02  0.1263613E+00
         21   -1    0    0  501  502  0.00000000000E+00  0.00000000000E+00  0.28173969821E+03  0.28173969821E+03  0.00000000000E+00 0. -1.
          3   -1    0    0  503    0 -0.00000000000E+00 -0.00000000000E+00 -0.17272707175E+03  0.17272707175E+03  0.00000000000E+00 0. -1.
         23    2    1    2    0    0  0.21522724318E+02  0.19788345281E+02 -0.50156740860E+02  0.11206025983E+03  0.95848823198E+02 0.  0.
         23    2    1    2    0    0 -0.49743500139E+02  0.80129255463E+02  0.37345049949E+02  0.13603302984E+03  0.90637845658E+02 0.  0.
        -11    1    4    4    0    0 -0.44812383907E+02  0.79786399519E+01 -0.13676619086E+02  0.47527448454E+02  0.00000000000E+00 0. -1.
         11    1    4    4    0    0 -0.49311162320E+01  0.72150615511E+02  0.51021669035E+02  0.88505581389E+02  0.00000000000E+00 0.  1.
        -13    1    3    3    0    0  0.43862465875E+02 -0.56644540849E+01  0.78241456650E+01  0.44913463550E+02  0.00000000000E+00 0.  1.
         13    1    3    3    0    0 -0.22339741556E+02  0.25452799366E+02 -0.57980886525E+02  0.67146796279E+02  0.00000000000E+00 0. -1.
         21    1    1    2  503  502  0.28673663280E+02 -0.65804479239E+02 -0.79226332976E+01  0.72216179435E+02  0.00000000000E+00 0.  1.
          3    1    1    2  501    0 -0.45288745955E+00 -0.34113121505E+02  0.12974695067E+03  0.13415730086E+03  0.00000000000E+00 0. -1.
<scales pt_clust_5="13000.00000" pt_clust_6="13000.00000" pt_clust_7="13000.00000" pt_clust_8="13000.00000" pt_clust_9="78.51103" pt_clust_10="34.11613"></scales>
<clustering>
<clus scale="   34.116">  1 10  2 -1</clus>
<clus scale="   78.511">  2  9  1 -1</clus>
<clus scale="   90.638">  5  6 -1 -1</clus>
<clus scale="   95.849">  7  8 -1 -1</clus>
<clus scale="  104.993">  1  5  2 -1</clus>
<clus scale="   34.116">  1  5  2 -1</clus>
</clustering>
</event>
<event>
10    2  0.3544405E-006  0.1344337E+03  0.7546771E-02  0.1221201E+00
          1   -1    0    0  503    0 -0.00000000000E+00  0.00000000000E+00  0.12106300126E+03  0.12106300126E+03  0.00000000000E+00 0. -1.
         21   -1    0    0  501  502  0.00000000000E+00 -0.00000000000E+00 -0.39487697231E+03  0.39487697231E+03  0.00000000000E+00 0.  1.
         23    2    1    2    0    0 -0.10611029208E+03 -0.11655683634E+03 -0.11047027706E+03  0.21283955339E+03  0.90841087564E+02 0.  0.
         23    2    1    2    0    0  0.55900748668E+02  0.27517003993E+02 -0.10420084947E+03  0.15207694629E+03  0.91583302804E+02 0.  0.
        -11    1    3    3    0    0 -0.47591710851E+02 -0.78959551310E+02 -0.13013154467E+02  0.93107055984E+02  0.00000000000E+00 0. -1.
         11    1    3    3    0    0 -0.58518581233E+02 -0.37597285028E+02 -0.97457122590E+02  0.11973249740E+03  0.00000000000E+00 0.  1.
        -11    1    4    4    0    0  0.53090316051E+02  0.61305245398E+01 -0.11583491058E+03  0.12756916359E+03  0.00000000000E+00 0. -1.
         11    1    4    4    0    0  0.28104326174E+01  0.21386479454E+02  0.11634061113E+02  0.24507782700E+02  0.00000000000E+00 0.  1.
         21    1    1    2  503  502  0.69091077323E+02  0.39778585176E+02 -0.12683542846E+02  0.80726606911E+02  0.00000000000E+00 0. -1.
          1    1    1    2  501    0 -0.18881533906E+02  0.49261247169E+02 -0.46459301672E+02  0.70296866979E+02  0.00000000000E+00 0. -1.
<scales pt_clust_5="13000.00000" pt_clust_6="13000.00000" pt_clust_7="13000.00000" pt_clust_8="13000.00000" pt_clust_9="81.18715" pt_clust_10="52.75588"></scales>
<clustering>
<clus scale="   52.756">  2 10  1 -1</clus>
<clus scale="   81.187">  1  9  2 -1</clus>
<clus scale="   90.841">  5  6 -1 -1</clus>
<clus scale="   91.583">  7  8 -1 -1</clus>
<clus scale="  133.929">  1  5  2 -1</clus>
<clus scale="   52.756">  2  5  1 -1</clus>
</clustering>
</event>
<event>
10    2  0.3544405E-006  0.1123086E+03  0.7546771E-02  0.1256545E+00
         21   -1    0    0  501  502  0.00000000000E+00  0.00000000000E+00  0.73877480401E+03  0.73877480401E+03  0.00000000000E+00 0.  1.
          2   -1    0    0  503    0 -0.00000000000E+00 -0.00000000000E+00 -0.12742927706E+03  0.12742927706E+03  0.00000000000E+00 0. -1.
         23    2    1    2    0    0 -0.54802782174E+02  0.45315181391E+01  0.16198265023E+03  0.19427910973E+03  0.92098392566E+02 0.  0.
         23    2    1    2    0    0  0.66646016759E+02  0.46444266707E+02  0.14952864669E+03  0.19324722524E+03  0.91580087472E+02 0.  0.
        -11    1    3    3    0    0 -0.20639788533E+02  0.47693688413E+02  0.72025379811E+02  0.88816350533E+02  0.00000000000E+00 0.  1.
         11    1    3    3    0    0 -0.34162993641E+02 -0.43162170273E+02  0.89957270416E+02  0.10546275920E+03  0.00000000000E+00 0. -1.
        -13    1    4    4    0    0  0.29533950232E+02 -0.13463642247E+02  0.55252885829E+01  0.32924955471E+02  0.00000000000E+00 0. -1.
         13    1    4    4    0    0  0.37112066527E+02  0.59907908953E+02  0.14400335810E+03  0.16032226976E+03  0.00000000000E+00 0.  1.
         21    1    1    2  503  502  0.22035661644E+02 -0.17186479214E+02 -0.85722856597E+02  0.90162928053E+02  0.00000000000E+00 0. -1.
          2    1    1    2  501    0 -0.33878896230E+02 -0.33789305632E+02  0.38555708664E+03  0.38851481805E+03  0.00000000000E+00 0. -1.
<scales pt_clust_5="13000.00000" pt_clust_6="13000.00000" pt_clust_7="13000.00000" pt_clust_8="13000.00000" pt_clust_9="27.94540" pt_clust_10="47.73019"></scales>
<clustering>
<clus scale="   27.945">  2  9  1 -1</clus>
<clus scale="   47.730">  1 10  2 -1</clus>
<clus scale="   91.580">  7  8 -1 -1</clus>
<clus scale="   92.098">  5  6 -1 -1</clus>
<clus scale="  111.884">  1  7  2 -1</clus>
<clus scale="   47.730">  1  5  2 -1</clus>
</clustering>
</event>
<event>
10    2  0.3544405E-006  0.1033620E+03  0.7546771E-02  0.1274008E+00
          2   -1    0    0  503    0 -0.00000000000E+00  0.00000000000E+00  0.29169230369E+03  0.29169230369E+03  0.00000000000E+00 0. -1.
         21   -1    0    0  501  502  0.00000000000E+00 -0.00000000000E+00 -0.14573623366E+03  0.14573623366E+03  0.00000000000E+00 0. -1.
         23    2    1    2    0    0 -0.31601156950E+02  0.11749118055E+02  0.14676537398E+03  0.17365885278E+03  0.86490735083E+02 0.  0.
         23    2    1    2    0    0  0.82668091991E+02  0.26761157748E+02 -0.69885032985E+02  0.14201921881E+03  0.87950939036E+02 0.  0.
        -11    1    3    3    0    0 -0.13544431569E+02  0.48302760408E+02  0.98016701637E+02  0.11010850144E+03  0.00000000000E+00 0. -1.
         11    1    3    3    0    0 -0.18056725381E+02 -0.36553642353E+02  0.48748672342E+02  0.63550351343E+02  0.00000000000E+00 0.  1.
        -13    1    4    4    0    0  0.37876435631E+02 -0.18224863032E+02  0.66789513941E+01  0.42560291357E+02  0.00000000000E+00 0.  1.
         13    1    4    4    0    0  0.44791656360E+02  0.44986020780E+02 -0.76563984379E+02  0.99458927448E+02  0.00000000000E+00 0. -1.
         21    1    1    2  503  502 -0.23483086496E+02  0.15324277607E+02  0.51699423099E+02  0.58814277045E+02  0.00000000000E+00 0.  1.
          2    1    1    2  501    0 -0.27583848546E+02 -0.53834553410E+02  0.17376305934E+02  0.62936188711E+02  0.00000000000E+00 0. -1.
<scales pt_clust_5="13000.00000" pt_clust_6="13000.00000" pt_clust_7="13000.00000" pt_clust_8="13000.00000" pt_clust_9="28.04084" pt_clust_10="60.17901"></scales>
<clustering>
<clus scale="   28.041">  1  9  2 -1</clus>
<clus scale="   60.179">  2 10  1 -1</clus>
<clus scale="   86.491">  5  6 -1 -1</clus>
<clus scale="   87.951">  7  8 -1 -1</clus>
<clus scale="  102.122">  1  5  2 -1</clus>
<clus scale="   60.179">  2  5  1 -1</clus>
</clustering>
</event>
<event>
10    2  0.3544405E-006  0.1505398E+03  0.7546771E-02  0.1222121E+00
         -1   -1    0    0    0  501 -0.00000000000E+00  0.00000000000E+00  0.12017745149E+03  0.12017745149E+03  0.00000000000E+00 0.  1.
         21   -1    0    0  503  502  0.00000000000E+00 -0.00000000000E+00 -0.11873567348E+04  0.11873567348E+04  0.00000000000E+00 0. -1.
         23    2    1    2    0    0 -0.44129030412E+02 -0.10115336271E+02 -0.64362229357E+01  0.96916084941E+02  0.85449465777E+02 0.  0.
         23    2    1    2    0    0  0.12115278598E+03 -0.66308538587E+02 -0.79465381495E+03  0.81172437398E+03  0.91361665151E+02 0.  0.
        -11    1    3    3    0    0 -0.42440490651E+02 -0.44851952354E+02 -0.69193552703E+01  0.62135097602E+02  0.00000000000E+00 0. -1.
         11    1    3    3    0    0 -0.16885397608E+01  0.34736616082E+02  0.48313233464E+00  0.34780987338E+02  0.00000000000E+00 0.  1.
        -13    1    4    4    0    0  0.24636444797E+02  0.20765269700E+02 -0.10163858340E+03  0.10662341428E+03  0.00000000000E+00 0.  1.
         13    1    4    4    0    0  0.96516341182E+02 -0.87073808287E+02 -0.69301523155E+03  0.70510095970E+03  0.00000000000E+00 0. -1.
         21    1    1    2  503  501  0.85837929000E+01  0.19848635380E+02  0.56436613033E+02  0.60437911261E+02  0.00000000000E+00 0.  1.
         -1    1    1    2    0  502 -0.85607548468E+02  0.56575239479E+02 -0.32252585841E+03  0.33845581606E+03  0.00000000000E+00 0.  1.
<scales pt_clust_5="13000.00000" pt_clust_6="13000.00000" pt_clust_7="13000.00000" pt_clust_8="13000.00000" pt_clust_9="21.62521" pt_clust_10="119.64659"></scales>
<clustering>
<clus scale="   21.625">  1  9  2 -1</clus>
<clus scale="   85.449">  5  6 -1 -1</clus>
<clus scale="   91.362">  7  8 -1 -1</clus>
<clus scale="   93.558">  1  5  2 -1</clus>
<clus scale="  119.647">  2 10  1 -1</clus>
<clus scale="  119.647">  2  5  1 -1</clus>
</clustering>
</event>
<event>
10    2  0.3544405E-006  0.2716750E+03  0.7546771E-02  0.1100976E+00
         21   -1    0    0  501  502  0.00000000000E+00  0.00000000000E+00  0.16186944162E+03  0.16186944162E+03  0.00000000000E+00 0.  1.
          2   -1    0    0  503    0 -0.00000000000E+00 -0.00000000000E+00 -0.81217300753E+03  0.81217300753E+03  0.00000000000E+00 0. -1.
         23    2    1    2    0    0 -0.19276308188E+03 -0.10036168002E+03 -0.31675736225E+03  0.39760340168E+03  0.10258248359E+03 0.  0.
         23    2    1    2    0    0  0.28153970538E+03  0.90937057459E+02 -0.24815638358E+03  0.39647040146E+03  0.89850066221E+02 0.  0.
        -13    1    3    3    0    0 -0.19609062445E+03 -0.74043371572E+02 -0.25299542818E+03  0.32854320956E+03  0.00000000000E+00 0. -1.
         13    1    3    3    0    0  0.33275425712E+01 -0.26318308453E+02 -0.63761934071E+02  0.69060192121E+02  0.00000000000E+00 0.  1.
        -13    1    4    4    0    0  0.25531216799E+02  0.15638665905E+02  0.29039243415E+01  0.30080619659E+02  0.00000000000E+00 0.  1.
         13    1    4    4    0    0  0.25600848858E+03  0.75298391554E+02 -0.25106030793E+03  0.36638978180E+03  0.00000000000E+00 0. -1.
         21    1    1    2  503  502 -0.30277317129E+02 -0.34382257930E+01 -0.11079339856E+03  0.11490741705E+03  0.00000000000E+00 0. -1.
          2    1    1    2  501    0 -0.58499306370E+02  0.12862848359E+02  0.25403578479E+02  0.65061228956E+02  0.00000000000E+00 0. -1.
<scales pt_clust_5="13000.00000" pt_clust_6="13000.00000" pt_clust_7="13000.00000" pt_clust_8="13000.00000" pt_clust_9="30.47191" pt_clust_10="60.71493"></scales>
<clustering>
<clus scale="   30.472">  2  9  1 -1</clus>
<clus scale="   60.715">  1 10  2 -1</clus>
<clus scale="   89.850">  7  8 -1 -1</clus>
<clus scale="  102.582">  5  6 -1 -1</clus>
<clus scale="  267.128">  1  7  2 -1</clus>
<clus scale="   60.715">  1  5  2 -1</clus>
</clustering>
</event>
<event>
10    2  0.3544405E-006  0.2574416E+03  0.7546771E-02  0.1108851E+00
          2   -1    0    0  503    0 -0.00000000000E+00  0.00000000000E+00  0.12966892159E+04  0.12966892159E+04  0.00000000000E+00 0. -1.
         21   -1    0    0  501  502  0.00000000000E+00 -0.00000000000E+00 -0.13238176319E+03  0.13238176319E+03  0.00000000000E+00 0. -1.
         23    2    1    2    0    0 -0.25390904852E+02  0.26291031496E+03  0.81032609158E+03  0.85729583793E+03  0.92527008353E+02 0.  0.
         23    2    1    2    0    0  0.20379423099E+02 -0.26329593787E+03  0.10923901556E+03  0.30129267655E+03  0.95415106975E+02 0.  0.
        -11    1    4    4    0    0 -0.15784091139E+02 -0.61548855813E+02  0.66394097585E+02  0.91899811638E+02  0.00000000000E+00 0.  1.
         11    1    4    4    0    0  0.36163514238E+02 -0.20174708205E+03  0.42844917970E+02  0.20939286491E+03  0.00000000000E+00 0. -1.
        -13    1    3    3    0    0 -0.10091171870E+02  0.19660865572E+02  0.18542059573E+02  0.28847692420E+02  0.00000000000E+00 0.  1.
         13    1    3    3    0    0 -0.15299732982E+02  0.24324944938E+03  0.79178403201E+03  0.82844814551E+03  0.00000000000E+00 0. -1.
         21    1    1    2  503  502  0.32896710117E+02 -0.40762371563E+02  0.18745864501E+03  0.19463943090E+03  0.00000000000E+00 0. -1.
          2    1    1    2  501    0 -0.27885228365E+02  0.41147994473E+02  0.57283700547E+02  0.75843033685E+02  0.00000000000E+00 0. -1.
<scales pt_clust_5="13000.00000" pt_clust_6="13000.00000" pt_clust_7="13000.00000" pt_clust_8="13000.00000" pt_clust_9="50.93640" pt_clust_10="49.70657"></scales>
<clustering>
<clus scale="   49.707">  2 10  1 -1</clus>
<clus scale="   50.936">  1  9  2 -1</clus>
<clus scale="   92.527">  7  8 -1 -1</clus>
<clus scale="   95.415">  5  6 -1 -1</clus>
<clus scale="  256.385">  1  7  2 -1</clus>
<clus scale="   49.707">  2  5  1 -1</clus>
</clustering>
</event>
<event>
10    2  0.3544405E-006  0.1295296E+03  0.7546771E-02  0.1228213E+00
         21   -1    0    0  501  502  0.00000000000E+00  0.00000000000E+00  0.38714500136E+02  0.38714500136E+02  0.00000000000E+00 0.  1.
          1   -1    0    0  503    0 -0.00000000000E+00 -0.00000000000E+00 -0.13449629777E+04  0.13449629777E+04  0.00000000000E+00 0. -1.
         23    2    1    2    0    0 -0.72564004035E+02 -0.22898033399E+01 -0.69313059762E+03  0.70303996644E+03  0.92543995911E+02 0.  0.
         23    2    1    2    0    0  0.15340094403E+03 -0.11713375679E+02 -0.44366106471E+03  0.47865284542E+03  0.92759653339E+02 0.  0.
        -13    1    4    4    0    0  0.97810421870E+02 -0.52026289879E+02 -0.28455250730E+03  0.30535838432E+03  0.00000000000E+00 0.  1.
         13    1    4    4    0    0  0.55590522157E+02  0.40312914200E+02 -0.15910855742E+03  0.17329446110E+03  0.00000000000E+00 0. -1.
        -13    1    3    3    0    0 -0.13477581552E+01  0.36495804195E+02 -0.21933789785E+03  0.22235753554E+03  0.00000000000E+00 0.  1.
         13    1    3    3    0    0 -0.71216245880E+02 -0.38785607535E+02 -0.47379269976E+03  0.48068243090E+03  0.00000000000E+00 0. -1.
         21    1    1    2  503  502 -0.56153777386E+01  0.29592351581E+02 -0.70845893773E+02  0.76982987755E+02  0.00000000000E+00 0.  1.
          1    1    1    2  501    0 -0.75221562253E+02 -0.15589172562E+02 -0.98610921509E+02  0.12500167827E+03  0.00000000000E+00 0. -1.
<scales pt_clust_5="13000.00000" pt_clust_6="13000.00000" pt_clust_7="13000.00000" pt_clust_8="13000.00000" pt_clust_9="30.12042" pt_clust_10="77.43907"></scales>
<clustering>
<clus scale="   30.120">  1  9  2 -1</clus>
<clus scale="   77.439">  1 10  2 -1</clus>
<clus scale="   92.544">  7  8 -1 -1</clus>
<clus scale="   92.760">  5  6 -1 -1</clus>
<clus scale="  129.375">  2  7  1 -1</clus>
<clus scale="   30.120">  1  5  2 -1</clus>
</clustering>
</event>
<event>
10    2  0.3544405E-006  0.1458485E+03  0.7546771E-02  0.1205936E+00
         21   -1    0    0  503  502  0.00000000000E+00  0.00000000000E+00  0.11386325861E+04  0.11386325861E+04  0.00000000000E+00 0.  1.
         -1   -1    0    0    0  501 -0.00000000000E+00 -0.00000000000E+00 -0.34739966960E+02  0.34739966960E+02  0.00000000000E+00 0.  1.
         23    2    1    2    0    0  0.10187868499E+03  0.46418975863E+02  0.28977095794E+03  0.32363840042E+03  0.90777851850E+02 0.  0.
         23    2    1    2    0    0 -0.97567050179E+02 -0.33031433340E+02  0.54118139540E+03  0.55810887394E+03  0.89430462241E+02 0.  0.
        -11    1    3    3    0    0  0.51829825737E+02  0.58243998343E+02  0.23890583008E+03  0.25130596854E+03  0.00000000000E+00 0.  1.
         11    1    3    3    0    0  0.50048859252E+02 -0.11825022480E+02  0.50865127854E+02  0.72332431873E+02  0.00000000000E+00 0. -1.
        -11    1    4    4    0    0 -0.69224485421E+01 -0.36583790060E+02  0.82063995210E+02  0.90115444286E+02  0.00000000000E+00 0.  1.
         11    1    4    4    0    0 -0.90644601637E+02  0.35523567201E+01  0.45911740019E+03  0.46799342966E+03  0.00000000000E+00 0. -1.
         21    1    1    2  503  501  0.32022984447E+02 -0.52163510407E+01  0.25148091663E+02  0.41050071442E+02  0.00000000000E+00 0.  1.
         -1    1    1    2    0  502 -0.36334619257E+02 -0.81711914820E+01  0.24779217410E+03  0.25057520722E+03  0.00000000000E+00 0.  1.
<scales pt_clust_5="13000.00000" pt_clust_6="13000.00000" pt_clust_7="13000.00000" pt_clust_8="13000.00000" pt_clust_9="32.44506" pt_clust_10="35.68423"></scales>
<clustering>
<clus scale="   32.445">  2  9  1 -1</clus>
<clus scale="   35.684">  1 10  2 -1</clus>
<clus scale="   89.430">  7  8 -1 -1</clus>
<clus scale="   90.778">  5  6 -1 -1</clus>
<clus scale="  145.014">  1  7  2 -1</clus>
<clus scale="   35.684">  1  5  2 -1</clus>
</clustering>
</event>
<event>
10    2  0.3544405E-006  0.1190235E+03  0.7546771E-02  0.1250246E+00
         -1   -1    0    0    0  501 -0.00000000000E+00  0.00000000000E+00  0.22043562508E+03  0.22043562508E+03  0.00000000000E+00 0.  1.
         21   -1    0    0  503  502  0.00000000000E+00 -0.00000000000E+00 -0.18224146281E+03  0.18224146281E+03  0.00000000000E+00 0.  1.
         23    2    1    2    0    0 -0.91634570883E+01 -0.52341384459E+02  0.10880618820E+03  0.15060227305E+03  0.89547018837E+02 0.  0.
         23    2    1    2    0    0  0.11661459024E+02  0.31955431617E+02 -0.22679751726E+02  0.11184224428E+03  0.10410176382E+03 0.  0.
        -13    1    3    3    0    0 -0.29483825084E+02 -0.57787052085E+02  0.11189319364E+03  0.12933957675E+03  0.00000000000E+00 0.  1.
         13    1    3    3    0    0  0.20320367996E+02  0.54456676251E+01 -0.30870054365E+01  0.21262696300E+02  0.00000000000E+00 0. -1.
        -13    1    4    4    0    0  0.38798588233E+02  0.59331427766E+02 -0.12638448771E+02  0.72008882486E+02  0.00000000000E+00 0. -1.
         13    1    4    4    0    0 -0.27137129209E+02 -0.27375996149E+02 -0.10041302955E+02  0.39833361794E+02  0.00000000000E+00 0.  1.
         21    1    1    2  503  501 -0.27627763655E+02 -0.18085359520E+02  0.33304843800E+02  0.46899745991E+02  0.00000000000E+00 0.  1.
         -1    1    1    2    0  502  0.25129761719E+02  0.38471312362E+02 -0.81237118015E+02  0.93332824570E+02  0.00000000000E+00 0.  1.
<scales pt_clust_5="13000.00000" pt_clust_6="13000.00000" pt_clust_7="13000.00000" pt_clust_8="13000.00000" pt_clust_9="33.02080" pt_clust_10="44.93926"></scales>
<clustering>
<clus scale="   33.021">  1  9  2 -1</clus>
<clus scale="   44.939">  2 10  1 -1</clus>
<clus scale="   89.547">  5  6 -1 -1</clus>
<clus scale="  104.102">  7  8 -1 -1</clus>
<clus scale="  106.527">  1  5  2 -1</clus>
<clus scale="   44.939">  2  5  1 -1</clus>
</clustering>
</event>
<event>
10    2  0.3544405E-006  0.1528329E+03  0.7546771E-02  0.1197258E+00
          1   -1    0    0  503    0 -0.00000000000E+00  0.00000000000E+00  0.63954971046E+03  0.63954971046E+03  0.00000000000E+00 0. -1.
         21   -1    0    0  501  502  0.00000000000E+00 -0.00000000000E+00 -0.90594281152E+02  0.90594281152E+02  0.00000000000E+00 0.  1.
         23    2    1    2    0    0  0.11006296113E+02 -0.67293839428E+02  0.21641475026E+03  0.24514178566E+03  0.92787669279E+02 0.  0.
         23    2    1    2    0    0 -0.89449511068E+02  0.16090730019E+03  0.20971596081E+03  0.29369325968E+03  0.91556388526E+02 0.  0.
        -11    1    3    3    0    0 -0.15687610528E+02 -0.65303037383E+02  0.72775371502E+02  0.99029503244E+02  0.00000000000E+00 0.  1.
         11    1    3    3    0    0  0.26693906641E+02 -0.19908020452E+01  0.14363937875E+03  0.14611228242E+03  0.00000000000E+00 0. -1.
        -13    1    4    4    0    0 -0.56429741150E+02  0.19830483692E+02  0.49121778896E+02  0.77398403934E+02  0.00000000000E+00 0.  1.
         13    1    4    4    0    0 -0.33019769918E+02  0.14107681650E+03  0.16059418192E+03  0.21629485575E+03  0.00000000000E+00 0. -1.
         21    1    1    2  503  502  0.59392327273E+02 -0.64570671210E+02  0.12902481785E+03  0.15602635592E+03  0.00000000000E+00 0. -1.
          1    1    1    2  501    0  0.19050887682E+02 -0.29042789551E+02 -0.62000996121E+01  0.35282590346E+02  0.00000000000E+00 0. -1.
<scales pt_clust_5="13000.00000" pt_clust_6="13000.00000" pt_clust_7="13000.00000" pt_clust_8="13000.00000" pt_clust_9="94.36183" pt_clust_10="34.73356"></scales>
<clustering>
<clus scale="   34.734">  2 10  1 -1</clus>
<clus scale="   91.556">  7  8 -1 -1</clus>
<clus scale="   92.788">  5  6 -1 -1</clus>
<clus scale="   94.362">  1  9  2 -1</clus>
<clus scale="  152.089">  2  7  1 -1</clus>
<clus scale="   34.734">  2  5  1 -1</clus>
</clustering>
</event>
<event>
10    2  0.3544405E-006  0.1058828E+03  0.7546771E-02  0.1269852E+00
          1   -1    0    0  503    0 -0.00000000000E+00  0.00000000000E+00  0.12315898344E+03  0.12315898344E+03  0.00000000000E+00 0. -1.
         21   -1    0    0  501  502  0.00000000000E+00 -0.00000000000E+00 -0.20673059547E+03  0.20673059547E+03  0.00000000000E+00 0.  1.
         23    2    1    2    0    0 -0.28337561227E+02  0.17488566978E+02 -0.31956156498E+02  0.10041438139E+03  0.89179508301E+02 0.  0.
         23    2    1    2    0    0  0.78209679184E+02  0.22840786480E+02 -0.55537995326E+02  0.13525194341E+03  0.92575179314E+02 0.  0.
        -13    1    3    3    0    0 -0.21292085475E+02  0.53664468091E+02 -0.24969852575E+02  0.62902476716E+02  0.00000000000E+00 0. -1.
         13    1    3    3    0    0 -0.70454757519E+01 -0.36175901112E+02 -0.69863039232E+01  0.37511904675E+02  0.00000000000E+00 0.  1.
        -13    1    4    4    0    0  0.25794236990E+02  0.32755340447E+02  0.17156614736E+02  0.45084414368E+02  0.00000000000E+00 0.  1.
         13    1    4    4    0    0  0.52415442194E+02 -0.99145539669E+01 -0.72694610062E+02  0.90167529037E+02  0.00000000000E+00 0. -1.
         21    1    1    2  503  502 -0.22952743572E+02 -0.55772848169E+02 -0.82776950657E+01  0.60876590459E+02  0.00000000000E+00 0.  1.
          1    1    1    2  501    0 -0.26919374385E+02  0.15443494711E+02  0.12200234853E+02  0.33346663651E+02  0.00000000000E+00 0. -1.
<scales pt_clust_5="13000.00000" pt_clust_6="13000.00000" pt_clust_7="13000.00000" pt_clust_8="13000.00000" pt_clust_9="59.84595" pt_clust_10="31.03474"></scales>
<clustering>
<clus scale="   31.035">  2 10  1 -1</clus>
<clus scale="   59.846">  1  9  2 -1</clus>
<clus scale="   89.180">  5  6 -1 -1</clus>
<clus scale="   92.575">  7  8 -1 -1</clus>
<clus scale="  102.927">  1  5  2 -1</clus>
<clus scale="   31.035">  2  5  1 -1</clus>
</clustering>
</event>
<event>
10    2  0.3544405E-006  0.1350550E+03  0.7546771E-02  0.1240467E+00
         21   -1    0    0  503  502  0.00000000000E+00  0.00000000000E+00  0.66145726029E+03  0.66145726029E+03  0.00000000000E+00 0.  1.
         -1   -1    0    0    0  501 -0.00000000000E+00 -0.00000000000E+00 -0.40191866948E+03  0.40191866948E+03  0.00000000000E+00 0.  1.
         23    2    1    2    0    0  0.26812247772E+02  0.39549939192E+02  0.68789833855E+02  0.12353161285E+03  0.90801562827E+02 0.  0.
         23    2    1    2    0    0  0.21763270205E+01 -0.56443803229E+01 -0.35239117555E+02  0.94310155772E+02  0.87269780836E+02 0.  0.
        -11    1    3    3    0    0 -0.97183381924E+01 -0.25290858733E+02  0.26661541240E+02  0.38011990397E+02  0.00000000000E+00 0. -1.
         11    1    3    3    0    0  0.36530585965E+02  0.64840797925E+02  0.42128292615E+02  0.85519622457E+02  0.00000000000E+00 0.  1.
        -13    1    4    4    0    0 -0.19630553532E+02 -0.40730096990E+02 -0.25338589940E+02  0.51829948610E+02  0.00000000000E+00 0.  1.
         13    1    4    4    0    0  0.21806880553E+02  0.35085716667E+02 -0.99005276151E+01  0.42480207162E+02  0.00000000000E+00 0. -1.
         21    1    1    2  503  501 -0.92818918805E+02 -0.49855184451E+02 -0.29869997296E+03  0.31673737536E+03  0.00000000000E+00 0.  1.
         -1    1    1    2    0  502  0.63830344012E+02  0.15949625583E+02  0.52468784747E+03  0.52879678579E+03  0.00000000000E+00 0.  1.
<scales pt_clust_5="13000.00000" pt_clust_6="13000.00000" pt_clust_7="13000.00000" pt_clust_8="13000.00000" pt_clust_9="99.97462" pt_clust_10="65.79288"></scales>
<clustering>
<clus scale="   65.793">  1 10  2 -1</clus>
<clus scale="   87.270">  7  8 -1 -1</clus>
<clus scale="   88.781">  1  7  2 -1</clus>
<clus scale="   90.802">  5  6 -1 -1</clus>
<clus scale="   99.975">  2  9  1 -1</clus>
<clus scale="   65.793">  1  5  2 -1</clus>
</clustering>
</event>
<event>
10    2  0.3544405E-006  0.1267755E+03  0.7546771E-02  0.1233361E+00
         21   -1    0    0  503  502  0.00000000000E+00  0.00000000000E+00  0.67967593837E+03  0.67967593837E+03  0.00000000000E+00 0.  1.
         -1   -1    0    0    0  501 -0.00000000000E+00 -0.00000000000E+00 -0.83698308945E+02  0.83698308945E+02  0.00000000000E+00 0.  1.
         23    2    1    2    0    0 -0.92852240337E+01  0.53882697284E+02  0.15889053597E+01  0.10816836373E+03  0.93318325315E+02 0.  0.
         23    2    1    2    0    0 -0.47898125418E+02 -0.10762718938E+03  0.39985784235E+03  0.42637928212E+03  0.89639030669E+02 0.  0.
        -13    1    3    3    0    0  0.34614413481E+02  0.53528465253E+02  0.60985110802E+01  0.64036286982E+02  0.00000000000E+00 0. -1.
         13    1    3    3    0    0 -0.43899637515E+02  0.35423203104E+00 -0.45096057205E+01  0.44132076748E+02  0.00000000000E+00 0.  1.
        -13    1    4    4    0    0 -0.45972011623E+02 -0.55365801310E+02  0.10739034905E+03  0.12927290851E+03  0.00000000000E+00 0.  1.
         13    1    4    4    0    0 -0.19261137949E+01 -0.52261388068E+02  0.29246749330E+03  0.29710637361E+03  0.00000000000E+00 0. -1.
         21    1    1    2  503  501  0.47796763747E+02  0.24848519486E+02  0.30295288723E+02  0.61804401657E+02  0.00000000000E+00 0. -1.
         -1    1    1    2    0  502  0.93865857048E+01  0.28895972607E+02  0.16423559299E+03  0.16702219981E+03  0.00000000000E+00 0.  1.
<scales pt_clust_5="13000.00000" pt_clust_6="13000.00000" pt_clust_7="13000.00000" pt_clust_8="13000.00000" pt_clust_9="55.84277" pt_clust_10="30.38232"></scales>
<clustering>
<clus scale="   30.382">  1 10  2 -1</clus>
<clus scale="   55.843">  2  9  1 -1</clus>
<clus scale="   89.639">  7  8 -1 -1</clus>
<clus scale="   93.318">  5  6 -1 -1</clus>
<clus scale="  124.092">  1  7  2 -1</clus>
<clus scale="   30.382">  1  5  2 -1</clus>
</clustering>
</event>
<event>
10    2  0.3544405E-006  0.1178628E+03  0.7546771E-02  0.1256990E+00
         21   -1    0    0  501  502  0.00000000000E+00  0.00000000000E+00  0.14745069190E+03  0.14745069190E+03  0.00000000000E+00 0. -1.
          2   -1    0    0  503    0 -0.00000000000E+00 -0.00000000000E+00 -0.17045661919E+03  0.17045661919E+03  0.00000000000E+00 0. -1.
         23    2    1    2    0    0  0.21457090753E+02 -0.93429013272E+02 -0.34580998135E+02  0.11826253345E+03  0.60006617316E+02 0.  0.
         23    2    1    2    0    0  0.16706879950E+02  0.54835291288E+02  0.38250641970E-01  0.10757147944E+03  0.91025231212E+02 0.  0.
        -13    1    3    3    0    0  0.28932901368E+02 -0.14981733631E+02 -0.19678170278E+02  0.38063046511E+02  0.00000000000E+00 0.  1.
         13    1    3    3    0    0 -0.74758106156E+01 -0.78447279641E+02 -0.14902827857E+02  0.80199486941E+02  0.00000000000E+00 0. -1.
        -13    1    4    4    0    0  0.51654725346E+02  0.50512108055E+02  0.23074219099E+01  0.72284216165E+02  0.00000000000E+00 0. -1.
         13    1    4    4    0    0 -0.34947845396E+02  0.43231832325E+01 -0.22691712680E+01  0.35287263273E+02  0.00000000000E+00 0.  1.
         21    1    1    2  503  502 -0.56936374402E+01  0.20818489007E+02 -0.29664515416E+02  0.36685289513E+02  0.00000000000E+00 0. -1.
          2    1    1    2  501    0 -0.32470333263E+02  0.17775232977E+02  0.41201335615E+02  0.55388008685E+02  0.00000000000E+00 0. -1.
<scales pt_clust_5="13000.00000" pt_clust_6="13000.00000" pt_clust_7="13000.00000" pt_clust_8="13000.00000" pt_clust_9="21.58303" pt_clust_10="37.80041"></scales>
<clustering>
<clus scale="   21.583">  2  9  1 -1</clus>
<clus scale="   37.800">  1 10  2 -1</clus>
<clus scale="   60.007">  5  6 -1 -1</clus>
<clus scale="   91.025">  7  8 -1 -1</clus>
<clus scale="   95.952">  2  5  1 -1</clus>
<clus scale="   37.800">  1  5  2 -1</clus>
</clustering>
</event>
<event>
10    2  0.3544405E-006  0.1026803E+03  0.7546771E-02  0.1277318E+00
         21   -1    0    0  503  502  0.00000000000E+00  0.00000000000E+00  0.11492005675E+04  0.11492005675E+04  0.00000000000E+00 0.  1.
         -1   -1    0    0    0  501 -0.00000000000E+00 -0.00000000000E+00 -0.73276049478E+02  0.73276049478E+02  0.00000000000E+00 0.  1.
         23    2    1    2    0    0  0.21476178691E+01 -0.54625066294E+01  0.10903023339E+03  0.14181726406E+03  0.90499134531E+02 0.  0.
         23    2    1    2    0    0  0.65797084914E+02 -0.96617896237E+02  0.44385228647E+03  0.46887502798E+03  0.95784473677E+02 0.  0.
        -11    1    3    3    0    0 -0.25950220419E+02 -0.38108686269E+02  0.43423274986E+02  0.63334561808E+02  0.00000000000E+00 0. -1.
         11    1    3    3    0    0  0.28097838289E+02  0.32646179639E+02  0.65606958404E+02  0.78482702250E+02  0.00000000000E+00 0.  1.
        -13    1    4    4    0    0  0.51728045938E+02 -0.32973201619E+02  0.89041649448E+02  0.10812695361E+03  0.00000000000E+00 0.  1.
         13    1    4    4    0    0  0.14069038976E+02 -0.63644694619E+02  0.35481063703E+03  0.36074807436E+03  0.00000000000E+00 0. -1.
         21    1    1    2  503  501 -0.31315264511E+02  0.24376459084E+02 -0.31475987944E+02  0.50651706446E+02  0.00000000000E+00 0. -1.
         -1    1    1    2    0  502 -0.36629438273E+02  0.77703943783E+02  0.55451798609E+03  0.56113261848E+03  0.00000000000E+00 0.  1.
<scales pt_clust_5="13000.00000" pt_clust_6="13000.00000" pt_clust_7="13000.00000" pt_clust_8="13000.00000" pt_clust_9="39.68447" pt_clust_10="89.55847"></scales>
<clustering>
<clus scale="   39.684">  2  9  1 -1</clus>
<clus scale="   89.558">  1 10  2 -1</clus>
<clus scale="   90.499">  5  6 -1 -1</clus>
<clus scale="   95.784">  7  8 -1 -1</clus>
<clus scale="   97.768">  2  5  1 -1</clus>
<clus scale="   89.558">  1  5  2 -1</clus>
</clustering>
</event>
<event>
10    2  0.3544405E-006  0.1642171E+03  0.7546771E-02  0.1185636E+00
         -3   -1    0    0    0  501 -0.00000000000E+00  0.00000000000E+00  0.13624849938E+03  0.13624849938E+03  0.00000000000E+00 0.  1.
         21   -1    0    0  503  502  0.00000000000E+00 -0.00000000000E+00 -0.49366852738E+03  0.49366852738E+03  0.00000000000E+00 0. -1.
         23    2    1    2    0    0  0.87751165775E+02  0.31090919349E+02 -0.90837770356E+02  0.15293108952E+03  0.80433234783E+02 0.  0.
         23    2    1    2    0    0 -0.17679472099E+03 -0.39982261639E+02 -0.41323203020E+02  0.20714966246E+03  0.91369693737E+02 0.  0.
        -11    1    4    4    0    0 -0.12742020400E+03 -0.37776189263E+02  0.13204423691E+02  0.13355637637E+03  0.00000000000E+00 0.  1.
         11    1    4    4    0    0 -0.49374516987E+02 -0.22060723764E+01 -0.54527626712E+02  0.73593286093E+02  0.00000000000E+00 0. -1.
        -13    1    3    3    0    0 -0.40650554062E+01  0.24445364060E+02 -0.17774688904E+01  0.24844715638E+02  0.00000000000E+00 0. -1.
         13    1    3    3    0    0  0.91816221182E+02  0.66455552897E+01 -0.89060301465E+02  0.12808637388E+03  0.00000000000E+00 0.  1.
         21    1    1    2  503  501 -0.10351226572E+02 -0.25555652501E+02 -0.84227021748E+01  0.28830212940E+02  0.00000000000E+00 0. -1.
         -3    1    1    2    0  502  0.99394781787E+02  0.34446994791E+02 -0.21683635245E+03  0.24100606183E+03  0.00000000000E+00 0.  1.
<scales pt_clust_5="13000.00000" pt_clust_6="13000.00000" pt_clust_7="13000.00000" pt_clust_8="13000.00000" pt_clust_9="27.57244" pt_clust_10="103.47373"></scales>
<clustering>
<clus scale="   27.572">  1  9  2 -1</clus>
<clus scale="   80.433">  7  8 -1 -1</clus>
<clus scale="   91.370">  5  6 -1 -1</clus>
<clus scale="  103.474">  2 10  1 -1</clus>
<clus scale="  158.393">  1  7  2 -1</clus>
<clus scale="  103.474">  2  5  1 -1</clus>
</clustering>
</event>
<event>
10    2  0.3544405E-006  0.9991012E+02  0.7546771E-02  0.1280745E+00
         21   -1    0    0  501  502  0.00000000000E+00  0.00000000000E+00  0.64740244498E+02  0.64740244498E+02  0.00000000000E+00 0. -1.
          1   -1    0    0  503    0 -0.00000000000E+00 -0.00000000000E+00 -0.10003991518E+04  0.10003991518E+04  0.00000000000E+00 0. -1.
         23    2    1    2    0    0 -0.97504870949E+02  0.18114711474E+02 -0.36448421244E+03  0.38841876330E+03  0.90471276863E+02 0.  0.
         23    2    1    2    0    0 -0.75140689470E+01  0.36317896345E+02 -0.19642490840E+03  0.21963957616E+03  0.91012899916E+02 0.  0.
        -13    1    3    3    0    0 -0.78160785922E+02  0.12319621844E+01 -0.35064197055E+03  0.35924979846E+03  0.00000000000E+00 0. -1.
         13    1    3    3    0    0 -0.19344085027E+02  0.16882749289E+02 -0.13842241890E+02  0.29168964837E+02  0.00000000000E+00 0.  1.
        -13    1    4    4    0    0  0.24714915878E+02 -0.20176208891E+02 -0.48572322192E+02  0.58113483420E+02  0.00000000000E+00 0.  1.
         13    1    4    4    0    0 -0.32228984825E+02  0.56494105236E+02 -0.14785258620E+03  0.16152609274E+03  0.00000000000E+00 0. -1.
         21    1    1    2  503  502  0.55847532726E+02 -0.14680173182E+02 -0.38817048422E+03  0.39244207116E+03  0.00000000000E+00 0.  1.
          1    1    1    2  501    0  0.49171407170E+02 -0.39752434637E+02  0.13420697742E+02  0.64638985686E+02  0.00000000000E+00 0. -1.
<scales pt_clust_5="13000.00000" pt_clust_6="13000.00000" pt_clust_7="13000.00000" pt_clust_8="13000.00000" pt_clust_9="57.74473" pt_clust_10="65.44838"></scales>
<clustering>
<clus scale="   57.745">  2  9  1 -1</clus>
<clus scale="   65.448">  1 10  2 -1</clus>
<clus scale="   90.471">  5  6 -1 -1</clus>
<clus scale="   91.013">  7  8 -1 -1</clus>
<clus scale="   99.417">  2  5  1 -1</clus>
<clus scale="   65.448">  1  5  2 -1</clus>
</clustering>
</event>
<event>
10    2  0.3544405E-006  0.1319940E+03  0.7546771E-02  0.1234863E+00
         -2   -1    0    0    0  501 -0.00000000000E+00  0.00000000000E+00  0.13111820152E+04  0.13111820152E+04  0.00000000000E+00 0.  1.
         21   -1    0    0  503  502  0.00000000000E+00 -0.00000000000E+00 -0.49128896652E+02  0.49128896652E+02  0.00000000000E+00 0. -1.
         23    2    1    2    0    0  0.74910320389E+02 -0.71300954180E+01  0.52671140693E+03  0.53994373008E+03  0.91934384725E+02 0.  0.
         23    2    1    2    0    0  0.14787190857E+02  0.49125678056E+02  0.35726615403E+03  0.37241429114E+03  0.91767674960E+02 0.  0.
        -11    1    3    3    0    0  0.93575188411E+02 -0.14647624609E+02  0.47703317535E+03  0.48634506184E+03  0.00000000000E+00 0.  1.
         11    1    3    3    0    0 -0.18664868022E+02  0.75175291913E+01  0.49678231582E+02  0.53598668235E+02  0.00000000000E+00 0. -1.
        -13    1    4    4    0    0  0.51547528735E+02  0.12076947207E+02  0.17982228188E+03  0.18745413688E+03  0.00000000000E+00 0.  1.
         13    1    4    4    0    0 -0.36760337878E+02  0.37048730849E+02  0.17744387215E+03  0.18496015426E+03  0.00000000000E+00 0. -1.
         21    1    1    2  503  501 -0.12548067817E+03 -0.37704964672E+02  0.38885524081E+03  0.41033579330E+03  0.00000000000E+00 0. -1.
         -2    1    1    2    0  502  0.35783166922E+02 -0.42906179659E+01 -0.10779683275E+02  0.37617097296E+02  0.00000000000E+00 0.  1.
<scales pt_clust_5="13000.00000" pt_clust_6="13000.00000" pt_clust_7="13000.00000" pt_clust_8="13000.00000" pt_clust_9="94.71264" pt_clust_10="36.03948"></scales>
<clustering>
<clus scale="   36.039">  2 10  1 -1</clus>
<clus scale="   91.768">  7  8 -1 -1</clus>
<clus scale="   91.934">  5  6 -1 -1</clus>
<clus scale="  106.614">  2  7  1 -1</clus>
<clus scale="   94.713">  2  9  1 -1</clus>
<clus scale="   36.039">  2  5  1 -1</clus>
</clustering>
</event>
<event>
10    2  0.3544405E-006  0.1414052E+03  0.7546771E-02  0.1222206E+00
         21   -1    0    0  501  502  0.00000000000E+00  0.00000000000E+00  0.16995049746E+03  0.16995049746E+03  0.00000000000E+00 0. -1.
          2   -1    0    0  503    0 -0.00000000000E+00 -0.00000000000E+00 -0.43264840138E+03  0.43264840138E+03  0.00000000000E+00 0. -1.
         23    2    1    2    0    0 -0.52988093386E+02 -0.16547177056E+02 -0.10480697086E+03  0.15092574237E+03  0.93340942042E+02 0.  0.
         23    2    1    2    0    0 -0.57937998977E+00  0.82101044702E+02 -0.12162754452E+03  0.17268561614E+03  0.91028266015E+02 0.  0.
        -11    1    3    3    0    0 -0.67510744629E+02  0.14405516968E+02 -0.46165603837E+02  0.83045063291E+02  0.00000000000E+00 0. -1.
         11    1    3    3    0    0  0.14522651243E+02 -0.30952694024E+02 -0.58641367022E+02  0.67880679082E+02  0.00000000000E+00 0.  1.
        -11    1    4    4    0    0 -0.33916016690E+02  0.49783925489E+02 -0.10905084540E+03  0.12458259231E+03  0.00000000000E+00 0.  1.
         11    1    4    4    0    0  0.33336636700E+02  0.32317119213E+02 -0.12576699123E+02  0.48103023829E+02  0.00000000000E+00 0. -1.
         21    1    1    2  503  502 -0.23115693023E+02  0.22412115389E+02 -0.12709313184E+03  0.13110797970E+03  0.00000000000E+00 0. -1.
          2    1    1    2  501    0  0.76683166399E+02 -0.87965983035E+02  0.90829743310E+02  0.14787956062E+03  0.00000000000E+00 0. -1.
<scales pt_clust_5="13000.00000" pt_clust_6="13000.00000" pt_clust_7="13000.00000" pt_clust_8="13000.00000" pt_clust_9="32.19687" pt_clust_10="108.20939"></scales>
<clustering>
<clus scale="   32.197">  2  9  1 -1</clus>
<clus scale="   91.028">  7  8 -1 -1</clus>
<clus scale="   93.341">  5  6 -1 -1</clus>
<clus scale="  112.683">  2  5  1 -1</clus>
<clus scale="  108.209">  1 10  2 -1</clus>
<clus scale="  108.209">  1  5  2 -1</clus>
</clustering>
</event>
<event>
10    2  0.3544405E-006  0.1373748E+03  0.7546771E-02  0.1230548E+00
         -1   -1    0    0    0  501 -0.00000000000E+00  0.00000000000E+00  0.33875709974E+03  0.33875709974E+03  0.00000000000E+00 0.  1.
         21   -1    0    0  503  502  0.00000000000E+00 -0.00000000000E+00 -0.34476018140E+03  0.34476018140E+03  0.00000000000E+00 0.  1.
         23    2    1    2    0    0  0.34511145238E+02 -0.48116522739E+02  0.20902273812E+03  0.23564649167E+03  0.91282775366E+02 0.  0.
         23    2    1    2    0    0 -0.20450017604E+02 -0.62561173891E+02  0.51734918884E+02  0.12476252042E+03  0.92504491624E+02 0.  0.
        -13    1    3    3    0    0 -0.98039537225E+01  0.22177167401E+02  0.64936181094E+02  0.69315596207E+02  0.00000000000E+00 0. -1.
         13    1    3    3    0    0  0.44315098961E+02 -0.70293690140E+02  0.14408655703E+03  0.16633089547E+03  0.00000000000E+00 0.  1.
        -13    1    4    4    0    0 -0.35150865670E+02 -0.78303923808E+02  0.23016698660E+02  0.88864257485E+02  0.00000000000E+00 0.  1.
         13    1    4    4    0    0  0.14700848067E+02  0.15742749917E+02  0.28718220224E+02  0.35898262934E+02  0.00000000000E+00 0. -1.
         21    1    1    2  503  501 -0.21947127116E+02  0.52883453971E+01  0.11585072962E+02  0.25374335483E+02  0.00000000000E+00 0.  1.
         -1    1    1    2    0  502  0.78859994810E+01  0.10538935123E+03 -0.27834581164E+03  0.29773393357E+03  0.00000000000E+00 0.  1.
<scales pt_clust_5="13000.00000" pt_clust_6="13000.00000" pt_clust_7="13000.00000" pt_clust_8="13000.00000" pt_clust_9="22.57527" pt_clust_10="101.56152"></scales>
<clustering>
<clus scale="   22.575">  1  9  2 -1</clus>
<clus scale="   91.283">  5  6 -1 -1</clus>
<clus scale="   92.504">  7  8 -1 -1</clus>
<clus scale="  103.342">  1  5  2 -1</clus>
<clus scale="  101.562">  2 10  1 -1</clus>
<clus scale="  101.562">  2  5  1 -1</clus>
</clustering>
</event>
<event>
10    2  0.3544405E-006  0.1935705E+03  0.7546771E-02  0.1155335E+00
         -3   -1    0    0    0  501 -0.00000000000E+00  0.00000000000E+00  0.99199768288E+02  0.99199768288E+02  0.00000000000E+00 0.  1.
         21   -1    0    0  503  502  0.00000000000E+00 -0.00000000000E+00 -0.80337195430E+03  0.80337195430E+03  0.00000000000E+00 0.  1.
         23    2    1    2    0    0 -0.33286826726E+02  0.17374383842E+03 -0.14792789568E+03  0.24851572493E+03  0.92641615876E+02 0.  0.
         23    2    1    2    0    0  0.17765087743E+02 -0.18300824773E+03 -0.32730831914E+03  0.38680347043E+03  0.93158852931E+02 0.  0.
        -11    1    4    4    0    0  0.25426087386E+00 -0.52144335948E+02 -0.18703336952E+03  0.19416636612E+03  0.00000000000E+00 0. -1.
         11    1    4    4    0    0  0.17510826869E+02 -0.13086391178E+03 -0.14027494962E+03  0.19263710430E+03  0.00000000000E+00 0.  1.
        -13    1    3    3    0    0 -0.31669059258E+02  0.19756676238E+02 -0.36701505095E+01  0.37506340464E+02  0.00000000000E+00 0. -1.
         13    1    3    3    0    0 -0.16177674681E+01  0.15398716219E+03 -0.14425774517E+03  0.21100938446E+03  0.00000000000E+00 0.  1.
         21    1    1    2  503  501  0.17805287566E+02 -0.27402883299E+02  0.26349275016E+01  0.32785501695E+02  0.00000000000E+00 0.  1.
         -3    1    1    2    0  502 -0.22835485829E+01  0.36667292604E+02 -0.23157089869E+03  0.23446702553E+03  0.00000000000E+00 0.  1.
<scales pt_clust_5="13000.00000" pt_clust_6="13000.00000" pt_clust_7="13000.00000" pt_clust_8="13000.00000" pt_clust_9="32.67945" pt_clust_10="36.23378"></scales>
<clustering>
<clus scale="   32.679">  1  9  2 -1</clus>
<clus scale="   36.234">  2 10  1 -1</clus>
<clus scale="   92.642">  7  8 -1 -1</clus>
<clus scale="   93.159">  5  6 -1 -1</clus>
<clus scale="  193.322">  1  7  2 -1</clus>
<clus scale="   36.234">  2  5  1 -1</clus>
</clustering>
</event>
<event>
10    2  0.3544405E-006  0.1861379E+03  0.7546771E-02  0.1162446E+00
          1   -1    0    0  503    0 -0.00000000000E+00  0.00000000000E+00  0.37797456877E+03  0.37797456877E+03  0.00000000000E+00 0. -1.
         21   -1    0    0  501  502  0.00000000000E+00 -0.00000000000E+00 -0.21250247240E+03  0.21250247240E+03  0.00000000000E+00 0. -1.
         23    2    1    2    0    0 -0.11040194790E+03  0.67511540276E+02 -0.65232952956E+01  0.15709255308E+03  0.88820710868E+02 0.  0.
         23    2    1    2    0    0  0.20490339109E+03 -0.14457781376E+02  0.56726387909E+02  0.23243183856E+03  0.92802205626E+02 0.  0.
        -11    1    3    3    0    0 -0.62607793423E+02 -0.33103941205E+01 -0.28503293987E+02  0.68870402022E+02  0.00000000000E+00 0.  1.
         11    1    3    3    0    0 -0.47794154481E+02  0.70821934397E+02  0.21979998692E+02  0.88222151055E+02  0.00000000000E+00 0. -1.
        -13    1    4    4    0    0  0.18377949078E+03 -0.42889221385E+02  0.38528288750E+02  0.19261052821E+03  0.00000000000E+00 0. -1.
         13    1    4    4    0    0  0.21123900310E+02  0.28431440008E+02  0.18198099159E+02  0.39821310353E+02  0.00000000000E+00 0.  1.
         21    1    1    2  503  502  0.12398578131E+02  0.17995240806E+02  0.54936217327E+02  0.59123103822E+02  0.00000000000E+00 0. -1.
          1    1    1    2  501    0 -0.10690002132E+03 -0.71048999705E+02  0.60332786426E+02  0.14182954571E+03  0.00000000000E+00 0. -1.
<scales pt_clust_5="13000.00000" pt_clust_6="13000.00000" pt_clust_7="13000.00000" pt_clust_8="13000.00000" pt_clust_9="21.85300" pt_clust_10="121.99482"></scales>
<clustering>
<clus scale="   21.853">  1  9  2 -1</clus>
<clus scale="   88.821">  5  6 -1 -1</clus>
<clus scale="   92.802">  7  8 -1 -1</clus>
<clus scale="  121.995">  2 10  1 -1</clus>
<clus scale="  184.185">  1  5  2 -1</clus>
<clus scale="  121.995">  2  5  1 -1</clus>
</clustering>
</event>
<event>
10    2  0.3544405E-006  0.1041213E+03  0.7546771E-02  0.1273175E+00
         21   -1    0    0  501  502  0.00000000000E+00  0.00000000000E+00  0.12282384215E+03  0.12282384215E+03  0.00000000000E+00 0. -1.
          2   -1    0    0  503    0 -0.00000000000E+00 -0.00000000000E+00 -0.27814437413E+03  0.27814437413E+03  0.00000000000E+00 0. -1.
         23    2    1    2    0    0  0.23926484869E+02  0.23251543486E+02 -0.91118886578E+02  0.13576499502E+03  0.94954575607E+02 0.  0.
         23    2    1    2    0    0 -0.71744268887E+01 -0.21597670829E+02  0.12686870879E+02  0.95708532881E+02  0.92093619688E+02 0.  0.
        -11    1    4    4    0    0  0.31778397062E+02  0.15474107256E+02  0.21272792406E+02  0.41253438789E+02  0.00000000000E+00 0. -1.
         11    1    4    4    0    0 -0.38952823951E+02 -0.37071778085E+02 -0.85859215270E+01  0.54455094092E+02  0.00000000000E+00 0.  1.
        -13    1    3    3    0    0  0.10167482311E+02 -0.34592950915E+02 -0.14695053843E+02  0.38935774771E+02  0.00000000000E+00 0.  1.
         13    1    3    3    0    0  0.13759002558E+02  0.57844494401E+02 -0.76423832735E+02  0.96829220248E+02  0.00000000000E+00 0. -1.
         21    1    1    2  503  502  0.21649583176E+02  0.38748180649E+02 -0.99802893339E+02  0.10922794274E+03  0.00000000000E+00 0. -1.
          2    1    1    2  501    0 -0.38401641156E+02 -0.40402053306E+02  0.22914377057E+02  0.60266745646E+02  0.00000000000E+00 0. -1.
<scales pt_clust_5="13000.00000" pt_clust_6="13000.00000" pt_clust_7="13000.00000" pt_clust_8="13000.00000" pt_clust_9="44.38610" pt_clust_10="51.12896"></scales>
<clustering>
<clus scale="   44.386">  2  9  1 -1</clus>
<clus scale="   51.129">  1 10  2 -1</clus>
<clus scale="   92.094">  5  6 -1 -1</clus>
<clus scale="   94.955">  7  8 -1 -1</clus>
<clus scale="  101.519">  1  5  2 -1</clus>
<clus scale="   51.129">  1  5  2 -1</clus>
</clustering>
</event>
<event>
10    2  0.3544405E-006  0.1397851E+03  0.7546771E-02  0.1228452E+00
         21   -1    0    0  501  502  0.00000000000E+00  0.00000000000E+00  0.31545236595E+03  0.31545236595E+03  0.00000000000E+00 0. -1.
          1   -1    0    0  503    0 -0.00000000000E+00 -0.00000000000E+00 -0.24444101150E+03  0.24444101150E+03  0.00000000000E+00 0. -1.
         23    2    1    2    0    0  0.19304266051E+02 -0.72854231834E+02 -0.16034765324E+03  0.19644848555E+03  0.84854250284E+02 0.  0.
         23    2    1    2    0    0 -0.41083651715E+02  0.39962012232E+02  0.24329748892E+03  0.28058282551E+03  0.12746852551E+03 0.  0.
        -11    1    4    4    0    0 -0.30598462231E+02 -0.37363630725E+02  0.39611880816E+02  0.62461251137E+02  0.00000000000E+00 0.  1.
         11    1    4    4    0    0 -0.10485189484E+02  0.77325642957E+02  0.20368560810E+03  0.21812157437E+03  0.00000000000E+00 0. -1.
        -13    1    3    3    0    0  0.25994943588E+00 -0.59945569158E+02 -0.16263208928E+03  0.17332840303E+03  0.00000000000E+00 0. -1.
         13    1    3    3    0    0  0.19044316616E+02 -0.12908662676E+02  0.22844360401E+01  0.23120082514E+02  0.00000000000E+00 0.  1.
         21    1    1    2  503  502 -0.26149328258E+02  0.17639503211E+02 -0.71066597911E+01  0.32333327315E+02  0.00000000000E+00 0. -1.
          1    1    1    2  501    0  0.47928713921E+02  0.15252716391E+02 -0.48318214427E+01  0.50528739089E+02  0.00000000000E+00 0. -1.
<scales pt_clust_5="13000.00000" pt_clust_6="13000.00000" pt_clust_7="13000.00000" pt_clust_8="13000.00000" pt_clust_9="31.54266" pt_clust_10="47.98366"></scales>
<clustering>
<clus scale="   31.543">  2  9  1 -1</clus>
<clus scale="   47.984">  1 10  2 -1</clus>
<clus scale="   84.854">  7  8 -1 -1</clus>
<clus scale="  102.430">  2  7  1 -1</clus>
<clus scale="  127.469">  5  6 -1 -1</clus>
<clus scale="   47.984">  1  5  2 -1</clus>
</clustering>
</event>
<event>
10    2  0.3544405E-006  0.9630014E+02  0.7546771E-02  0.1288597E+00
         -3   -1    0    0    0  501 -0.00000000000E+00  0.00000000000E+00  0.24437203234E+03  0.24437203234E+03  0.00000000000E+00 0.  1.
         21   -1    0    0  503  502  0.00000000000E+00 -0.00000000000E+00 -0.10245589105E+03  0.10245589105E+03  0.00000000000E+00 0.  1.
         23    2    1    2    0    0  0.18969228282E+02  0.16932136203E+02  0.84425893636E+02  0.12682283753E+03  0.91157949435E+02 0.  0.
         23    2    1    2    0    0 -0.31634801023E+02  0.46992061861E+02  0.70548379916E+02  0.12886965769E+03  0.91767642718E+02 0.  0.
        -11    1    4    4    0    0  0.17184375068E+02  0.54505502416E+02  0.47728280458E+02  0.74458990696E+02  0.00000000000E+00 0.  1.
         11    1    4    4    0    0 -0.48819176091E+02 -0.75134405549E+01  0.22820099458E+02  0.54410666991E+02  0.00000000000E+00 0. -1.
        -13    1    3    3    0    0  0.43803967631E+02  0.24460651500E+02  0.14480787204E+02  0.52218811266E+02  0.00000000000E+00 0.  1.
         13    1    3    3    0    0 -0.24834739349E+02 -0.75285152966E+01  0.69945106432E+02  0.74604026265E+02  0.00000000000E+00 0. -1.
         21    1    1    2  503  501  0.21426989130E+02 -0.16236485319E+02  0.19079179876E+02  0.32965958555E+02  0.00000000000E+00 0.  1.
         -3    1    1    2    0  502 -0.87614163888E+01 -0.47687712745E+02 -0.32137312133E+02  0.58169469614E+02  0.00000000000E+00 0.  1.
<scales pt_clust_5="13000.00000" pt_clust_6="13000.00000" pt_clust_7="13000.00000" pt_clust_8="13000.00000" pt_clust_9="26.88381" pt_clust_10="49.22782"></scales>
<clustering>
<clus scale="   26.884">  1  9  2 -1</clus>
<clus scale="   49.228">  2 10  1 -1</clus>
<clus scale="   91.158">  7  8 -1 -1</clus>
<clus scale="   91.768">  5  6 -1 -1</clus>
<clus scale="   95.719">  1  7  2 -1</clus>
<clus scale="   49.228">  2  5  1 -1</clus>
</clustering>
</event>
<event>
10    2  0.3544405E-006  0.2016074E+03  0.7546771E-02  0.1177551E+00
         -3   -1    0    0    0  501 -0.00000000000E+00  0.00000000000E+00  0.25031316310E+03  0.25031316310E+03  0.00000000000E+00 0.  1.
         21   -1    0    0  503  502  0.00000000000E+00 -0.00000000000E+00 -0.55528264931E+03  0.55528264931E+03  0.00000000000E+00 0. -1.
         23    2    1    2    0    0 -0.39935734756E+02 -0.16561785345E+02  0.94475817454E+01  0.10018775618E+03  0.89884225780E+02 0.  0.
         23    2    1    2    0    0  0.20258206907E+03  0.63230804899E+02 -0.14791521442E+03  0.27399831975E+03  0.90324632159E+02 0.  0.
        -11    1    3    3    0    0  0.17517355549E+02 -0.34903109105E+02 -0.54322456086E+00  0.39056111731E+02  0.00000000000E+00 0.  1.
         11    1    3    3    0    0 -0.57453090305E+02  0.18341323760E+02  0.99908063063E+01  0.61131644453E+02  0.00000000000E+00 0. -1.
        -13    1    4    4    0    0  0.10522369028E+02 -0.18888055237E+02 -0.16761902712E+02  0.27357636286E+02  0.00000000000E+00 0.  1.
         13    1    4    4    0    0  0.19205970004E+03  0.82118860136E+02 -0.13115331171E+03  0.24664068346E+03  0.00000000000E+00 0. -1.
         21    1    1    2  503  501 -0.14888794758E+03  0.16790045028E+02  0.84587743859E+02  0.17205991095E+03  0.00000000000E+00 0.  1.
         -3    1    1    2    0  502 -0.13758386734E+02 -0.63459064582E+02 -0.25108959739E+03  0.25934982553E+03  0.00000000000E+00 0.  1.
<scales pt_clust_5="13000.00000" pt_clust_6="13000.00000" pt_clust_7="13000.00000" pt_clust_8="13000.00000" pt_clust_9="180.24157" pt_clust_10="64.93340"></scales>
<clustering>
<clus scale="   64.933">  2 10  1 -1</clus>
<clus scale="   89.884">  5  6 -1 -1</clus>
<clus scale="   90.325">  7  8 -1 -1</clus>
<clus scale="  102.609">  1  5  2 -1</clus>
<clus scale="  180.242">  1  9  2 -1</clus>
<clus scale="   64.933">  2  5  1 -1</clus>
</clustering>
</event>
<event>
10    2  0.3544405E-006  0.1045188E+03  0.7546771E-02  0.1271492E+00
         21   -1    0    0  503  502  0.00000000000E+00  0.00000000000E+00  0.36077153220E+02  0.36077153220E+02  0.00000000000E+00 0.  1.
         -1   -1    0    0    0  501 -0.00000000000E+00 -0.00000000000E+00 -0.10378011271E+04  0.10378011271E+04  0.00000000000E+00 0.  1.
         23    2    1    2    0    0 -0.71862206952E+02 -0.25573095505E+02 -0.28468826254E+03  0.30858749630E+03  0.91436732465E+02 0.  0.
         23    2    1    2    0    0  0.25498163953E+02 -0.10269383180E+02 -0.28577577058E+03  0.30159653083E+03  0.92396210778E+02 0.  0.
        -11    1    3    3    0    0 -0.76569821394E+01  0.26979154391E+02 -0.31619189564E+02  0.42264373837E+02  0.00000000000E+00 0.  1.
         11    1    3    3    0    0 -0.64205224813E+02 -0.52552249896E+02 -0.25306907297E+03  0.26632312246E+03  0.00000000000E+00 0. -1.
        -13    1    4    4    0    0  0.44355971436E+02 -0.37332907498E+02 -0.12961929318E+03  0.14199422295E+03  0.00000000000E+00 0.  1.
         13    1    4    4    0    0 -0.18857807483E+02  0.27063524318E+02 -0.15615647739E+03  0.15960230789E+03  0.00000000000E+00 0. -1.
         21    1    1    2  503  501  0.58586892703E+02  0.72578452549E+02 -0.40800509737E+03  0.41853102066E+03  0.00000000000E+00 0.  1.
         -1    1    1    2    0  502 -0.12222849704E+02 -0.36735973863E+02 -0.23254843378E+02  0.45163232514E+02  0.00000000000E+00 0.  1.
<scales pt_clust_5="13000.00000" pt_clust_6="13000.00000" pt_clust_7="13000.00000" pt_clust_8="13000.00000" pt_clust_9="85.72466" pt_clust_10="38.71602"></scales>
<clustering>
<clus scale="   38.716">  1 10  2 -1</clus>
<clus scale="   85.725">  2  9  1 -1</clus>
<clus scale="   91.437">  5  6 -1 -1</clus>
<clus scale="   92.396">  7  8 -1 -1</clus>
<clus scale="  103.672">  2  5  1 -1</clus>
<clus scale="   38.716">  1  5  2 -1</clus>
</clustering>
</event>
<event>
10    2  0.3544405E-006  0.1237042E+03  0.7546771E-02  0.1241337E+00
         21   -1    0    0  501  502  0.00000000000E+00  0.00000000000E+00  0.33279664101E+03  0.33279664101E+03  0.00000000000E+00 0. -1.
          1   -1    0    0  503    0 -0.00000000000E+00 -0.00000000000E+00 -0.58198275501E+03  0.58198275501E+03  0.00000000000E+00 0. -1.
         23    2    1    2    0    0 -0.92600584032E+02  0.58244916532E+02 -0.43220578285E+03  0.45511750471E+03  0.91448159630E+02 0.  0.
         23    2    1    2    0    0  0.42215649827E+02  0.13643724694E+02  0.18875803191E+02  0.11447908225E+03  0.10383088179E+03 0.  0.
        -11    1    3    3    0    0 -0.78885891487E+02  0.82753763232E+02 -0.35548903228E+03  0.37342150618E+03  0.00000000000E+00 0. -1.
         11    1    3    3    0    0 -0.13714692546E+02 -0.24508846700E+02 -0.76716750574E+02  0.81695998536E+02  0.00000000000E+00 0.  1.
        -13    1    4    4    0    0 -0.29512239735E+02 -0.12991201749E+02  0.20024735289E+02  0.37956997253E+02  0.00000000000E+00 0.  1.
         13    1    4    4    0    0  0.71727889562E+02  0.26634926444E+02 -0.11489320985E+01  0.76522084999E+02  0.00000000000E+00 0. -1.
         21    1    1    2  503  502  0.30425027269E+02 -0.28506161546E+02 -0.83311583083E+02  0.93161705686E+02  0.00000000000E+00 0. -1.
          1    1    1    2  501    0  0.19959906937E+02 -0.43382479680E+02  0.24745544874E+03  0.25202110336E+03  0.00000000000E+00 0. -1.
<scales pt_clust_5="13000.00000" pt_clust_6="13000.00000" pt_clust_7="13000.00000" pt_clust_8="13000.00000" pt_clust_9="41.69273" pt_clust_10="47.93251"></scales>
<clustering>
<clus scale="   41.693">  2  9  1 -1</clus>
<clus scale="   47.933">  1 10  2 -1</clus>
<clus scale="   91.448">  5  6 -1 -1</clus>
<clus scale="  103.831">  7  8 -1 -1</clus>
<clus scale="  113.511">  2  5  1 -1</clus>
<clus scale="   47.933">  1  5  2 -1</clus>
</clustering>
</event>
<event>
10    2  0.3544405E-006  0.1217266E+03  0.7546771E-02  0.1240303E+00
         21   -1    0    0  501  502  0.00000000000E+00  0.00000000000E+00  0.14754041587E+03  0.14754041587E+03  0.00000000000E+00 0.  1.
          3   -1    0    0  503    0 -0.00000000000E+00 -0.00000000000E+00 -0.27195266536E+03  0.27195266536E+03  0.00000000000E+00 0. -1.
         23    2    1    2    0    0  0.68316367964E+02 -0.28762840417E+02 -0.14229363001E+03  0.18464782302E+03  0.91394279271E+02 0.  0.
         23    2    1    2    0    0 -0.88990521437E+02 -0.40735146256E+02 -0.18593681750E+02  0.13513276800E+03  0.91304298579E+02 0.  0.
        -11    1    4    4    0    0 -0.47404188776E+02  0.26637011412E+02 -0.12010837507E+02  0.55686153648E+02  0.00000000000E+00 0. -1.
         11    1    4    4    0    0 -0.41586332661E+02 -0.67372157668E+02 -0.65828442428E+01  0.79446614348E+02  0.00000000000E+00 0.  1.
        -13    1    3    3    0    0  0.75069438895E+02  0.12236172633E+02 -0.89108752932E+02  0.11715594063E+03  0.00000000000E+00 0. -1.
         13    1    3    3    0    0 -0.67530709306E+01 -0.40999013050E+02 -0.53184877074E+02  0.67491882382E+02  0.00000000000E+00 0.  1.
         21    1    1    2  503  502  0.14122269901E+02  0.33369248423E+02 -0.12652020695E+02  0.38379928025E+02  0.00000000000E+00 0. -1.
          3    1    1    2  501    0  0.65518835710E+01  0.36128738250E+02  0.49127082954E+02  0.61332562195E+02  0.00000000000E+00 0. -1.
<scales pt_clust_5="13000.00000" pt_clust_6="13000.00000" pt_clust_7="13000.00000" pt_clust_8="13000.00000" pt_clust_9="36.23459" pt_clust_10="37.59403"></scales>
<clustering>
<clus scale="   36.235">  2  9  1 -1</clus>
<clus scale="   37.594">  1 10  2 -1</clus>
<clus scale="   91.304">  5  6 -1 -1</clus>
<clus scale="   91.394">  7  8 -1 -1</clus>
<clus scale="  121.659">  1  5  2 -1</clus>
<clus scale="   37.594">  1  5  2 -1</clus>
</clustering>
</event>
<event>
10    2  0.3544405E-006  0.2167450E+03  0.7546771E-02  0.1156246E+00
         21   -1    0    0  501  502  0.00000000000E+00  0.00000000000E+00  0.21477413596E+03  0.21477413596E+03  0.00000000000E+00 0.  1.
          1   -1    0    0  503    0 -0.00000000000E+00 -0.00000000000E+00 -0.63652480209E+03  0.63652480209E+03  0.00000000000E+00 0. -1.
         23    2    1    2    0    0 -0.18786080862E+02 -0.93752024706E+02 -0.32131591639E+03  0.34747960174E+03  0.91410046119E+02 0.  0.
         23    2    1    2    0    0 -0.28174872368E+02  0.23863269720E+03  0.62606393083E+02  0.26483927962E+03  0.92091780133E+02 0.  0.
        -11    1    3    3    0    0 -0.46028420143E+02 -0.89437170733E+02 -0.28241215273E+03  0.29979033837E+03  0.00000000000E+00 0. -1.
         11    1    3    3    0    0  0.27242339281E+02 -0.43148539727E+01 -0.38903763661E+02  0.47689263376E+02  0.00000000000E+00 0.  1.
        -13    1    4    4    0    0 -0.10904882320E+02  0.17675391960E+03  0.28684149452E+01  0.17711321903E+03  0.00000000000E+00 0. -1.
         13    1    4    4    0    0 -0.17269990049E+02  0.61878777597E+02  0.59737978138E+02  0.87726060582E+02  0.00000000000E+00 0.  1.
         21    1    1    2  503  502  0.24057232605E+02 -0.88542563981E+01 -0.64641647219E+02  0.69539131804E+02  0.00000000000E+00 0. -1.
          1    1    1    2  501    0  0.22903720625E+02 -0.13602641609E+03 -0.98399495605E+02  0.16944092489E+03  0.00000000000E+00 0. -1.
<scales pt_clust_5="13000.00000" pt_clust_6="13000.00000" pt_clust_7="13000.00000" pt_clust_8="13000.00000" pt_clust_9="25.63490" pt_clust_10="196.20787"></scales>
<clustering>
<clus scale="   25.635">  2  9  1 -1</clus>
<clus scale="   91.410">  5  6 -1 -1</clus>
<clus scale="   92.092">  7  8 -1 -1</clus>
<clus scale="  134.792">  2  5  1 -1</clus>
<clus scale="  196.208">  1 10  2 -1</clus>
<clus scale="  196.208">  1  5  2 -1</clus>
</clustering>
</event>
<event>
10    2  0.3544405E-006  0.3245785E+03  0.7546771E-02  0.1120891E+00
          1   -1    0    0  503    0 -0.00000000000E+00  0.00000000000E+00  0.19452817619E+04  0.19452817619E+04  0.00000000000E+00 0. -1.
         21   -1    0    0  501  502  0.00000000000E+00 -0.00000000000E+00 -0.32293749142E+03  0.32293749142E+03  0.00000000000E+00 0. -1.
         23    2    1    2    0    0 -0.62709962650E+02 -0.33362414811E+03  0.13896877803E+03  0.37548153438E+03  0.80227487617E+02 0.  0.
         23    2    1    2    0    0 -0.13806877177E+02  0.22810901150E+02  0.10548611675E+03  0.14170630405E+03  0.90787602185E+02 0.  0.
        -11    1    4    4    0    0  0.31359006565E+02  0.12095454391E+02  0.92509422380E+01  0.34860683326E+02  0.00000000000E+00 0.  1.
         11    1    4    4    0    0 -0.45165883742E+02  0.10715446759E+02  0.96235174513E+02  0.10684562072E+03  0.00000000000E+00 0. -1.
        -13    1    3    3    0    0  0.12640635945E+02 -0.10918411311E+03  0.24970114015E+02  0.11271407555E+03  0.00000000000E+00 0. -1.
         13    1    3    3    0    0 -0.75350598595E+02 -0.22444003500E+03  0.11399866402E+03  0.26276745883E+03  0.00000000000E+00 0.  1.
         21    1    1    2  503  502  0.54307715746E+02  0.30646578440E+03  0.15482247273E+04  0.15791992943E+04  0.00000000000E+00 0. -1.
          1    1    1    2  501    0  0.22209124080E+02  0.43474625693E+01 -0.17033535165E+03  0.17183212052E+03  0.00000000000E+00 0. -1.
<scales pt_clust_5="13000.00000" pt_clust_6="13000.00000" pt_clust_7="13000.00000" pt_clust_8="13000.00000" pt_clust_9="314.50711" pt_clust_10="22.63063"></scales>
<clustering>
<clus scale="   22.631">  2 10  1 -1</clus>
<clus scale="   80.227">  7  8 -1 -1</clus>
<clus scale="   90.788">  5  6 -1 -1</clus>
<clus scale="   94.399">  2  5  1 -1</clus>
<clus scale="  314.507">  1  9  2 -1</clus>
<clus scale="   22.631">  2  5  1 -1</clus>
</clustering>
</event>
<event>
10    2  0.3544405E-006  0.1035111E+03  0.7546771E-02  0.1273137E+00
         21   -1    0    0  503  502  0.00000000000E+00  0.00000000000E+00  0.26928447205E+03  0.26928447205E+03  0.00000000000E+00 0. -1.
         -3   -1    0    0    0  501 -0.00000000000E+00 -0.00000000000E+00 -0.12593468791E+03  0.12593468791E+03  0.00000000000E+00 0.  1.
         23    2    1    2    0    0 -0.19267557065E+02  0.23826180691E+02 -0.34003161689E+02  0.10164163785E+03  0.90751759750E+02 0.  0.
         23    2    1    2    0    0  0.75475902570E+02 -0.51662401579E+02  0.90257614299E+02  0.15724110744E+03  0.90624021778E+02 0.  0.
        -11    1    3    3    0    0  0.32455134715E+01  0.36136651554E+02 -0.56746492595E+02  0.67353955823E+02  0.00000000000E+00 0. -1.
         11    1    3    3    0    0 -0.22513070536E+02 -0.12310470863E+02  0.22743330906E+02  0.34287682023E+02  0.00000000000E+00 0.  1.
        -13    1    4    4    0    0  0.32074679647E+02 -0.37193316519E+02 -0.71439793260E+01  0.49630276130E+02  0.00000000000E+00 0.  1.
         13    1    4    4    0    0  0.43401222923E+02 -0.14469085060E+02  0.97401593625E+02  0.10761083131E+03  0.00000000000E+00 0. -1.
         21    1    1    2  503  501  0.52639194602E+01  0.20226636077E+02 -0.83887024151E+01  0.22521012040E+02  0.00000000000E+00 0.  1.
         -3    1    1    2    0  502 -0.61472264966E+02  0.76095848103E+01  0.95484033941E+02  0.11381540264E+03  0.00000000000E+00 0.  1.
<scales pt_clust_5="13000.00000" pt_clust_6="13000.00000" pt_clust_7="13000.00000" pt_clust_8="13000.00000" pt_clust_9="20.90037" pt_clust_10="61.73815"></scales>
<clustering>
<clus scale="   20.900">  2  9  1 -1</clus>
<clus scale="   61.738">  1 10  2 -1</clus>
<clus scale="   90.624">  7  8 -1 -1</clus>
<clus scale="   90.752">  5  6 -1 -1</clus>
<clus scale="  103.399">  1  7  2 -1</clus>
<clus scale="   61.738">  1  5  2 -1</clus>
</clustering>
</event>
<event>
10    2  0.3544405E-006  0.3557137E+03  0.7546771E-02  0.1060377E+00
          2   -1    0    0  503    0 -0.00000000000E+00  0.00000000000E+00  0.13868820943E+04  0.13868820943E+04  0.00000000000E+00 0. -1.
         21   -1    0    0  501  502  0.00000000000E+00 -0.00000000000E+00 -0.28870592639E+03  0.28870592639E+03  0.00000000000E+00 0. -1.
         23    2    1    2    0    0  0.30157835508E+03  0.14420240668E+03  0.76035194239E+03  0.83565602827E+03  0.91880808321E+02 0.  0.
         23    2    1    2    0    0 -0.39990121925E+03 -0.16751316587E+03  0.32326656941E+03  0.54803508849E+03  0.88654032151E+02 0.  0.
        -11    1    3    3    0    0  0.23983592383E+03  0.14551828590E+03  0.66848036495E+03  0.72495712992E+03  0.00000000000E+00 0. -1.
         11    1    3    3    0    0  0.61742431250E+02 -0.13158792257E+01  0.91871577440E+02  0.11069889835E+03  0.00000000000E+00 0.  1.
        -13    1    4    4    0    0 -0.16761391625E+03 -0.10297645725E+03  0.10583020569E+03  0.22337996352E+03  0.00000000000E+00 0. -1.
         13    1    4    4    0    0 -0.23228730300E+03 -0.64536708621E+02  0.21743636373E+03  0.32465512497E+03  0.00000000000E+00 0.  1.
         21    1    1    2  503  502 -0.41540163548E+02  0.73811596756E+01  0.11267091377E+03  0.12031126928E+03  0.00000000000E+00 0.  1.
          2    1    1    2  501    0  0.13986302772E+03  0.15929599522E+02 -0.98113257708E+02  0.17158563461E+03  0.00000000000E+00 0. -1.
<scales pt_clust_5="13000.00000" pt_clust_6="13000.00000" pt_clust_7="13000.00000" pt_clust_8="13000.00000" pt_clust_9="42.19084" pt_clust_10="139.59833"></scales>
<clustering>
<clus scale="   42.191">  1  9  2 -1</clus>
<clus scale="   88.654">  7  8 -1 -1</clus>
<clus scale="   91.881">  5  6 -1 -1</clus>
<clus scale="  139.598">  2 10  1 -1</clus>
<clus scale="  354.894">  2  7  1 -1</clus>
<clus scale="  139.598">  2  5  1 -1</clus>
</clustering>
</event>
<event>
10    2  0.3544405E-006  0.9837653E+02  0.7546771E-02  0.1284379E+00
          1   -1    0    0  503    0 -0.00000000000E+00  0.00000000000E+00  0.61202741639E+03  0.61202741639E+03  0.00000000000E+00 0. -1.
         21   -1    0    0  501  502  0.00000000000E+00 -0.00000000000E+00 -0.88600364906E+02  0.88600364906E+02  0.00000000000E+00 0.  1.
         23    2    1    2    0    0 -0.50187541343E+01 -0.37511130826E+02  0.22595805836E+03  0.24743614335E+03  0.93462976986E+02 0.  0.
         23    2    1    2    0    0  0.14548956792E+01  0.49477150864E+02  0.99811743504E+02  0.14463515750E+03  0.92232529324E+02 0.  0.
        -11    1    3    3    0    0 -0.14052887928E+02  0.23877624906E+02  0.25718635839E+02  0.37803080029E+02  0.00000000000E+00 0.  1.
         11    1    3    3    0    0  0.90341337940E+01 -0.61388755733E+02  0.20023942252E+03  0.20963306332E+03  0.00000000000E+00 0. -1.
        -13    1    4    4    0    0  0.32731060057E+02  0.49956129707E+02  0.27306274046E+02  0.65670159053E+02  0.00000000000E+00 0.  1.
         13    1    4    4    0    0 -0.31276164378E+02 -0.47897884253E+00  0.72505469458E+02  0.78964998451E+02  0.00000000000E+00 0. -1.
         21    1    1    2  503  502 -0.24594667045E+01  0.30560646040E+02  0.24368219977E+03  0.24560337243E+03  0.00000000000E+00 0.  1.
          1    1    1    2  501    0  0.60233251595E+01 -0.42526666078E+02 -0.46024950147E+02  0.62953108023E+02  0.00000000000E+00 0. -1.
<scales pt_clust_5="13000.00000" pt_clust_6="13000.00000" pt_clust_7="13000.00000" pt_clust_8="13000.00000" pt_clust_9="30.65945" pt_clust_10="42.24606"></scales>
<clustering>
<clus scale="   30.659">  1  9  2 -1</clus>
<clus scale="   42.246">  2 10  1 -1</clus>
<clus scale="   92.233">  7  8 -1 -1</clus>
<clus scale="   93.463">  5  6 -1 -1</clus>
<clus scale="   97.208">  2  7  1 -1</clus>
<clus scale="   42.246">  2  5  1 -1</clus>
</clustering>
</event>
<event>
10    2  0.3544405E-006  0.1134512E+03  0.7546771E-02  0.1260096E+00
         -2   -1    0    0    0  501 -0.00000000000E+00  0.00000000000E+00  0.23297628289E+03  0.23297628289E+03  0.00000000000E+00 0.  1.
         21   -1    0    0  503  502  0.00000000000E+00 -0.00000000000E+00 -0.30626259048E+03  0.30626259048E+03  0.00000000000E+00 0.  1.
         23    2    1    2    0    0 -0.63200185971E+02 -0.21595403608E+02  0.79852923656E+02  0.14795604708E+03  0.10513742191E+03 0.  0.
         23    2    1    2    0    0  0.22357542750E+02  0.50111876925E-01  0.96447073258E+01  0.94960189625E+02  0.91785374680E+02 0.  0.
        -13    1    3    3    0    0 -0.12208720351E+02 -0.19209745878E+02  0.92587643886E+02  0.95344318078E+02  0.00000000000E+00 0.  1.
         13    1    3    3    0    0 -0.50991465620E+02 -0.23856577296E+01 -0.12734720231E+02  0.52611728999E+02  0.00000000000E+00 0. -1.
        -13    1    4    4    0    0  0.37969175589E+02  0.17009123859E+02  0.39413977797E+02  0.57309948832E+02  0.00000000000E+00 0.  1.
         13    1    4    4    0    0 -0.15611632839E+02 -0.16959011982E+02 -0.29769270472E+02  0.37650240792E+02  0.00000000000E+00 0. -1.
         21    1    1    2  503  501  0.86272920260E+01  0.54394483141E+02  0.52553172271E+02  0.76125067354E+02  0.00000000000E+00 0. -1.
         -2    1    1    2    0  502  0.32215351196E+02 -0.32849191410E+02 -0.21533711084E+03  0.22019756932E+03  0.00000000000E+00 0.  1.
<scales pt_clust_5="13000.00000" pt_clust_6="13000.00000" pt_clust_7="13000.00000" pt_clust_8="13000.00000" pt_clust_9="51.66069" pt_clust_10="46.00976"></scales>
<clustering>
<clus scale="   46.010">  2 10  1 -1</clus>
<clus scale="   51.661">  1  9  2 -1</clus>
<clus scale="   91.785">  7  8 -1 -1</clus>
<clus scale="  101.202">  2  7  1 -1</clus>
<clus scale="  105.137">  5  6 -1 -1</clus>
<clus scale="   46.010">  2  5  1 -1</clus>
</clustering>
</event>
<event>
10    2  0.3544405E-006  0.1489999E+03  0.7546771E-02  0.1202866E+00
          1   -1    0    0  503    0 -0.00000000000E+00  0.00000000000E+00  0.10074212821E+04  0.10074212821E+04  0.00000000000E+00 0. -1.
         21   -1    0    0  501  502  0.00000000000E+00 -0.00000000000E+00 -0.65888053474E+02  0.65888053474E+02  0.00000000000E+00 0.  1.
         23    2    1    2    0    0 -0.38249900696E+02 -0.13408839190E+03  0.34765082735E+03  0.38463145891E+03  0.87392846846E+02 0.  0.
         23    2    1    2    0    0 -0.18162200664E+02  0.11079230752E+03  0.23904581945E+03  0.28012632853E+03  0.93397297604E+02 0.  0.
        -13    1    4    4    0    0 -0.46483452806E+01  0.12575647697E+03  0.20387184364E+03  0.23958302787E+03  0.00000000000E+00 0.  1.
         13    1    4    4    0    0 -0.13513855383E+02 -0.14964169441E+02  0.35173975802E+02  0.40543300656E+02  0.00000000000E+00 0. -1.
        -13    1    3    3    0    0 -0.11697788294E+02 -0.61809924464E+02  0.26204490221E+03  0.26948995490E+03  0.00000000000E+00 0. -1.
         13    1    3    3    0    0 -0.26552112402E+02 -0.72278467436E+02  0.85605925132E+02  0.11514150401E+03  0.00000000000E+00 0.  1.
         21    1    1    2  503  502  0.24881870137E+02  0.47878553416E+02  0.36363311678E+03  0.36761461744E+03  0.00000000000E+00 0. -1.
          1    1    1    2  501    0  0.31530231223E+02 -0.24582469041E+02 -0.87965349738E+01  0.40936930670E+02  0.00000000000E+00 0. -1.
<scales pt_clust_5="13000.00000" pt_clust_6="13000.00000" pt_clust_7="13000.00000" pt_clust_8="13000.00000" pt_clust_9="53.63896" pt_clust_10="39.98066"></scales>
<clustering>
<clus scale="   39.981">  2 10  1 -1</clus>
<clus scale="   53.639">  1  9  2 -1</clus>
<clus scale="   87.393">  7  8 -1 -1</clus>
<clus scale="   93.397">  5  6 -1 -1</clus>
<clus scale="  145.312">  1  7  2 -1</clus>
<clus scale="   39.981">  2  5  1 -1</clus>
</clustering>
</event>
<event>
10    2  0.3544405E-006  0.1143400E+03  0.7546771E-02  0.1260877E+00
          2   -1    0    0  503    0 -0.00000000000E+00  0.00000000000E+00  0.37133488704E+03  0.37133488704E+03  0.00000000000E+00 0. -1.
         21   -1    0    0  501  502  0.00000000000E+00 -0.00000000000E+00 -0.73889354379E+02  0.73889354379E+02  0.00000000000E+00 0.  1.
         23    2    1    2    0    0 -0.59631002781E+02 -0.49171409118E+01  0.12075894663E+03  0.16173003542E+03  0.89408312806E+02 0.  0.
         23    2    1    2    0    0  0.11595282543E+02 -0.20714635311E+02  0.31841570285E+02  0.11474779070E+03  0.10765511218E+03 0.  0.
        -13    1    3    3    0    0 -0.48759398171E+02 -0.35598110592E+02  0.11323241364E+03  0.12832101888E+03  0.00000000000E+00 0.  1.
         13    1    3    3    0    0 -0.10871604611E+02  0.30680969681E+02  0.75265329884E+01  0.33409016540E+02  0.00000000000E+00 0. -1.
        -13    1    4    4    0    0  0.58619953221E+02 -0.98561143256E+01  0.53245795837E+01  0.59680759487E+02  0.00000000000E+00 0. -1.
         13    1    4    4    0    0 -0.47024670679E+02 -0.10858520985E+02  0.26516990701E+02  0.55067031210E+02  0.00000000000E+00 0.  1.
         21    1    1    2  503  502  0.21035591529E+02  0.36040630695E+00  0.12503574751E+03  0.12679339162E+03  0.00000000000E+00 0.  1.
          2    1    1    2  501    0  0.27000128710E+02  0.25271369915E+02  0.19809268236E+02  0.41953023679E+02  0.00000000000E+00 0. -1.
<scales pt_clust_5="13000.00000" pt_clust_6="13000.00000" pt_clust_7="13000.00000" pt_clust_8="13000.00000" pt_clust_9="21.03868" pt_clust_10="38.98567"></scales>
<clustering>
<clus scale="   21.039">  1  9  2 -1</clus>
<clus scale="   38.986">  2 10  1 -1</clus>
<clus scale="   89.408">  5  6 -1 -1</clus>
<clus scale="   97.354">  1  5  2 -1</clus>
<clus scale="  107.655">  7  8 -1 -1</clus>
<clus scale="   38.986">  2  5  1 -1</clus>
</clustering>
</event>
<event>
10    2  0.3544405E-006  0.2690875E+03  0.7546771E-02  0.1101876E+00
          1   -1    0    0  503    0 -0.00000000000E+00  0.00000000000E+00  0.27981633076E+03  0.27981633076E+03  0.00000000000E+00 0. -1.
         21   -1    0    0  501  502  0.00000000000E+00 -0.00000000000E+00 -0.51046751255E+03  0.51046751255E+03  0.00000000000E+00 0.  1.
         23    2    1    2    0    0  0.22211016225E+03  0.40621310821E+02  0.11508237862E+03  0.26935383715E+03  0.91238811101E+02 0.  0.
         23    2    1    2    0    0 -0.25552880374E+03 -0.40712528130E+02 -0.22341714889E+03  0.35343763008E+03  0.89724335889E+02 0.  0.
        -11    1    3    3    0    0  0.20479483956E+03  0.10113813776E+02  0.11321814734E+03  0.23422545640E+03  0.00000000000E+00 0. -1.
         11    1    3    3    0    0  0.17315322692E+02  0.30507497045E+02  0.18642312804E+01  0.35128380751E+02  0.00000000000E+00 0.  1.
        -13    1    4    4    0    0 -0.10597032378E+03  0.55415928145E+01 -0.14115258155E+03  0.17659125135E+03  0.00000000000E+00 0.  1.
         13    1    4    4    0    0 -0.14955847996E+03 -0.46254120945E+02 -0.82264567340E+02  0.17684637873E+03  0.00000000000E+00 0. -1.
         21    1    1    2  503  502  0.35175731390E+02  0.24265607902E+02  0.65273500400E-01  0.42733547317E+02  0.00000000000E+00 0. -1.
          1    1    1    2  501    0 -0.17570899025E+01 -0.24174390593E+02 -0.12238168502E+03  0.12475882876E+03  0.00000000000E+00 0. -1.
<scales pt_clust_5="13000.00000" pt_clust_6="13000.00000" pt_clust_7="13000.00000" pt_clust_8="13000.00000" pt_clust_9="41.90977" pt_clust_10="24.23816"></scales>
<clustering>
<clus scale="   24.238">  2 10  1 -1</clus>
<clus scale="   41.910">  1  9  2 -1</clus>
<clus scale="   89.724">  7  8 -1 -1</clus>
<clus scale="   91.239">  5  6 -1 -1</clus>
<clus scale="  268.578">  2  7  1 -1</clus>
<clus scale="   24.238">  2  5  1 -1</clus>
</clustering>
</event>
<event>
10    2  0.3544405E-006  0.9465159E+02  0.7546771E-02  0.1296605E+00
         -4   -1    0    0    0  501 -0.00000000000E+00  0.00000000000E+00  0.29743077139E+03  0.29743077139E+03  0.00000000000E+00 0.  1.
         21   -1    0    0  503  502  0.00000000000E+00 -0.00000000000E+00 -0.11270763065E+03  0.11270763065E+03  0.00000000000E+00 0.  1.
         23    2    1    2    0    0 -0.27163152047E+01 -0.48294580083E+01  0.13567959672E+03  0.16280247282E+03  0.89805290244E+02 0.  0.
         23    2    1    2    0    0 -0.27032723079E+02  0.50759804718E+02  0.74929907211E+01  0.10003685045E+03  0.81510126035E+02 0.  0.
        -11    1    3    3    0    0 -0.19325212938E+02 -0.42528862262E+02  0.89217615802E+02  0.10070725371E+03  0.00000000000E+00 0. -1.
         11    1    3    3    0    0  0.16608897733E+02  0.37699404253E+02  0.46461980921E+02  0.62095219108E+02  0.00000000000E+00 0.  1.
        -11    1    4    4    0    0 -0.54851896697E+02  0.20282364962E+02  0.37164337883E+01  0.58599631226E+02  0.00000000000E+00 0.  1.
         11    1    4    4    0    0  0.27819173618E+02  0.30477439756E+02  0.37765569329E+01  0.41437219226E+02  0.00000000000E+00 0. -1.
         21    1    1    2  503  501  0.36334001837E+02 -0.60390689987E+01  0.82133042891E+02  0.90013703281E+02  0.00000000000E+00 0.  1.
         -4    1    1    2    0  502 -0.65849635540E+01 -0.39891277711E+02 -0.40582489594E+02  0.57285375482E+02  0.00000000000E+00 0.  1.
<scales pt_clust_5="13000.00000" pt_clust_6="13000.00000" pt_clust_7="13000.00000" pt_clust_8="13000.00000" pt_clust_9="36.83246" pt_clust_10="40.45892"></scales>
<clustering>
<clus scale="   36.832">  1  9  2 -1</clus>
<clus scale="   40.459">  2 10  1 -1</clus>
<clus scale="   81.510">  7  8 -1 -1</clus>
<clus scale="   86.821">  2  7  1 -1</clus>
<clus scale="   89.805">  5  6 -1 -1</clus>
<clus scale="   40.459">  2  5  1 -1</clus>
</clustering>
</event>
<event>
10    2  0.3544405E-006  0.9877254E+02  0.7546771E-02  0.1284484E+00
          1   -1    0    0  503    0 -0.00000000000E+00  0.00000000000E+00  0.26354971701E+03  0.26354971701E+03  0.00000000000E+00 0. -1.
         21   -1    0    0  501  502  0.00000000000E+00 -0.00000000000E+00 -0.14297314362E+03  0.14297314362E+03  0.00000000000E+00 0.  1.
         23    2    1    2    0    0  0.86124597237E+01  0.64482201587E+02  0.51526127335E+02  0.12459607758E+03  0.92936063864E+02 0.  0.
         23    2    1    2    0    0 -0.20264486692E+01 -0.94953793304E+01 -0.17414475024E+02  0.92013459712E+02  0.89827301557E+02 0.  0.
        -11    1    3    3    0    0 -0.14736969187E+02 -0.18141427165E+02  0.26132855236E+02  0.35060173462E+02  0.00000000000E+00 0. -1.
         11    1    3    3    0    0  0.23349428911E+02  0.82623628752E+02  0.25393272100E+02  0.89535904120E+02  0.00000000000E+00 0.  1.
        -13    1    4    4    0    0  0.12751473795E+02 -0.37400524669E+02  0.18974553716E+02  0.43834153559E+02  0.00000000000E+00 0. -1.
         13    1    4    4    0    0 -0.14777922464E+02  0.27905145339E+02 -0.36389028740E+02  0.48179306153E+02  0.00000000000E+00 0.  1.
         21    1    1    2  503  502 -0.22713034375E+02 -0.33663915073E+02  0.13145198459E+03  0.13758184968E+03  0.00000000000E+00 0. -1.
          1    1    1    2  501    0  0.16127023321E+02 -0.21322907184E+02 -0.44987063513E+02  0.52331473661E+02  0.00000000000E+00 0. -1.
<scales pt_clust_5="13000.00000" pt_clust_6="13000.00000" pt_clust_7="13000.00000" pt_clust_8="13000.00000" pt_clust_9="40.89918" pt_clust_10="26.73476"></scales>
<clustering>
<clus scale="   26.735">  2 10  1 -1</clus>
<clus scale="   40.899">  1  9  2 -1</clus>
<clus scale="   89.827">  7  8 -1 -1</clus>
<clus scale="   92.936">  5  6 -1 -1</clus>
<clus scale="   95.853">  2  7  1 -1</clus>
<clus scale="   26.735">  2  5  1 -1</clus>
</clustering>
</event>
<event>
10    2  0.3544405E-006  0.1865158E+03  0.7546771E-02  0.1162593E+00
         21   -1    0    0  501  502  0.00000000000E+00  0.00000000000E+00  0.78398605487E+02  0.78398605487E+02  0.00000000000E+00 0. -1.
          2   -1    0    0  503    0 -0.00000000000E+00 -0.00000000000E+00 -0.11370993938E+04  0.11370993938E+04  0.00000000000E+00 0. -1.
         23    2    1    2    0    0  0.14182021703E+02  0.13573568847E+03 -0.61547585535E+03  0.63718851849E+03  0.92592508979E+02 0.  0.
         23    2    1    2    0    0  0.24003860027E+01 -0.18147586185E+03 -0.13226722318E+03  0.23980528375E+03  0.84099378710E+02 0.  0.
        -11    1    3    3    0    0  0.31515082450E+02  0.40229356932E+02 -0.96329896781E+02  0.10904609390E+03  0.00000000000E+00 0.  1.
         11    1    3    3    0    0 -0.17333060747E+02  0.95506331539E+02 -0.51914595857E+03  0.52814242459E+03  0.00000000000E+00 0. -1.
        -13    1    4    4    0    0  0.16123738468E+02 -0.36073698664E+02  0.44350115842E+01  0.39761237472E+02  0.00000000000E+00 0.  1.
         13    1    4    4    0    0 -0.13723352466E+02 -0.14540216318E+03 -0.13670223476E+03  0.20004404627E+03  0.00000000000E+00 0. -1.
         21    1    1    2  503  502 -0.28832358167E+02  0.29219643654E+02 -0.31489893294E+03  0.31756326995E+03  0.00000000000E+00 0. -1.
          2    1    1    2  501    0  0.12249950461E+02  0.16520529722E+02  0.39412231379E+01  0.20940927115E+02  0.00000000000E+00 0. -1.
<scales pt_clust_5="13000.00000" pt_clust_6="13000.00000" pt_clust_7="13000.00000" pt_clust_8="13000.00000" pt_clust_9="41.11566" pt_clust_10="20.56670"></scales>
<clustering>
<clus scale="   20.567">  1 10  2 -1</clus>
<clus scale="   41.116">  2  9  1 -1</clus>
<clus scale="   84.099">  7  8 -1 -1</clus>
<clus scale="   92.593">  5  6 -1 -1</clus>
<clus scale="  182.449">  1  7  2 -1</clus>
<clus scale="   20.567">  1  5  2 -1</clus>
</clustering>
</event>
<event>
10    2  0.3544405E-006  0.1102266E+03  0.7546771E-02  0.1260974E+00
          2   -1    0    0  503    0 -0.00000000000E+00  0.00000000000E+00  0.13660310637E+03  0.13660310637E+03  0.00000000000E+00 0. -1.
         21   -1    0    0  501  502  0.00000000000E+00 -0.00000000000E+00 -0.31349479043E+03  0.31349479043E+03  0.00000000000E+00 0.  1.
         23    2    1    2    0    0  0.12811239338E+02 -0.48158213900E+02  0.46287088699E+02  0.11692348181E+03  0.95106595984E+02 0.  0.
         23    2    1    2    0    0  0.23827484827E+01  0.72991521458E+02 -0.53826625237E+02  0.12995890703E+03  0.93051449408E+02 0.  0.
        -11    1    4    4    0    0 -0.22854675621E+02 -0.63352842120E+01 -0.38643672655E+02  0.45340990947E+02  0.00000000000E+00 0.  1.
         11    1    4    4    0    0  0.25237424103E+02  0.79326805670E+02 -0.15182952582E+02  0.84617916083E+02  0.00000000000E+00 0. -1.
        -13    1    3    3    0    0  0.48208185702E+02 -0.33518098578E+02  0.51706244643E+02  0.78236997872E+02  0.00000000000E+00 0. -1.
         13    1    3    3    0    0 -0.35396946364E+02 -0.14640115323E+02 -0.54191559440E+01  0.38686483941E+02  0.00000000000E+00 0.  1.
         21    1    1    2  503  502  0.19743820608E+02 -0.30333839550E+02 -0.67577328707E+01  0.36818843377E+02  0.00000000000E+00 0.  1.
          2    1    1    2  501    0 -0.34937808429E+02  0.55005319927E+01 -0.16259441465E+03  0.16639666459E+03  0.00000000000E+00 0. -1.
<scales pt_clust_5="13000.00000" pt_clust_6="13000.00000" pt_clust_7="13000.00000" pt_clust_8="13000.00000" pt_clust_9="32.95708" pt_clust_10="35.36815"></scales>
<clustering>
<clus scale="   35.368">  2 10  1 -1</clus>
<clus scale="   32.957">  2  9  1 -1</clus>
<clus scale="   93.051">  5  6 -1 -1</clus>
<clus scale="   95.107">  7  8 -1 -1</clus>
<clus scale="  108.458">  2  5  1 -1</clus>
<clus scale="   35.368">  2  5  1 -1</clus>
</clustering>
</event>
<event>
10    2  0.3544405E-006  0.9882213E+02  0.7546771E-02  0.1284442E+00
         -3   -1    0    0    0  501 -0.00000000000E+00  0.00000000000E+00  0.36570487717E+03  0.36570487717E+03  0.00000000000E+00 0.  1.
         21   -1    0    0  503  502  0.00000000000E+00 -0.00000000000E+00 -0.18173161514E+03  0.18173161514E+03  0.00000000000E+00 0.  1.
         23    2    1    2    0    0  0.25809640633E+02 -0.26335501898E+02  0.21206052749E+03  0.23250162819E+03  0.87907016670E+02 0.  0.
         23    2    1    2    0    0 -0.20467740583E+02  0.68748614021E+02 -0.14316045496E+03  0.18427949031E+03  0.91206986316E+02 0.  0.
        -11    1    4    4    0    0  0.15375456331E+02  0.74294677348E+02 -0.72934596014E+02  0.10524048192E+03  0.00000000000E+00 0.  1.
         11    1    4    4    0    0 -0.35843196914E+02 -0.55460633266E+01 -0.70225858941E+02  0.79039008391E+02  0.00000000000E+00 0. -1.
        -13    1    3    3    0    0  0.49630148109E+02 -0.68482703518E+01  0.64006657546E+02  0.81282855623E+02  0.00000000000E+00 0.  1.
         13    1    3    3    0    0 -0.23820507476E+02 -0.19487231547E+02  0.14805386995E+03  0.15121877257E+03  0.00000000000E+00 0. -1.
         21    1    1    2  503  501 -0.19368140091E+02 -0.98621724211E+01  0.21403976351E+02  0.30504384916E+02  0.00000000000E+00 0. -1.
         -3    1    1    2    0  502  0.14026240042E+02 -0.32550939702E+02  0.93669213141E+02  0.10015098889E+03  0.00000000000E+00 0.  1.
<scales pt_clust_5="13000.00000" pt_clust_6="13000.00000" pt_clust_7="13000.00000" pt_clust_8="13000.00000" pt_clust_9="21.73447" pt_clust_10="36.37160"></scales>
<clustering>
<clus scale="   21.734">  1  9  2 -1</clus>
<clus scale="   36.372">  2 10  1 -1</clus>
<clus scale="   87.907">  7  8 -1 -1</clus>
<clus scale="   91.207">  5  6 -1 -1</clus>
<clus scale="   95.785">  1  7  2 -1</clus>
<clus scale="   36.372">  2  5  1 -1</clus>
</clustering>
</event>
<event>
10    2  0.3544405E-006  0.1123526E+03  0.7546771E-02  0.1257234E+00
         21   -1    0    0  501  502  0.00000000000E+00  0.00000000000E+00  0.13582988677E+03  0.13582988677E+03  0.00000000000E+00 0. -1.
          2   -1    0    0  503    0 -0.00000000000E+00 -0.00000000000E+00 -0.86268745672E+03  0.86268745672E+03  0.00000000000E+00 0. -1.
         23    2    1    2    0    0  0.26300480567E+02  0.56581120592E+02 -0.49034255445E+03  0.50300723053E+03  0.93205765752E+02 0.  0.
         23    2    1    2    0    0  0.40187164127E+02 -0.62973469113E+02 -0.21008379904E+03  0.24263715604E+03  0.95691801624E+02 0.  0.
        -11    1    4    4    0    0 -0.20334106404E+02 -0.21569758864E+02 -0.13027883000E+02  0.32379872084E+02  0.00000000000E+00 0. -1.
         11    1    4    4    0    0  0.60521270531E+02 -0.41403710249E+02 -0.19705591604E+03  0.21025728396E+03  0.00000000000E+00 0.  1.
        -13    1    3    3    0    0  0.60023137251E+02  0.46136226901E+02 -0.36614435422E+03  0.37388904312E+03  0.00000000000E+00 0. -1.
         13    1    3    3    0    0 -0.33722656685E+02  0.10444893691E+02 -0.12419820023E+03  0.12911818741E+03  0.00000000000E+00 0.  1.
         21    1    1    2  503  502 -0.49065561802E+02  0.32923235948E+02 -0.13093789367E+03  0.14365270906E+03  0.00000000000E+00 0. -1.
          2    1    1    2  501    0 -0.17422082891E+02 -0.26530887427E+02  0.10450667722E+03  0.10922024787E+03  0.00000000000E+00 0. -1.
<scales pt_clust_5="13000.00000" pt_clust_6="13000.00000" pt_clust_7="13000.00000" pt_clust_8="13000.00000" pt_clust_9="59.42815" pt_clust_10="31.73983"></scales>
<clustering>
<clus scale="   31.740">  1 10  2 -1</clus>
<clus scale="   59.428">  1  9  2 -1</clus>
<clus scale="   93.206">  7  8 -1 -1</clus>
<clus scale="   95.692">  5  6 -1 -1</clus>
<clus scale="  110.243">  2  7  1 -1</clus>
<clus scale="   31.740">  1  5  2 -1</clus>
</clustering>
</event>
<event>
10    2  0.3544405E-006  0.1287257E+03  0.7546771E-02  0.1233360E+00
          2   -1    0    0  503    0 -0.00000000000E+00  0.00000000000E+00  0.98087006006E+03  0.98087006006E+03  0.00000000000E+00 0. -1.
         21   -1    0    0  501  502  0.00000000000E+00 -0.00000000000E+00 -0.76860130915E+02  0.76860130915E+02  0.00000000000E+00 0.  1.
         23    2    1    2    0    0  0.73174999216E+02 -0.23766007489E+02  0.33692582459E+03  0.35720951840E+03  0.90333964459E+02 0.  0.
         23    2    1    2    0    0  0.83894870777E+02  0.28416032699E+02  0.34525812607E+02  0.13285208840E+03  0.92799921327E+02 0.  0.
        -13    1    4    4    0    0  0.10358777662E+03  0.20324678048E+02  0.21008456461E+02  0.10763305833E+03  0.00000000000E+00 0.  1.
         13    1    4    4    0    0 -0.19692905839E+02  0.80913546509E+01  0.13517356146E+02  0.25219030070E+02  0.00000000000E+00 0. -1.
        -13    1    3    3    0    0  0.67656908570E+02 -0.53849361384E+02  0.22093674910E+03  0.23725568086E+03  0.00000000000E+00 0.  1.
         13    1    3    3    0    0  0.55180906462E+01  0.30083353895E+02  0.11598907550E+03  0.11995383754E+03  0.00000000000E+00 0. -1.
         21    1    1    2  503  502 -0.14921570957E+03  0.14219006636E+02  0.52483464926E+03  0.54581949141E+03  0.00000000000E+00 0. -1.
          2    1    1    2  501    0 -0.78541604246E+01 -0.18869031846E+02  0.77236426830E+01  0.21849092775E+02  0.00000000000E+00 0. -1.
<scales pt_clust_5="13000.00000" pt_clust_6="13000.00000" pt_clust_7="13000.00000" pt_clust_8="13000.00000" pt_clust_9="89.21038" pt_clust_10="20.43840"></scales>
<clustering>
<clus scale="   20.438">  2 10  1 -1</clus>
<clus scale="   90.334">  7  8 -1 -1</clus>
<clus scale="   92.800">  5  6 -1 -1</clus>
<clus scale="  118.540">  1  7  2 -1</clus>
<clus scale="   89.210">  1  9  2 -1</clus>
<clus scale="   20.438">  2  5  1 -1</clus>
</clustering>
</event>
<event>
10    2  0.3544405E-006  0.2205423E+03  0.7546771E-02  0.1133543E+00
         21   -1    0    0  501  502  0.00000000000E+00  0.00000000000E+00  0.32066886671E+03  0.32066886671E+03  0.00000000000E+00 0. -1.
          1   -1    0    0  503    0 -0.00000000000E+00 -0.00000000000E+00 -0.53892008573E+03  0.53892008573E+03  0.00000000000E+00 0. -1.
         23    2    1    2    0    0  0.19447825120E+03  0.10998510349E+02 -0.30964579053E+03  0.37664321048E+03  0.89648396473E+02 0.  0.
         23    2    1    2    0    0 -0.22451361691E+03 -0.15337586759E+03  0.10373412115E+03  0.30476175787E+03  0.90490000731E+02 0.  0.
        -11    1    4    4    0    0 -0.74359204928E+02 -0.70444720361E+02 -0.34613427207E+01  0.10248771086E+03  0.00000000000E+00 0.  1.
         11    1    4    4    0    0 -0.15015441198E+03 -0.82931147228E+02  0.10719546387E+03  0.20227404701E+03  0.00000000000E+00 0. -1.
        -13    1    3    3    0    0  0.67142276212E+02  0.10306712442E+02 -0.40991662987E+02  0.79338704368E+02  0.00000000000E+00 0.  1.
         13    1    3    3    0    0  0.12733597498E+03  0.69179790718E+00 -0.26865412754E+03  0.29730450611E+03  0.00000000000E+00 0. -1.
         21    1    1    2  503  502  0.55460325831E+02  0.10950788406E+03  0.21467305641E+02  0.12461408277E+03  0.00000000000E+00 0.  1.
          1    1    1    2  501    0 -0.25424960119E+02  0.32869473182E+02 -0.33806855288E+02  0.53569901333E+02  0.00000000000E+00 0. -1.
<scales pt_clust_5="13000.00000" pt_clust_6="13000.00000" pt_clust_7="13000.00000" pt_clust_8="13000.00000" pt_clust_9="127.24896" pt_clust_10="41.55518"></scales>
<clustering>
<clus scale="   41.555">  1 10  2 -1</clus>
<clus scale="   89.648">  7  8 -1 -1</clus>
<clus scale="   90.490">  5  6 -1 -1</clus>
<clus scale="  127.249">  1  9  2 -1</clus>
<clus scale="  220.198">  2  7  1 -1</clus>
<clus scale="   41.555">  1  5  2 -1</clus>
</clustering>
</event>
<event>
10    2  0.3544405E-006  0.1567591E+03  0.7546771E-02  0.1192524E+00
         21   -1    0    0  501  502  0.00000000000E+00  0.00000000000E+00  0.45823302131E+03  0.45823302131E+03  0.00000000000E+00 0. -1.
          1   -1    0    0  503    0 -0.00000000000E+00 -0.00000000000E+00 -0.13532956065E+03  0.13532956065E+03  0.00000000000E+00 0. -1.
         23    2    1    2    0    0  0.13044807136E+02 -0.10955649682E+03 -0.18595812930E+02  0.14402863597E+03  0.90695373273E+02 0.  0.
         23    2    1    2    0    0 -0.38012229255E+02  0.13230707038E+03  0.24568629127E+03  0.29565032988E+03  0.89984850943E+02 0.  0.
        -11    1    3    3    0    0  0.51604683618E+02 -0.75037216928E+02 -0.11787438719E+02  0.91829031397E+02  0.00000000000E+00 0.  1.
         11    1    3    3    0    0 -0.38559876482E+02 -0.34519279891E+02 -0.68083742111E+01  0.52199604576E+02  0.00000000000E+00 0. -1.
        -11    1    4    4    0    0 -0.26678706371E+02  0.83626831577E+02  0.67911330310E+02  0.11098265233E+03  0.00000000000E+00 0. -1.
         11    1    4    4    0    0 -0.11333522884E+02  0.48680238799E+02  0.17777496096E+03  0.18466767755E+03  0.00000000000E+00 0.  1.
         21    1    1    2  503  502  0.11669424259E+01 -0.21865637194E+02 -0.23556259233E+02  0.32161548370E+02  0.00000000000E+00 0. -1.
          1    1    1    2  501    0  0.23800479693E+02 -0.88493636220E+00  0.11936924155E+03  0.12172206774E+03  0.00000000000E+00 0. -1.
<scales pt_clust_5="13000.00000" pt_clust_6="13000.00000" pt_clust_7="13000.00000" pt_clust_8="13000.00000" pt_clust_9="21.89675" pt_clust_10="23.83978"></scales>
<clustering>
<clus scale="   21.897">  2  9  1 -1</clus>
<clus scale="   23.840">  1 10  2 -1</clus>
<clus scale="   89.985">  7  8 -1 -1</clus>
<clus scale="   90.695">  5  6 -1 -1</clus>
<clus scale="  156.349">  1  7  2 -1</clus>
<clus scale="   23.840">  1  5  2 -1</clus>
</clustering>
</event>
<event>
10    2  0.3544405E-006  0.1106578E+03  0.7546771E-02  0.1260771E+00
         21   -1    0    0  501  502  0.00000000000E+00  0.00000000000E+00  0.76047336366E+02  0.76047336366E+02  0.00000000000E+00 0. -1.
          1   -1    0    0  503    0 -0.00000000000E+00 -0.00000000000E+00 -0.35648739460E+03  0.35648739460E+03  0.00000000000E+00 0. -1.
         23    2    1    2    0    0 -0.32871472070E+02  0.28580164670E+02 -0.11720688079E+03  0.15639611153E+03  0.93941105539E+02 0.  0.
         23    2    1    2    0    0  0.76547174514E+02  0.11486213984E+02 -0.50830441324E+02  0.12937439440E+03  0.90347092498E+02 0.  0.
        -11    1    3    3    0    0 -0.25093538941E+02  0.63233896016E+02 -0.77425753984E+02  0.10306773832E+03  0.00000000000E+00 0. -1.
         11    1    3    3    0    0 -0.77779331292E+01 -0.34653731346E+02 -0.39781126805E+02  0.53328373216E+02  0.00000000000E+00 0.  1.
        -13    1    4    4    0    0 -0.20355530326E+02 -0.42445732234E+01 -0.83933406933E+01  0.22423473966E+02  0.00000000000E+00 0.  1.
         13    1    4    4    0    0  0.96902704840E+02  0.15730787208E+02 -0.42437100630E+02  0.10695092043E+03  0.00000000000E+00 0. -1.
         21    1    1    2  503  502 -0.41980339189E+02  0.10564252775E+02 -0.44936827506E+02  0.62396079856E+02  0.00000000000E+00 0. -1.
          1    1    1    2  501    0 -0.16953632546E+01 -0.50630631429E+02 -0.67465908616E+02  0.84368145179E+02  0.00000000000E+00 0. -1.
<scales pt_clust_5="13000.00000" pt_clust_6="13000.00000" pt_clust_7="13000.00000" pt_clust_8="13000.00000" pt_clust_9="43.28917" pt_clust_10="49.51379"></scales>
<clustering>
<clus scale="   43.289">  2  9  1 -1</clus>
<clus scale="   49.514">  1 10  2 -1</clus>
<clus scale="   90.347">  7  8 -1 -1</clus>
<clus scale="   93.941">  5  6 -1 -1</clus>
<clus scale="  107.624">  1  7  2 -1</clus>
<clus scale="   49.514">  1  5  2 -1</clus>
</clustering>
</event>
<event>
10    2  0.3544405E-006  0.1113387E+03  0.7546771E-02  0.1258538E+00
         -3   -1    0    0    0  501 -0.00000000000E+00  0.00000000000E+00  0.16125378553E+03  0.16125378553E+03  0.00000000000E+00 0.  1.
         21   -1    0    0  503  502  0.00000000000E+00 -0.00000000000E+00 -0.25128205814E+03  0.25128205814E+03  0.00000000000E+00 0. -1.
         23    2    1    2    0    0  0.32771259269E+02 -0.28133416786E+02  0.62098796820E+02  0.11859018267E+03  0.91334146330E+02 0.  0.
         23    2    1    2    0    0 -0.80824442951E+02  0.57914963650E+02 -0.13910448620E+03  0.19438545689E+03  0.92460338381E+02 0.  0.
        -11    1    3    3    0    0  0.25802235345E+02 -0.56335446398E+02  0.64499761079E+02  0.89440801924E+02  0.00000000000E+00 0.  1.
         11    1    3    3    0    0  0.69690239239E+01  0.28202029612E+02 -0.24009642583E+01  0.29149380749E+02  0.00000000000E+00 0. -1.
        -13    1    4    4    0    0 -0.30439533847E+02 -0.86903516291E+01  0.55391335626E+00  0.31660610422E+02  0.00000000000E+00 0.  1.
         13    1    4    4    0    0 -0.50384909103E+02  0.66605315279E+02 -0.13965839956E+03  0.16272484646E+03  0.00000000000E+00 0. -1.
         21    1    1    2  503  501  0.37532029284E+01 -0.20287775921E+02  0.30443048869E+02  0.36775801942E+02  0.00000000000E+00 0.  1.
         -3    1    1    2    0  502  0.44299980753E+02 -0.94937709431E+01 -0.43465632097E+02  0.62784402164E+02  0.00000000000E+00 0.  1.
<scales pt_clust_5="13000.00000" pt_clust_6="13000.00000" pt_clust_7="13000.00000" pt_clust_8="13000.00000" pt_clust_9="20.63202" pt_clust_10="45.92791"></scales>
<clustering>
<clus scale="   20.632">  1  9  2 -1</clus>
<clus scale="   45.928">  2 10  1 -1</clus>
<clus scale="   91.334">  5  6 -1 -1</clus>
<clus scale="   92.460">  7  8 -1 -1</clus>
<clus scale="  110.405">  1  5  2 -1</clus>
<clus scale="   45.928">  2  5  1 -1</clus>
</clustering>
</event>
<event>
10    2  0.3544405E-006  0.1206460E+03  0.7546771E-02  0.1244195E+00
         21   -1    0    0  501  502  0.00000000000E+00  0.00000000000E+00  0.11557988688E+04  0.11557988688E+04  0.00000000000E+00 0.  1.
         -1   -1    0    0    0  501 -0.00000000000E+00 -0.00000000000E+00 -0.37721977544E+02  0.37721977544E+02  0.00000000000E+00 0.  1.
         23    2    1    2    0    0 -0.88739798229E+02 -0.40113095717E+02  0.21981239067E+03  0.25742271604E+03  0.92006279142E+02 0.  0.
         23    2    1    2    0    0  0.57577413202E+02 -0.45347790800E+01  0.30328018555E+03  0.32025534591E+03  0.85140430496E+02 0.  0.
        -11    1    3    3    0    0 -0.65103669710E+02 -0.28255561926E+02  0.21980549297E+03  0.23097904522E+03  0.00000000000E+00 0.  1.
         11    1    3    3    0    0 -0.23636128519E+02 -0.11857533791E+02  0.68977041032E-02  0.26443670823E+02  0.00000000000E+00 0. -1.
        -13    1    4    4    0    0  0.70637772832E+02  0.19887534435E+02  0.24454029969E+03  0.25531386008E+03  0.00000000000E+00 0.  1.
         13    1    4    4    0    0 -0.13060359630E+02 -0.24422313515E+02  0.58739885859E+02  0.64941485830E+02  0.00000000000E+00 0. -1.
         21    1    1    2  503  502  0.71977165587E+02 -0.24262147107E+02  0.23160952525E+03  0.24374645912E+03  0.00000000000E+00 0.  1.
         -1    1    1    2    0  503 -0.40814780560E+02  0.68910021905E+02  0.36337478976E+03  0.37209632525E+03  0.00000000000E+00 0.  1.
<scales pt_clust_5="13000.00000" pt_clust_6="13000.00000" pt_clust_7="13000.00000" pt_clust_8="13000.00000" pt_clust_9="75.95633" pt_clust_10="60.39358"></scales>
<clustering>
<clus scale="   75.956">  1  9  2 -1</clus>
<clus scale="   60.394">  1 10  2 -1</clus>
<clus scale="   85.140">  7  8 -1 -1</clus>
<clus scale="   92.006">  5  6 -1 -1</clus>
<clus scale="  115.495">  1  7  2 -1</clus>
<clus scale="   75.956">  1  5  2 -1</clus>
</clustering>
</event>
<event>
10    2  0.3544405E-006  0.2611224E+03  0.7546771E-02  0.1125691E+00
          2   -1    0    0  503    0 -0.00000000000E+00  0.00000000000E+00  0.42612627534E+03  0.42612627534E+03  0.00000000000E+00 0. -1.
         21   -1    0    0  501  502  0.00000000000E+00 -0.00000000000E+00 -0.48753018613E+03  0.48753018613E+03  0.00000000000E+00 0.  1.
         23    2    1    2    0    0 -0.12122671651E+03 -0.62206620459E+02  0.17173148394E+03  0.23756308456E+03  0.91536529018E+02 0.  0.
         23    2    1    2    0    0  0.24786508857E+03  0.14922510669E+03 -0.11768819862E+03  0.32548166109E+03  0.91556348870E+02 0.  0.
        -13    1    4    4    0    0  0.60865777128E+02  0.78588039300E+02 -0.64969824787E+02  0.11875100370E+03  0.00000000000E+00 0.  1.
         13    1    4    4    0    0  0.18699931144E+03  0.70637067385E+02 -0.52718373829E+02  0.20673065740E+03  0.00000000000E+00 0. -1.
        -13    1    3    3    0    0 -0.54522433874E+02 -0.63199572823E+02  0.14158327065E+03  0.16435542075E+03  0.00000000000E+00 0.  1.
         13    1    3    3    0    0 -0.66704282637E+02  0.99295236392E+00  0.30148213289E+02  0.73207663814E+02  0.00000000000E+00 0. -1.
         21    1    1    2  503  502 -0.16134444666E+03 -0.10718044348E+03  0.33302521123E+02  0.19654194424E+03  0.00000000000E+00 0.  1.
          2    1    1    2  501    0  0.34706074603E+02  0.20161957256E+02 -0.14874971724E+03  0.15406977157E+03  0.00000000000E+00 0. -1.
<scales pt_clust_5="13000.00000" pt_clust_6="13000.00000" pt_clust_7="13000.00000" pt_clust_8="13000.00000" pt_clust_9="244.54514" pt_clust_10="40.13747"></scales>
<clustering>
<clus scale="   40.137">  2 10  1 -1</clus>
<clus scale="   91.537">  7  8 -1 -1</clus>
<clus scale="   91.556">  5  6 -1 -1</clus>
<clus scale="  160.905">  1  7  2 -1</clus>
<clus scale="  244.545">  2  9  1 -1</clus>
<clus scale="   40.137">  2  5  1 -1</clus>
</clustering>
</event>
<event>
10    2  0.3544405E-006  0.1074687E+03  0.7546771E-02  0.1266041E+00
         21   -1    0    0  503  502  0.00000000000E+00  0.00000000000E+00  0.26443885887E+03  0.26443885887E+03  0.00000000000E+00 0. -1.
         -1   -1    0    0    0  501 -0.00000000000E+00 -0.00000000000E+00 -0.10413175461E+03  0.10413175461E+03  0.00000000000E+00 0.  1.
         23    2    1    2    0    0  0.29052896314E+01 -0.46753812407E+02  0.28358005138E+02  0.10582699552E+03  0.90558361532E+02 0.  0.
         23    2    1    2    0    0 -0.40215556476E+02  0.46515699733E+02  0.86009744121E+02  0.14033748785E+03  0.92281813524E+02 0.  0.
        -11    1    4    4    0    0 -0.22334951643E+02  0.69146910640E+02  0.32610326653E+02  0.79646586369E+02  0.00000000000E+00 0.  1.
         11    1    4    4    0    0 -0.17880604833E+02 -0.22631210907E+02  0.53399417469E+02  0.60690901479E+02  0.00000000000E+00 0. -1.
        -13    1    3    3    0    0  0.33465082531E+02  0.11636727894E+02  0.43977164547E+01  0.35702452226E+02  0.00000000000E+00 0.  1.
         13    1    3    3    0    0 -0.30559792900E+02 -0.58390540301E+02  0.23960288683E+02  0.70124543296E+02  0.00000000000E+00 0. -1.
         21    1    1    2  503  501 -0.35740180774E+01 -0.46433855066E+02  0.24493392748E+01  0.46635563301E+02  0.00000000000E+00 0. -1.
         -1    1    1    2    0  502  0.40884284922E+02  0.46671967740E+02  0.43490015729E+02  0.75770566808E+02  0.00000000000E+00 0.  1.
<scales pt_clust_5="13000.00000" pt_clust_6="13000.00000" pt_clust_7="13000.00000" pt_clust_8="13000.00000" pt_clust_9="46.57120" pt_clust_10="54.98652"></scales>
<clustering>
<clus scale="   46.571">  2  9  1 -1</clus>
<clus scale="   54.987">  1 10  2 -1</clus>
<clus scale="   90.558">  7  8 -1 -1</clus>
<clus scale="   92.282">  5  6 -1 -1</clus>
<clus scale="  105.992">  2  7  1 -1</clus>
<clus scale="   54.987">  1  5  2 -1</clus>
</clustering>
</event>
<event>
10    2  0.3544405E-006  0.1025051E+03  0.7546771E-02  0.1275839E+00
         21   -1    0    0  501  502  0.00000000000E+00  0.00000000000E+00  0.73077781180E+02  0.73077781180E+02  0.00000000000E+00 0.  1.
          1   -1    0    0  503    0 -0.00000000000E+00 -0.00000000000E+00 -0.43974974296E+03  0.43974974296E+03  0.00000000000E+00 0. -1.
         23    2    1    2    0    0 -0.12293814599E+02 -0.83371661805E+01 -0.14166481043E+03  0.16897968478E+03  0.90909675707E+02 0.  0.
         23    2    1    2    0    0  0.78261831316E+02 -0.37181733970E+02 -0.15351311298E+03  0.19906293415E+03  0.92479080400E+02 0.  0.
        -11    1    3    3    0    0  0.27722530564E+02  0.26874609170E+02 -0.54040676275E+02  0.66416699791E+02  0.00000000000E+00 0.  1.
         11    1    3    3    0    0 -0.40016345163E+02 -0.35211775350E+02 -0.87624134159E+02  0.10256298499E+03  0.00000000000E+00 0. -1.
        -13    1    4    4    0    0 -0.73650355127E+01 -0.37788979529E+02 -0.67409307510E+02  0.77629024604E+02  0.00000000000E+00 0. -1.
         13    1    4    4    0    0  0.85626866829E+02  0.60724555874E+00 -0.86103805471E+02  0.12143390954E+03  0.00000000000E+00 0.  1.
         21    1    1    2  503  502 -0.28791698008E+02  0.24928825765E+02 -0.90533263557E+02  0.98217513909E+02  0.00000000000E+00 0.  1.
          1    1    1    2  501    0 -0.37176318708E+02  0.20590074386E+02  0.19039225197E+02  0.46567391295E+02  0.00000000000E+00 0. -1.
<scales pt_clust_5="13000.00000" pt_clust_6="13000.00000" pt_clust_7="13000.00000" pt_clust_8="13000.00000" pt_clust_9="38.08423" pt_clust_10="43.98362"></scales>
<clustering>
<clus scale="   38.084">  2  9  1 -1</clus>
<clus scale="   43.984">  1 10  2 -1</clus>
<clus scale="   90.910">  5  6 -1 -1</clus>
<clus scale="   92.479">  7  8 -1 -1</clus>
<clus scale="  101.091">  2  5  1 -1</clus>
<clus scale="   43.984">  1  5  2 -1</clus>
</clustering>
</event>
<event>
10    2  0.3544405E-006  0.2400740E+03  0.7546771E-02  0.1157181E+00
         21   -1    0    0  501  502  0.00000000000E+00  0.00000000000E+00  0.33363793766E+03  0.33363793766E+03  0.00000000000E+00 0. -1.
          1   -1    0    0  503    0 -0.00000000000E+00 -0.00000000000E+00 -0.65911025976E+03  0.65911025976E+03  0.00000000000E+00 0. -1.
         23    2    1    2    0    0 -0.20338000438E+02  0.21639679594E+02 -0.55703729273E+02  0.11189649241E+03  0.92390527462E+02 0.  0.
         23    2    1    2    0    0 -0.78197788132E+02 -0.49546792205E+02 -0.27174465172E+03  0.30256197877E+03  0.95544840653E+02 0.  0.
        -11    1    3    3    0    0 -0.19853617063E+02 -0.34650443144E+02 -0.16049377518E+02  0.43039538093E+02  0.00000000000E+00 0. -1.
         11    1    3    3    0    0 -0.48438337493E+00  0.56290122738E+02 -0.39654351754E+02  0.68856954320E+02  0.00000000000E+00 0.  1.
        -13    1    4    4    0    0  0.12829083830E+02 -0.36383696854E+02 -0.55711075277E+02  0.67764907565E+02  0.00000000000E+00 0.  1.
         13    1    4    4    0    0 -0.91026871962E+02 -0.13163095350E+02 -0.21603357644E+03  0.23479707121E+03  0.00000000000E+00 0. -1.
         21    1    1    2  503  502  0.43024098342E+01 -0.20775934760E+03 -0.17268557200E+03  0.27019023672E+03  0.00000000000E+00 0. -1.
          1    1    1    2  501    0  0.94233378735E+02  0.23566646021E+03  0.17466163089E+03  0.30809948951E+03  0.00000000000E+00 0. -1.
<scales pt_clust_5="13000.00000" pt_clust_6="13000.00000" pt_clust_7="13000.00000" pt_clust_8="13000.00000" pt_clust_9="240.07402" pt_clust_10="13000.00000"></scales>
<clustering>
<clus scale="   92.391">  5  6 -1 -1</clus>
<clus scale="   95.545">  7  8 -1 -1</clus>
<clus scale="   97.046">  2  5  1 -1</clus>
<clus scale="  135.778">  2  7  1 -1</clus>
<clus scale="  240.074">  2  9  1 -1</clus>
<clus scale="  240.074">  1  5  2 -1</clus>
</clustering>
</event>
<event>
10    2  0.3544405E-006  0.1162410E+03  0.7546771E-02  0.1251065E+00
          1   -1    0    0  503    0 -0.00000000000E+00  0.00000000000E+00  0.42069009302E+03  0.42069009302E+03  0.00000000000E+00 0. -1.
         21   -1    0    0  501  502  0.00000000000E+00 -0.00000000000E+00 -0.15485636726E+03  0.15485636726E+03  0.00000000000E+00 0. -1.
         23    2    1    2    0    0  0.17242413919E+02 -0.19812149909E+02  0.13763235137E+03  0.16694939055E+03  0.90772312633E+02 0.  0.
         23    2    1    2    0    0 -0.11247609780E+03  0.61348179853E+02  0.15940081097E+03  0.22564738020E+03  0.95360630787E+02 0.  0.
        -13    1    4    4    0    0 -0.41338542769E+02  0.15551337770E+02  0.12799663312E+03  0.13540257499E+03  0.00000000000E+00 0.  1.
         13    1    4    4    0    0 -0.71137555028E+02  0.45796842083E+02  0.31404177857E+02  0.90244805208E+02  0.00000000000E+00 0. -1.
        -13    1    3    3    0    0 -0.27919515322E+02 -0.27694398680E+02  0.28464107077E+02  0.48545694410E+02  0.00000000000E+00 0.  1.
         13    1    3    3    0    0  0.45161929241E+02  0.78822487708E+01  0.10916824429E+03  0.11840369614E+03  0.00000000000E+00 0. -1.
         21    1    1    2  503  502  0.35030115360E+02 -0.55153701222E+00  0.58021123721E+02  0.67778049345E+02  0.00000000000E+00 0. -1.
          1    1    1    2  501    0  0.60203568518E+02 -0.40984492932E+02 -0.89220560305E+02  0.11517164019E+03  0.00000000000E+00 0. -1.
<scales pt_clust_5="13000.00000" pt_clust_6="13000.00000" pt_clust_7="13000.00000" pt_clust_8="13000.00000" pt_clust_9="35.03446" pt_clust_10="73.89463"></scales>
<clustering>
<clus scale="   35.034">  1  9  2 -1</clus>
<clus scale="   73.895">  2 10  1 -1</clus>
<clus scale="   90.772">  7  8 -1 -1</clus>
<clus scale="   95.361">  5  6 -1 -1</clus>
<clus scale="  112.507">  1  7  2 -1</clus>
<clus scale="   73.895">  2  5  1 -1</clus>
</clustering>
</event>
<event>
10    2  0.3544405E-006  0.1095906E+03  0.7546771E-02  0.1262656E+00
         21   -1    0    0  503  502  0.00000000000E+00  0.00000000000E+00  0.42816285258E+03  0.42816285258E+03  0.00000000000E+00 0.  1.
         -2   -1    0    0    0  501 -0.00000000000E+00 -0.00000000000E+00 -0.96158802209E+02  0.96158802209E+02  0.00000000000E+00 0.  1.
         23    2    1    2    0    0  0.30012145320E+01  0.42299470488E+02 -0.39466602090E+02  0.10668104135E+03  0.89582249413E+02 0.  0.
         23    2    1    2    0    0  0.11155405913E+01 -0.44551607556E+02  0.18504484544E+03  0.21180403019E+03  0.92915349724E+02 0.  0.
        -11    1    3    3    0    0  0.28526491134E+02  0.12834716936E+02 -0.56151864627E+02  0.64276920869E+02  0.00000000000E+00 0.  1.
         11    1    3    3    0    0 -0.25525276602E+02  0.29464753552E+02  0.16685262537E+02  0.42404120477E+02  0.00000000000E+00 0. -1.
        -13    1    4    4    0    0 -0.22964741114E+02 -0.66236445892E+02  0.11611065063E+03  0.13563306856E+03  0.00000000000E+00 0.  1.
         13    1    4    4    0    0  0.24080281705E+02  0.21684838337E+02  0.68934194811E+02  0.76170961625E+02  0.00000000000E+00 0. -1.
         21    1    1    2  503  501  0.14689985209E+02  0.23802728373E+02  0.14420472795E+02  0.31469279926E+02  0.00000000000E+00 0. -1.
         -2    1    1    2    0  502 -0.18806740332E+02 -0.21550591305E+02  0.17200533423E+03  0.17436730333E+03  0.00000000000E+00 0.  1.
<scales pt_clust_5="13000.00000" pt_clust_6="13000.00000" pt_clust_7="13000.00000" pt_clust_8="13000.00000" pt_clust_9="27.97080" pt_clust_10="28.23104"></scales>
<clustering>
<clus scale="   27.971">  2  9  1 -1</clus>
<clus scale="   28.231">  1 10  2 -1</clus>
<clus scale="   89.582">  5  6 -1 -1</clus>
<clus scale="   92.915">  7  8 -1 -1</clus>
<clus scale="  106.779">  2  5  1 -1</clus>
<clus scale="   28.231">  1  5  2 -1</clus>
</clustering>
</event>
<event>
10    2  0.3544405E-006  0.9310244E+02  0.7546771E-02  0.1296665E+00
         21   -1    0    0  503  502  0.00000000000E+00  0.00000000000E+00  0.10012685640E+03  0.10012685640E+03  0.00000000000E+00 0. -1.
         -1   -1    0    0    0  501 -0.00000000000E+00 -0.00000000000E+00 -0.15449493844E+03  0.15449493844E+03  0.00000000000E+00 0.  1.
         23    2    1    2    0    0  0.34219505534E+01  0.20130105064E+02 -0.17436150200E+02  0.93578461701E+02  0.89643618206E+02 0.  0.
         23    2    1    2    0    0 -0.10635228864E+01 -0.11659310221E+02 -0.10287305760E+02  0.92968106926E+02  0.91652439411E+02 0.  0.
        -13    1    4    4    0    0  0.43011781144E+02  0.31746822414E+01 -0.16237976366E+02  0.46084311875E+02  0.00000000000E+00 0. -1.
         13    1    4    4    0    0 -0.44075304031E+02 -0.14833992462E+02  0.59506706053E+01  0.46883795051E+02  0.00000000000E+00 0.  1.
        -13    1    3    3    0    0 -0.99466109535E+01  0.42164499141E+02 -0.40268468024E+02  0.59146678472E+02  0.00000000000E+00 0.  1.
         13    1    3    3    0    0  0.13368561507E+02 -0.22034394077E+02  0.22832317824E+02  0.34431783229E+02  0.00000000000E+00 0. -1.
         21    1    1    2  503  501 -0.18531898318E+02  0.87532999829E+01 -0.36985156838E+02  0.42284197310E+02  0.00000000000E+00 0.  1.
         -1    1    1    2    0  502  0.16173470651E+02 -0.17224094826E+02  0.10340530764E+02  0.25791028904E+02  0.00000000000E+00 0.  1.
<scales pt_clust_5="13000.00000" pt_clust_6="13000.00000" pt_clust_7="13000.00000" pt_clust_8="13000.00000" pt_clust_9="20.49516" pt_clust_10="22.35067"></scales>
<clustering>
<clus scale="   20.495">  2  9  1 -1</clus>
<clus scale="   22.351">  1 10  2 -1</clus>
<clus scale="   89.644">  7  8 -1 -1</clus>
<clus scale="   91.126">  2  7  1 -1</clus>
<clus scale="   91.652">  5  6 -1 -1</clus>
<clus scale="   22.351">  1  5  2 -1</clus>
</clustering>
</event>
<event>
10    2  0.3544405E-006  0.9621665E+02  0.7546771E-02  0.1288674E+00
         21   -1    0    0  503  502  0.00000000000E+00  0.00000000000E+00  0.29314615423E+03  0.29314615423E+03  0.00000000000E+00 0. -1.
         -2   -1    0    0    0  501 -0.00000000000E+00 -0.00000000000E+00 -0.58404150575E+02  0.58404150575E+02  0.00000000000E+00 0.  1.
         23    2    1    2    0    0 -0.14220168240E+02 -0.22272463476E+02  0.68823710131E+02  0.11779827239E+03  0.91877386159E+02 0.  0.
         23    2    1    2    0    0  0.22759341637E+02  0.21532157203E+02  0.77533780422E+02  0.12393597879E+03  0.91471407049E+02 0.  0.
        -11    1    3    3    0    0 -0.51650968295E+02 -0.56591025961E+01  0.52043667687E+02  0.73541765782E+02  0.00000000000E+00 0. -1.
         11    1    3    3    0    0  0.37430800056E+02 -0.16613360880E+02  0.16780042444E+02  0.44256506606E+02  0.00000000000E+00 0.  1.
        -13    1    4    4    0    0 -0.23026024609E+02 -0.16084492902E+02  0.52636586023E+02  0.59661703875E+02  0.00000000000E+00 0.  1.
         13    1    4    4    0    0  0.45785366245E+02  0.37616650105E+02  0.24897194400E+02  0.64274274919E+02  0.00000000000E+00 0. -1.
         21    1    1    2  503  501  0.22814248097E+02 -0.17632823490E+02  0.38908525748E+02  0.48428088505E+02  0.00000000000E+00 0. -1.
         -2    1    1    2    0  502 -0.31353421494E+02  0.18373129762E+02  0.49475987359E+02  0.61387965122E+02  0.00000000000E+00 0.  1.
<scales pt_clust_5="13000.00000" pt_clust_6="13000.00000" pt_clust_7="13000.00000" pt_clust_8="13000.00000" pt_clust_9="28.83412" pt_clust_10="29.99696"></scales>
<clustering>
<clus scale="   28.834">  1  9  2 -1</clus>
<clus scale="   29.997">  1 10  2 -1</clus>
<clus scale="   91.471">  7  8 -1 -1</clus>
<clus scale="   91.877">  5  6 -1 -1</clus>
<clus scale="   95.829">  1  7  2 -1</clus>
<clus scale="   28.834">  1  5  2 -1</clus>
</clustering>
</event>
<event>
10    2  0.3544405E-006  0.9889063E+02  0.7546771E-02  0.1283600E+00
          1   -1    0    0  503    0 -0.00000000000E+00  0.00000000000E+00  0.77492126074E+03  0.77492126074E+03  0.00000000000E+00 0. -1.
         21   -1    0    0  501  502  0.00000000000E+00 -0.00000000000E+00 -0.24485226246E+02  0.24485226246E+02  0.00000000000E+00 0. -1.
         23    2    1    2    0    0  0.11606936171E+02 -0.95277770780E+01  0.23536616604E+03  0.25332899557E+03  0.92481611020E+02 0.  0.
         23    2    1    2    0    0 -0.48399646977E+02  0.28561039866E+02  0.25331366411E+03  0.27483093266E+03  0.90586810810E+02 0.  0.
        -11    1    3    3    0    0  0.29822673025E+02 -0.36188410696E+02  0.20006769632E+03  0.20548984405E+03  0.00000000000E+00 0.  1.
         11    1    3    3    0    0 -0.18215736854E+02  0.26660633618E+02  0.35298469721E+02  0.47839151525E+02  0.00000000000E+00 0. -1.
        -13    1    4    4    0    0 -0.59758327285E+02 -0.72791563315E+01  0.20473854236E+03  0.21340551662E+03  0.00000000000E+00 0. -1.
         13    1    4    4    0    0  0.11358680307E+02  0.35840196197E+02  0.48575121754E+02  0.61425416036E+02  0.00000000000E+00 0.  1.
         21    1    1    2  503  502  0.32826882683E+02  0.56971037071E+01  0.22034896858E+03  0.22285360480E+03  0.00000000000E+00 0. -1.
          1    1    1    2  501    0  0.39658281238E+01 -0.24730366495E+02  0.41407235753E+02  0.48392953954E+02  0.00000000000E+00 0. -1.
<scales pt_clust_5="13000.00000" pt_clust_6="13000.00000" pt_clust_7="13000.00000" pt_clust_8="13000.00000" pt_clust_9="33.33191" pt_clust_10="25.04633"></scales>
<clustering>
<clus scale="   25.046">  2 10  1 -1</clus>
<clus scale="   33.332">  1  9  2 -1</clus>
<clus scale="   90.587">  7  8 -1 -1</clus>
<clus scale="   92.482">  5  6 -1 -1</clus>
<clus scale="   97.121">  2  7  1 -1</clus>
<clus scale="   25.046">  2  5  1 -1</clus>
</clustering>
</event>
<event>
10    2  0.3544405E-006  0.1754418E+03  0.7546771E-02  0.1173135E+00
          3   -1    0    0  503    0 -0.00000000000E+00  0.00000000000E+00  0.63012227374E+03  0.63012227374E+03  0.00000000000E+00 0. -1.
         21   -1    0    0  501  502  0.00000000000E+00 -0.00000000000E+00 -0.17746501606E+03  0.17746501606E+03  0.00000000000E+00 0. -1.
         23    2    1    2    0    0 -0.30308131242E+02 -0.14123506546E+03  0.30104234948E+03  0.34502509166E+03  0.86890109681E+02 0.  0.
         23    2    1    2    0    0 -0.12401885619E+01  0.14735388161E+03  0.17849703774E+03  0.24957820547E+03  0.93345506959E+02 0.  0.
        -11    1    3    3    0    0  0.17424693519E+02 -0.64415854058E+02  0.69043768360E+02  0.96021165103E+02  0.00000000000E+00 0.  1.
         11    1    3    3    0    0 -0.47732824761E+02 -0.76819211400E+02  0.23199858112E+03  0.24900392655E+03  0.00000000000E+00 0. -1.
        -13    1    4    4    0    0 -0.18266783795E+02  0.12831176173E+03  0.18237949938E+03  0.22374062077E+03  0.00000000000E+00 0.  1.
         13    1    4    4    0    0  0.17026595234E+02  0.19042119879E+02 -0.38824616375E+01  0.25837584700E+02  0.00000000000E+00 0. -1.
         21    1    1    2  503  502 -0.32782117935E+00 -0.23023415991E+02  0.88835814176E+02  0.91771384597E+02  0.00000000000E+00 0.  1.
          3    1    1    2  501    0  0.31876140983E+02  0.16904599835E+02 -0.11571794371E+03  0.12121260807E+03  0.00000000000E+00 0. -1.
<scales pt_clust_5="13000.00000" pt_clust_6="13000.00000" pt_clust_7="13000.00000" pt_clust_8="13000.00000" pt_clust_9="23.02575" pt_clust_10="36.02499"></scales>
<clustering>
<clus scale="   23.026">  1  9  2 -1</clus>
<clus scale="   36.025">  2 10  1 -1</clus>
<clus scale="   86.890">  5  6 -1 -1</clus>
<clus scale="   93.346">  7  8 -1 -1</clus>
<clus scale="  172.094">  1  5  2 -1</clus>
<clus scale="   36.025">  2  5  1 -1</clus>
</clustering>
</event>
<event>
10    2  0.3544405E-006  0.1005887E+03  0.7546771E-02  0.1279236E+00
         -3   -1    0    0    0  501 -0.00000000000E+00  0.00000000000E+00  0.98825338444E+02  0.98825338444E+02  0.00000000000E+00 0.  1.
         21   -1    0    0  503  502  0.00000000000E+00 -0.00000000000E+00 -0.35769687071E+03  0.35769687071E+03  0.00000000000E+00 0. -1.
         23    2    1    2    0    0  0.29738599031E+02  0.20754453092E+02 -0.26211090470E+02  0.10327496459E+03  0.93078275937E+02 0.  0.
         23    2    1    2    0    0 -0.14281441019E+02 -0.26098656000E+02 -0.12759376272E+03  0.16050569680E+03  0.92718989521E+02 0.  0.
        -11    1    3    3    0    0  0.51385170003E+02 -0.72807841612E+01  0.97426549231E+01  0.52804969834E+02  0.00000000000E+00 0.  1.
         11    1    3    3    0    0 -0.21646570971E+02  0.28035237254E+02 -0.35953745393E+02  0.50469994754E+02  0.00000000000E+00 0. -1.
        -11    1    4    4    0    0 -0.53824135759E+02 -0.18741963677E+02 -0.79298258188E+02  0.97655069220E+02  0.00000000000E+00 0. -1.
         11    1    4    4    0    0  0.39542694740E+02 -0.73566923238E+01 -0.48295504531E+02  0.62850627580E+02  0.00000000000E+00 0.  1.
         21    1    1    2  503  501 -0.47305786636E+01  0.22415797177E+02  0.40099240348E+02  0.46182198021E+02  0.00000000000E+00 0.  1.
         -3    1    1    2    0  502 -0.10726579349E+02 -0.17071594269E+02 -0.14516591943E+03  0.14655934975E+03  0.00000000000E+00 0.  1.
<scales pt_clust_5="13000.00000" pt_clust_6="13000.00000" pt_clust_7="13000.00000" pt_clust_8="13000.00000" pt_clust_9="22.70239" pt_clust_10="20.16182"></scales>
<clustering>
<clus scale="   20.162">  2 10  1 -1</clus>
<clus scale="   22.702">  1  9  2 -1</clus>
<clus scale="   92.719">  7  8 -1 -1</clus>
<clus scale="   93.078">  5  6 -1 -1</clus>
<clus scale="  100.256">  2  7  1 -1</clus>
<clus scale="   20.162">  2  5  1 -1</clus>
</clustering>
</event>
<event>
10    2  0.3544405E-006  0.1172594E+03  0.7546771E-02  0.1247925E+00
         21   -1    0    0  501  502  0.00000000000E+00  0.00000000000E+00  0.13062955336E+03  0.13062955336E+03  0.00000000000E+00 0.  1.
          2   -1    0    0  503    0 -0.00000000000E+00 -0.00000000000E+00 -0.23971226942E+03  0.23971226942E+03  0.00000000000E+00 0. -1.
         23    2    1    2    0    0  0.13807931127E+02  0.97632109263E+02 -0.19405909111E+02  0.13512485451E+03  0.90329669972E+02 0.  0.
         23    2    1    2    0    0 -0.15146407976E+02 -0.49179410744E+02  0.49927684013E+01  0.10470162438E+03  0.91046550160E+02 0.  0.
        -13    1    4    4    0    0  0.19689569961E+02 -0.60076196069E+02  0.18356708014E+02  0.65831582303E+02  0.00000000000E+00 0.  1.
         13    1    4    4    0    0 -0.34835977937E+02  0.10896785325E+02 -0.13363939613E+02  0.38870042079E+02  0.00000000000E+00 0. -1.
        -13    1    3    3    0    0 -0.36155109128E+02  0.63966481066E+02 -0.10725396528E+02  0.74255886950E+02  0.00000000000E+00 0. -1.
         13    1    3    3    0    0  0.49963040255E+02  0.33665628197E+02 -0.86805125830E+01  0.60868967563E+02  0.00000000000E+00 0.  1.
         21    1    1    2  503  502 -0.12969015001E+02 -0.17439907764E+02 -0.93868785441E+02  0.96351931029E+02  0.00000000000E+00 0.  1.
          2    1    1    2  501    0  0.14307491849E+02 -0.31012790755E+02 -0.80078990693E+00  0.34163412855E+02  0.00000000000E+00 0. -1.
<scales pt_clust_5="13000.00000" pt_clust_6="13000.00000" pt_clust_7="13000.00000" pt_clust_8="13000.00000" pt_clust_9="21.73352" pt_clust_10="35.48680"></scales>
<clustering>
<clus scale="   21.734">  2  9  1 -1</clus>
<clus scale="   35.487">  1 10  2 -1</clus>
<clus scale="   90.330">  7  8 -1 -1</clus>
<clus scale="   91.047">  5  6 -1 -1</clus>
<clus scale="  116.704">  2  7  1 -1</clus>
<clus scale="   35.487">  1  5  2 -1</clus>
</clustering>
</event>
<event>
10    2  0.3544405E-006  0.9980429E+02  0.7546771E-02  0.1281145E+00
         21   -1    0    0  501  502  0.00000000000E+00  0.00000000000E+00  0.29072901324E+03  0.29072901324E+03  0.00000000000E+00 0. -1.
          3   -1    0    0  503    0 -0.00000000000E+00 -0.00000000000E+00 -0.13654984380E+03  0.13654984380E+03  0.00000000000E+00 0. -1.
         23    2    1    2    0    0  0.19249036868E+02 -0.15639424719E+02 -0.69456787637E+02  0.11737475055E+03  0.91309745871E+02 0.  0.
         23    2    1    2    0    0 -0.55842883345E+02  0.44983268808E+02  0.10847097249E+03  0.15837053616E+03  0.90406596860E+02 0.  0.
        -11    1    3    3    0    0  0.54117860897E+02 -0.16156023828E+02 -0.27498771660E+02  0.62816736757E+02  0.00000000000E+00 0. -1.
         11    1    3    3    0    0 -0.34868824029E+02  0.51659910904E+00 -0.41958015977E+02  0.54558013788E+02  0.00000000000E+00 0.  1.
        -13    1    4    4    0    0 -0.74869274257E+02  0.10800726386E+02  0.63491779860E+02  0.98758645333E+02  0.00000000000E+00 0. -1.
         13    1    4    4    0    0  0.19026390912E+02  0.34182542422E+02  0.44979192635E+02  0.59611890824E+02  0.00000000000E+00 0.  1.
         21    1    1    2  503  502 -0.16960127923E+02 -0.24838355342E+02  0.71914128812E+01  0.30924201760E+02  0.00000000000E+00 0. -1.
          3    1    1    2  501    0  0.53553974400E+02 -0.45054887464E+01  0.10797357170E+03  0.12060936858E+03  0.00000000000E+00 0. -1.
<scales pt_clust_5="13000.00000" pt_clust_6="13000.00000" pt_clust_7="13000.00000" pt_clust_8="13000.00000" pt_clust_9="30.07640" pt_clust_10="53.00890"></scales>
<clustering>
<clus scale="   30.076">  2  9  1 -1</clus>
<clus scale="   53.009">  1 10  2 -1</clus>
<clus scale="   90.407">  7  8 -1 -1</clus>
<clus scale="   91.310">  5  6 -1 -1</clus>
<clus scale="   98.979">  1  7  2 -1</clus>
<clus scale="   53.009">  1  5  2 -1</clus>
</clustering>
</event>
<event>
10    2  0.3544405E-006  0.1246074E+03  0.7546771E-02  0.1236679E+00
         21   -1    0    0  503  502  0.00000000000E+00  0.00000000000E+00  0.14370108350E+03  0.14370108350E+03  0.00000000000E+00 0.  1.
         -3   -1    0    0    0  501 -0.00000000000E+00 -0.00000000000E+00 -0.42051615811E+03  0.42051615811E+03  0.00000000000E+00 0.  1.
         23    2    1    2    0    0 -0.77567136565E+02  0.50814857220E+02 -0.15841435013E+03  0.20458593047E+03  0.90340944376E+02 0.  0.
         23    2    1    2    0    0  0.66040000466E+02  0.51629191801E+01 -0.33199436677E+00  0.11475339125E+03  0.93703218661E+02 0.  0.
        -11    1    3    3    0    0 -0.70106852866E+02  0.66626479305E+01 -0.13891635202E+03  0.15574695681E+03  0.00000000000E+00 0.  1.
         11    1    3    3    0    0 -0.74602836992E+01  0.44152209290E+02 -0.19497998105E+02  0.48838973660E+02  0.00000000000E+00 0. -1.
        -13    1    4    4    0    0 -0.18924927796E+02 -0.18519654785E+02  0.16158473765E+01  0.26528125983E+02  0.00000000000E+00 0.  1.
         13    1    4    4    0    0  0.84964928262E+02  0.23682573965E+02 -0.19478417432E+01  0.88225265268E+02  0.00000000000E+00 0. -1.
         21    1    1    2  503  501 -0.13658618530E+02 -0.34550502600E+02 -0.17507588012E+03  0.17897446436E+03  0.00000000000E+00 0.  1.
         -3    1    1    2    0  502  0.25185754630E+02 -0.21427273800E+02  0.57007150008E+02  0.65903455530E+02  0.00000000000E+00 0.  1.
<scales pt_clust_5="13000.00000" pt_clust_6="13000.00000" pt_clust_7="13000.00000" pt_clust_8="13000.00000" pt_clust_9="37.41251" pt_clust_10="33.06736"></scales>
<clustering>
<clus scale="   33.067">  1 10  2 -1</clus>
<clus scale="   37.413">  2  9  1 -1</clus>
<clus scale="   90.341">  5  6 -1 -1</clus>
<clus scale="   93.703">  7  8 -1 -1</clus>
<clus scale="  122.099">  2  5  1 -1</clus>
<clus scale="   33.067">  1  5  2 -1</clus>
</clustering>
</event>
<event>
10    2  0.3544405E-006  0.1172954E+03  0.7546771E-02  0.1248127E+00
         21   -1    0    0  501  502  0.00000000000E+00  0.00000000000E+00  0.19450698618E+03  0.19450698618E+03  0.00000000000E+00 0. -1.
          1   -1    0    0  503    0 -0.00000000000E+00 -0.00000000000E+00 -0.65555837364E+03  0.65555837364E+03  0.00000000000E+00 0. -1.
         23    2    1    2    0    0 -0.27133679599E+02 -0.19254088472E+02 -0.29035813280E+03  0.30667849278E+03  0.92934902798E+02 0.  0.
         23    2    1    2    0    0  0.62675575671E+02  0.78898582153E+02 -0.11561371942E+03  0.17855912362E+03  0.91452799066E+02 0.  0.
        -11    1    4    4    0    0  0.27562292567E+02 -0.17519022149E+02 -0.19946162181E+02  0.38268074087E+02  0.00000000000E+00 0.  1.
         11    1    4    4    0    0  0.35113283104E+02  0.96417604303E+02 -0.95667557243E+02  0.14029104953E+03  0.00000000000E+00 0. -1.
        -13    1    3    3    0    0 -0.37254120745E+02 -0.52023752417E+02 -0.17506840227E+03  0.18639550907E+03  0.00000000000E+00 0.  1.
         13    1    3    3    0    0  0.10120441146E+02  0.32769663945E+02 -0.11528973053E+03  0.12028298371E+03  0.00000000000E+00 0. -1.
         21    1    1    2  503  502 -0.34321299850E+02 -0.34524900449E+02 -0.20607762560E+03  0.21174963553E+03  0.00000000000E+00 0. -1.
          1    1    1    2  501    0 -0.12205962218E+01 -0.25119593232E+02  0.15099809037E+03  0.15307810789E+03  0.00000000000E+00 0. -1.
<scales pt_clust_5="13000.00000" pt_clust_6="13000.00000" pt_clust_7="13000.00000" pt_clust_8="13000.00000" pt_clust_9="49.94160" pt_clust_10="25.14923"></scales>
<clustering>
<clus scale="   25.149">  1 10  2 -1</clus>
<clus scale="   49.942">  2  9  1 -1</clus>
<clus scale="   91.453">  5  6 -1 -1</clus>
<clus scale="   92.935">  7  8 -1 -1</clus>
<clus scale="  116.125">  1  5  2 -1</clus>
<clus scale="   25.149">  1  5  2 -1</clus>
</clustering>
</event>
<event>
10    2  0.3544405E-006  0.2456477E+03  0.7546771E-02  0.1116397E+00
         21   -1    0    0  503  502  0.00000000000E+00  0.00000000000E+00  0.54098634081E+03  0.54098634081E+03  0.00000000000E+00 0.  1.
         -1   -1    0    0    0  501 -0.00000000000E+00 -0.00000000000E+00 -0.24215187696E+03  0.24215187696E+03  0.00000000000E+00 0.  1.
         23    2    1    2    0    0  0.18695846793E+03 -0.41378803544E+02  0.12328856046E+03  0.24461365078E+03  0.89275387960E+02 0.  0.
         23    2    1    2    0    0 -0.19976492094E+03  0.21338124668E+03  0.14405984505E+03  0.33926133633E+03  0.94379210087E+02 0.  0.
        -11    1    4    4    0    0 -0.13465472919E+03  0.95909753429E+02  0.41989929633E+02  0.17056884559E+03  0.00000000000E+00 0.  1.
         11    1    4    4    0    0 -0.65110191748E+02  0.11747149325E+03  0.10206991542E+03  0.16869249073E+03  0.00000000000E+00 0. -1.
        -13    1    3    3    0    0  0.84010384797E+02  0.22323224349E+02  0.73034298765E+02  0.11353448769E+03  0.00000000000E+00 0.  1.
         13    1    3    3    0    0  0.10294808313E+03 -0.63702027893E+02  0.50254261697E+02  0.13107916309E+03  0.00000000000E+00 0. -1.
         21    1    1    2  503  501  0.14952788118E+02 -0.42884540136E+02 -0.31810758615E+02  0.55449021802E+02  0.00000000000E+00 0.  1.
         -1    1    1    2    0  502 -0.21463351105E+01 -0.12911790300E+03  0.63296816952E+02  0.14381420885E+03  0.00000000000E+00 0.  1.
<scales pt_clust_5="13000.00000" pt_clust_6="13000.00000" pt_clust_7="13000.00000" pt_clust_8="13000.00000" pt_clust_9="45.41662" pt_clust_10="137.81740"></scales>
<clustering>
<clus scale="   45.417">  2  9  1 -1</clus>
<clus scale="   89.275">  7  8 -1 -1</clus>
<clus scale="   94.379">  5  6 -1 -1</clus>
<clus scale="  137.817">  1 10  2 -1</clus>
<clus scale="  243.732">  2  7  1 -1</clus>
<clus scale="  137.817">  1  5  2 -1</clus>
</clustering>
</event>
<event>
10    2  0.3544405E-006  0.2023080E+03  0.7546771E-02  0.1147868E+00
          1   -1    0    0  503    0 -0.00000000000E+00  0.00000000000E+00  0.48893535492E+03  0.48893535492E+03  0.00000000000E+00 0. -1.
         21   -1    0    0  501  502  0.00000000000E+00 -0.00000000000E+00 -0.36987748917E+03  0.36987748917E+03  0.00000000000E+00 0. -1.
         23    2    1    2    0    0  0.13547470789E+03 -0.13290592931E+03  0.16789495878E+03  0.26904601997E+03  0.90441479156E+02 0.  0.
         23    2    1    2    0    0 -0.13735944132E+03  0.10383916573E+03  0.17642623036E+03  0.26282287832E+03  0.91101383897E+02 0.  0.
        -11    1    4    4    0    0 -0.10133712011E+03  0.10673065251E+03  0.17206545978E+03  0.22642253984E+03  0.00000000000E+00 0. -1.
         11    1    4    4    0    0 -0.36022321214E+02 -0.28914867773E+01  0.43607705782E+01  0.36400338480E+02  0.00000000000E+00 0.  1.
        -11    1    3    3    0    0  0.64925678032E+02 -0.12265645945E+03  0.11586216941E+03  0.18078714837E+03  0.00000000000E+00 0.  1.
         11    1    3    3    0    0  0.70549029863E+02 -0.10249469856E+02  0.52032789369E+02  0.88258871602E+02  0.00000000000E+00 0. -1.
         21    1    1    2  503  502 -0.22518213237E+02  0.36055782297E+01  0.47087483431E+02  0.52319224169E+02  0.00000000000E+00 0. -1.
          1    1    1    2  501    0  0.24402946666E+02  0.25461185347E+02 -0.27235080681E+03  0.27462472164E+03  0.00000000000E+00 0. -1.
<scales pt_clust_5="13000.00000" pt_clust_6="13000.00000" pt_clust_7="13000.00000" pt_clust_8="13000.00000" pt_clust_9="22.80505" pt_clust_10="35.23364"></scales>
<clustering>
<clus scale="   22.805">  1  9  2 -1</clus>
<clus scale="   35.234">  2 10  1 -1</clus>
<clus scale="   90.441">  7  8 -1 -1</clus>
<clus scale="   91.101">  5  6 -1 -1</clus>
<clus scale="  202.012">  1  7  2 -1</clus>
<clus scale="   35.234">  2  5  1 -1</clus>
</clustering>
</event>
<event>
10    2  0.3544405E-006  0.1687536E+03  0.7546771E-02  0.1205389E+00
          2   -1    0    0  503    0 -0.00000000000E+00  0.00000000000E+00  0.96779278687E+03  0.96779278687E+03  0.00000000000E+00 0. -1.
         21   -1    0    0  501  502  0.00000000000E+00 -0.00000000000E+00 -0.82370125099E+02  0.82370125099E+02  0.00000000000E+00 0. -1.
         23    2    1    2    0    0 -0.20817534800E+02 -0.15106711562E+02  0.65417813583E+02  0.11525055416E+03  0.91332455410E+02 0.  0.
         23    2    1    2    0    0  0.11199844139E+03 -0.25175915878E+02  0.57385707363E+03  0.59254798823E+03  0.92863877712E+02 0.  0.
        -11    1    3    3    0    0 -0.43979374763E+02 -0.10824710958E+02 -0.45390418495E+00  0.45294213768E+02  0.00000000000E+00 0.  1.
         11    1    3    3    0    0  0.23161839962E+02 -0.42820006042E+01  0.65871717768E+02  0.69956340394E+02  0.00000000000E+00 0. -1.
        -13    1    4    4    0    0  0.83771243171E+01 -0.40871939620E+02  0.19831696999E+03  0.20265811665E+03  0.00000000000E+00 0.  1.
         13    1    4    4    0    0  0.10362131707E+03  0.15696023742E+02  0.37554010364E+03  0.38988987157E+03  0.00000000000E+00 0. -1.
         21    1    1    2  503  502  0.36730040388E+02 -0.32662123374E+02  0.16925611146E+03  0.17624852180E+03  0.00000000000E+00 0. -1.
          2    1    1    2  501    0 -0.12791094698E+03  0.72944750814E+02  0.76891663093E+02  0.16611584777E+03  0.00000000000E+00 0. -1.
<scales pt_clust_5="13000.00000" pt_clust_6="13000.00000" pt_clust_7="13000.00000" pt_clust_8="13000.00000" pt_clust_9="49.15191" pt_clust_10="140.90445"></scales>
<clustering>
<clus scale="   49.152">  1  9  2 -1</clus>
<clus scale="   91.332">  5  6 -1 -1</clus>
<clus scale="   92.864">  7  8 -1 -1</clus>
<clus scale="   94.725">  1  5  2 -1</clus>
<clus scale="  140.904">  2 10  1 -1</clus>
<clus scale="  140.904">  2  5  1 -1</clus>
</clustering>
</event>
<event>
10    2  0.3544405E-006  0.1056540E+03  0.7546771E-02  0.1269429E+00
         21   -1    0    0  501  502  0.00000000000E+00  0.00000000000E+00  0.87212728690E+02  0.87212728690E+02  0.00000000000E+00 0.  1.
          1   -1    0    0  503    0 -0.00000000000E+00 -0.00000000000E+00 -0.59085343408E+03  0.59085343408E+03  0.00000000000E+00 0. -1.
         23    2    1    2    0    0  0.47577523194E+02  0.48677755663E+02 -0.41175446726E+03  0.42707503842E+03  0.90654302274E+02 0.  0.
         23    2    1    2    0    0 -0.28402221244E+02 -0.35810459276E+01  0.35360809729E+02  0.10267224199E+03  0.92041796754E+02 0.  0.
        -13    1    3    3    0    0  0.34406962329E+02 -0.20454639862E+02 -0.19891167812E+03  0.20289920414E+03  0.00000000000E+00 0. -1.
         13    1    3    3    0    0  0.13170560865E+02  0.69132395525E+02 -0.21284278915E+03  0.22417583428E+03  0.00000000000E+00 0.  1.
        -13    1    4    4    0    0  0.33380181274E+02 -0.33547815185E+01  0.53000617234E+01  0.33964418370E+02  0.00000000000E+00 0. -1.
         13    1    4    4    0    0 -0.61782402517E+02 -0.22626440909E+00  0.30060748006E+02  0.68707823624E+02  0.00000000000E+00 0.  1.
         21    1    1    2  503  502  0.55373800802E+01 -0.35855597668E+02 -0.11225632236E+03  0.11797359184E+03  0.00000000000E+00 0.  1.
          1    1    1    2  501    0 -0.24712682031E+02 -0.92411120673E+01 -0.14990725493E+02  0.30345290511E+02  0.00000000000E+00 0. -1.
<scales pt_clust_5="13000.00000" pt_clust_6="13000.00000" pt_clust_7="13000.00000" pt_clust_8="13000.00000" pt_clust_9="36.48516" pt_clust_10="26.38399"></scales>
<clustering>
<clus scale="   26.384">  1 10  2 -1</clus>
<clus scale="   36.485">  2  9  1 -1</clus>
<clus scale="   90.654">  5  6 -1 -1</clus>
<clus scale="   92.042">  7  8 -1 -1</clus>
<clus scale="  104.448">  2  5  1 -1</clus>
<clus scale="   26.384">  1  5  2 -1</clus>
</clustering>
</event>
<event>
10    2  0.3544405E-006  0.1001083E+03  0.7546771E-02  0.1282347E+00
         21   -1    0    0  501  502  0.00000000000E+00  0.00000000000E+00  0.43122820063E+02  0.43122820063E+02  0.00000000000E+00 0. -1.
          2   -1    0    0  503    0 -0.00000000000E+00 -0.00000000000E+00 -0.64796955134E+03  0.64796955134E+03  0.00000000000E+00 0. -1.
         23    2    1    2    0    0  0.78811628081E+01 -0.14497698826E+02 -0.23411440501E+03  0.25076375305E+03  0.88321057589E+02 0.  0.
         23    2    1    2    0    0 -0.65017187409E+02  0.13897183537E+02 -0.25742126553E+03  0.28163419226E+03  0.92907179143E+02 0.  0.
        -13    1    4    4    0    0 -0.83266325681E+01  0.28020489955E+02 -0.16162324845E+02  0.33402116873E+02  0.00000000000E+00 0.  1.
         13    1    4    4    0    0 -0.56690554841E+02 -0.14123306417E+02 -0.24125894068E+03  0.24823207539E+03  0.00000000000E+00 0. -1.
        -13    1    3    3    0    0 -0.36242914586E+02 -0.25175001108E+02 -0.12603440475E+03  0.13353651456E+03  0.00000000000E+00 0. -1.
         13    1    3    3    0    0  0.44124077395E+02  0.10677302282E+02 -0.10808000025E+03  0.11722723849E+03  0.00000000000E+00 0.  1.
         21    1    1    2  503  502  0.32087267778E+02  0.14799832991E+02 -0.12326436502E+03  0.12822921466E+03  0.00000000000E+00 0.  1.
          2    1    1    2  501    0  0.25048756824E+02 -0.14199317702E+02  0.99533042710E+01  0.30465211431E+02  0.00000000000E+00 0. -1.
<scales pt_clust_5="13000.00000" pt_clust_6="13000.00000" pt_clust_7="13000.00000" pt_clust_8="13000.00000" pt_clust_9="37.24215" pt_clust_10="28.79342"></scales>
<clustering>
<clus scale="   28.793">  1 10  2 -1</clus>
<clus scale="   37.242">  2  9  1 -1</clus>
<clus scale="   88.321">  7  8 -1 -1</clus>
<clus scale="   92.907">  5  6 -1 -1</clus>
<clus scale="   95.867">  2  7  1 -1</clus>
<clus scale="   28.793">  1  5  2 -1</clus>
</clustering>
</event>
<event>
10    2  0.3544405E-006  0.1013379E+03  0.7546771E-02  0.1277553E+00
          1   -1    0    0  503    0 -0.00000000000E+00  0.00000000000E+00  0.34443115371E+03  0.34443115371E+03  0.00000000000E+00 0. -1.
         21   -1    0    0  501  502  0.00000000000E+00 -0.00000000000E+00 -0.18871746853E+03  0.18871746853E+03  0.00000000000E+00 0. -1.
         23    2    1    2    0    0  0.28118320138E+02 -0.25259881041E+02  0.76112466505E+02  0.12496360842E+03  0.91619290302E+02 0.  0.
         23    2    1    2    0    0 -0.75548089421E+02 -0.23466119276E+02  0.41988829971E+02  0.12805305918E+03  0.91522410113E+02 0.  0.
        -11    1    3    3    0    0 -0.97832078926E+01 -0.39878097358E+02  0.73580531413E+02  0.84261903661E+02  0.00000000000E+00 0. -1.
         11    1    3    3    0    0  0.37901528030E+02  0.14618216317E+02  0.25319350920E+01  0.40701704763E+02  0.00000000000E+00 0.  1.
        -11    1    4    4    0    0 -0.59559377831E+02 -0.38704169391E+02  0.64910114084E+02  0.96221905646E+02  0.00000000000E+00 0. -1.
         11    1    4    4    0    0 -0.15988711590E+02  0.15238050114E+02 -0.22921284113E+02  0.31831153529E+02  0.00000000000E+00 0.  1.
         21    1    1    2  503  502 -0.19963579248E+02 -0.26478401610E+02  0.13549605381E+03  0.13949491333E+03  0.00000000000E+00 0. -1.
          1    1    1    2  501    0  0.67393348531E+02  0.75204401928E+02 -0.97883665101E+02  0.14063704131E+03  0.00000000000E+00 0. -1.
<scales pt_clust_5="13000.00000" pt_clust_6="13000.00000" pt_clust_7="13000.00000" pt_clust_8="13000.00000" pt_clust_9="33.16097" pt_clust_10="97.57012"></scales>
<clustering>
<clus scale="   33.161">  1  9  2 -1</clus>
<clus scale="   91.522">  7  8 -1 -1</clus>
<clus scale="   91.619">  5  6 -1 -1</clus>
<clus scale="   97.570">  2 10  1 -1</clus>
<clus scale="  101.250">  2  7  1 -1</clus>
<clus scale="   97.570">  2  5  1 -1</clus>
</clustering>
</event>
<event>
10    2  0.3544405E-006  0.1122776E+03  0.7546771E-02  0.1257500E+00
         -3   -1    0    0    0  501 -0.00000000000E+00  0.00000000000E+00  0.27944364920E+03  0.27944364920E+03  0.00000000000E+00 0.  1.
         21   -1    0    0  503  502  0.00000000000E+00 -0.00000000000E+00 -0.17101552961E+03  0.17101552961E+03  0.00000000000E+00 0. -1.
         23    2    1    2    0    0  0.54293805350E+01 -0.14632024140E+02  0.69851680292E+02  0.11482114125E+03  0.89783422378E+02 0.  0.
         23    2    1    2    0    0 -0.11900568754E+03  0.54688920771E+02 -0.94083495016E+01  0.16073137969E+03  0.92697506199E+02 0.  0.
        -13    1    3    3    0    0  0.33480375121E+02 -0.11776277338E+02  0.77811318658E+02  0.85523198827E+02  0.00000000000E+00 0.  1.
         13    1    3    3    0    0 -0.28050994586E+02 -0.28557468022E+01 -0.79596383661E+01  0.29297942419E+02  0.00000000000E+00 0. -1.
        -13    1    4    4    0    0 -0.29487243377E+02  0.44243170859E+02 -0.38925572091E+02  0.65895036628E+02  0.00000000000E+00 0.  1.
         13    1    4    4    0    0 -0.89518444158E+02  0.10445749912E+02  0.29517222589E+02  0.94836343061E+02  0.00000000000E+00 0. -1.
         21    1    1    2  503  501  0.44309418960E+02 -0.43326932960E+02  0.77765235647E+02  0.99438320598E+02  0.00000000000E+00 0.  1.
         -3    1    1    2    0  502  0.69266888041E+02  0.32700363298E+01 -0.29780446847E+02  0.75468337274E+02  0.00000000000E+00 0.  1.
<scales pt_clust_5="13000.00000" pt_clust_6="13000.00000" pt_clust_7="13000.00000" pt_clust_8="13000.00000" pt_clust_9="61.97215" pt_clust_10="74.59538"></scales>
<clustering>
<clus scale="   61.972">  1  9  2 -1</clus>
<clus scale="   74.595">  2 10  1 -1</clus>
<clus scale="   89.783">  5  6 -1 -1</clus>
<clus scale="   92.698">  7  8 -1 -1</clus>
<clus scale="  109.884">  1  5  2 -1</clus>
<clus scale="   74.595">  2  5  1 -1</clus>
</clustering>
</event>
<event>
10    2  0.3544405E-006  0.1227871E+03  0.7546771E-02  0.1240081E+00
         21   -1    0    0  501  502  0.00000000000E+00  0.00000000000E+00  0.44280176609E+02  0.44280176609E+02  0.00000000000E+00 0. -1.
          1   -1    0    0  503    0 -0.00000000000E+00 -0.00000000000E+00 -0.82423529343E+03  0.82423529343E+03  0.00000000000E+00 0. -1.
         23    2    1    2    0    0  0.12910959720E+03 -0.17357475446E+02 -0.41392163606E+03  0.44380910358E+03  0.93085066357E+02 0.  0.
         23    2    1    2    0    0 -0.38086753355E+02  0.17166559937E+02 -0.19578883332E+03  0.21873255171E+03  0.88121338875E+02 0.  0.
        -11    1    3    3    0    0  0.79713014494E+02 -0.85447582903E+01 -0.36510691815E+03  0.37380508190E+03  0.00000000000E+00 0. -1.
         11    1    3    3    0    0  0.49396582705E+02 -0.88127171558E+01 -0.48814717911E+02  0.70004021679E+02  0.00000000000E+00 0.  1.
        -13    1    4    4    0    0  0.15263455567E+02 -0.21406354588E+02 -0.27598692115E+02  0.38116832227E+02  0.00000000000E+00 0.  1.
         13    1    4    4    0    0 -0.53350208922E+02  0.38572914526E+02 -0.16819014120E+03  0.18061571948E+03  0.00000000000E+00 0. -1.
         21    1    1    2  503  502 -0.36773051391E+02  0.64108723735E+01 -0.13711328368E+03  0.14210351563E+03  0.00000000000E+00 0. -1.
          1    1    1    2  501    0 -0.54249792452E+02 -0.62199568648E+01 -0.33131363763E+02  0.63870299117E+02  0.00000000000E+00 0. -1.
<scales pt_clust_5="13000.00000" pt_clust_6="13000.00000" pt_clust_7="13000.00000" pt_clust_8="13000.00000" pt_clust_9="37.32769" pt_clust_10="57.14651"></scales>
<clustering>
<clus scale="   37.328">  2  9  1 -1</clus>
<clus scale="   57.147">  1 10  2 -1</clus>
<clus scale="   88.121">  7  8 -1 -1</clus>
<clus scale="   93.085">  5  6 -1 -1</clus>
<clus scale="  119.068">  1  7  2 -1</clus>
<clus scale="   57.147">  1  5  2 -1</clus>
</clustering>
</event>
<event>
10    2  0.3544405E-006  0.1699540E+03  0.7546771E-02  0.1198005E+00
          1   -1    0    0  503    0 -0.00000000000E+00  0.00000000000E+00  0.76628434352E+03  0.76628434352E+03  0.00000000000E+00 0. -1.
         21   -1    0    0  501  502  0.00000000000E+00 -0.00000000000E+00 -0.12633601214E+03  0.12633601214E+03  0.00000000000E+00 0.  1.
         23    2    1    2    0    0  0.40548435648E+02 -0.10801103915E+03  0.13391092911E+03  0.19894581246E+03  0.91305745435E+02 0.  0.
         23    2    1    2    0    0  0.38244152671E+02 -0.10631626762E+02 -0.31541247764E+02  0.11406436119E+03  0.10217720628E+03 0.  0.
        -13    1    4    4    0    0  0.34295387862E+02 -0.37246060536E+02 -0.57543989656E+02  0.76646939922E+02  0.00000000000E+00 0.  1.
         13    1    4    4    0    0  0.39487648098E+01  0.26614433773E+02  0.26002741891E+02  0.37417421269E+02  0.00000000000E+00 0. -1.
        -13    1    3    3    0    0  0.14641896116E+02 -0.11358287758E+03  0.82621223172E+02  0.14121516108E+03  0.00000000000E+00 0.  1.
         13    1    3    3    0    0  0.25906539532E+02  0.55718384234E+01  0.51289705938E+02  0.57730651384E+02  0.00000000000E+00 0. -1.
         21    1    1    2  503  502 -0.65106778799E+02  0.13805881108E+03  0.53424466121E+03  0.55562261113E+03  0.00000000000E+00 0. -1.
          1    1    1    2  501    0 -0.13685809521E+02 -0.19416145158E+02  0.33339888282E+01  0.23987570877E+02  0.00000000000E+00 0. -1.
<scales pt_clust_5="13000.00000" pt_clust_6="13000.00000" pt_clust_7="13000.00000" pt_clust_8="13000.00000" pt_clust_9="143.34443" pt_clust_10="23.75475"></scales>
<clustering>
<clus scale="   23.755">  2 10  1 -1</clus>
<clus scale="   91.306">  7  8 -1 -1</clus>
<clus scale="  102.177">  5  6 -1 -1</clus>
<clus scale="  108.813">  2  5  1 -1</clus>
<clus scale="  143.344">  1  9  2 -1</clus>
<clus scale="   23.755">  2  5  1 -1</clus>
</clustering>
</event>
<event>
10    2  0.3544405E-006  0.1425380E+03  0.7546771E-02  0.1210029E+00
          1   -1    0    0  503    0 -0.00000000000E+00  0.00000000000E+00  0.74800744890E+03  0.74800744890E+03  0.00000000000E+00 0. -1.
         21   -1    0    0  501  502  0.00000000000E+00 -0.00000000000E+00 -0.15015489935E+03  0.15015489935E+03  0.00000000000E+00 0. -1.
         23    2    1    2    0    0  0.83520439840E+02  0.78658500759E+02  0.39168377023E+03  0.41799723181E+03  0.90236834650E+02 0.  0.
         23    2    1    2    0    0 -0.96511752910E+02 -0.16184194723E+03  0.39683723445E+02  0.21281340037E+03  0.90594763304E+02 0.  0.
        -11    1    3    3    0    0  0.31078073872E+02  0.81792200109E+02  0.18359099828E+03  0.20337518364E+03  0.00000000000E+00 0.  1.
         11    1    3    3    0    0  0.52442365969E+02 -0.31336993505E+01  0.20809277195E+03  0.21462204817E+03  0.00000000000E+00 0. -1.
        -11    1    4    4    0    0  0.15678757570E+02 -0.42202694597E+02  0.67024843919E+01  0.45517185406E+02  0.00000000000E+00 0.  1.
         11    1    4    4    0    0 -0.11219051048E+03 -0.11963925263E+03  0.32981239054E+02  0.16729621497E+03  0.00000000000E+00 0. -1.
         21    1    1    2  503  502 -0.12540965598E+02 -0.17837018759E+02  0.16157436206E+03  0.16303898164E+03  0.00000000000E+00 0. -1.
          1    1    1    2  501    0  0.25532278667E+02  0.10102046523E+03  0.49106938040E+01  0.10431273443E+03  0.00000000000E+00 0. -1.
<scales pt_clust_5="13000.00000" pt_clust_6="13000.00000" pt_clust_7="13000.00000" pt_clust_8="13000.00000" pt_clust_9="21.80447" pt_clust_10="102.30068"></scales>
<clustering>
<clus scale="   21.804">  1  9  2 -1</clus>
<clus scale="   90.237">  5  6 -1 -1</clus>
<clus scale="   90.595">  7  8 -1 -1</clus>
<clus scale="  102.301">  2 10  1 -1</clus>
<clus scale="  142.311">  1  5  2 -1</clus>
<clus scale="  102.301">  2  5  1 -1</clus>
</clustering>
</event>
<event>
10    2  0.3544405E-006  0.1660216E+03  0.7546771E-02  0.1182111E+00
         21   -1    0    0  501  502  0.00000000000E+00  0.00000000000E+00  0.15328506038E+03  0.15328506038E+03  0.00000000000E+00 0. -1.
          1   -1    0    0  503    0 -0.00000000000E+00 -0.00000000000E+00 -0.59464758359E+03  0.59464758359E+03  0.00000000000E+00 0. -1.
         23    2    1    2    0    0  0.21138454786E+02 -0.17091916268E+03 -0.35915360020E+03  0.40911996737E+03  0.93421864261E+02 0.  0.
         23    2    1    2    0    0  0.13065676618E+02  0.11004565963E+03 -0.10601313016E+03  0.17940303809E+03  0.93090854542E+02 0.  0.
        -11    1    3    3    0    0  0.37959979284E+02 -0.95058377548E+02 -0.12034219046E+03  0.15798511947E+03  0.00000000000E+00 0.  1.
         11    1    3    3    0    0 -0.16821524498E+02 -0.75860785130E+02 -0.23881140974E+03  0.25113484790E+03  0.00000000000E+00 0. -1.
        -13    1    4    4    0    0  0.42308820622E+02  0.68675827157E+02 -0.26091896797E+02  0.84777311921E+02  0.00000000000E+00 0.  1.
         13    1    4    4    0    0 -0.29243144003E+02  0.41369832473E+02 -0.79921233362E+02  0.94625726165E+02  0.00000000000E+00 0. -1.
         21    1    1    2  503  502 -0.34485450627E+02  0.30484546845E+02 -0.56892589708E+02  0.73180056470E+02  0.00000000000E+00 0.  1.
          1    1    1    2  501    0  0.28131922229E+00  0.30388956204E+02  0.80696796850E+02  0.86229582056E+02  0.00000000000E+00 0. -1.
<scales pt_clust_5="13000.00000" pt_clust_6="13000.00000" pt_clust_7="13000.00000" pt_clust_8="13000.00000" pt_clust_9="48.42475" pt_clust_10="30.39026"></scales>
<clustering>
<clus scale="   30.390">  1 10  2 -1</clus>
<clus scale="   48.425">  2  9  1 -1</clus>
<clus scale="   93.091">  7  8 -1 -1</clus>
<clus scale="   93.422">  5  6 -1 -1</clus>
<clus scale="  165.836">  1  7  2 -1</clus>
<clus scale="   30.390">  1  5  2 -1</clus>
</clustering>
</event>
<event>
10    2  0.3544405E-006  0.1128537E+03  0.7546771E-02  0.1255794E+00
         21   -1    0    0  503  502  0.00000000000E+00  0.00000000000E+00  0.61692829795E+02  0.61692829795E+02  0.00000000000E+00 0.  1.
         -1   -1    0    0    0  501 -0.00000000000E+00 -0.00000000000E+00 -0.74295657916E+03  0.74295657916E+03  0.00000000000E+00 0.  1.
         23    2    1    2    0    0 -0.38575157454E+02  0.65038422187E+02 -0.38061688409E+03  0.39875249799E+03  0.91740411273E+02 0.  0.
         23    2    1    2    0    0  0.69411223745E+01 -0.48320133194E+02 -0.18321411501E+03  0.21113127431E+03  0.92876200398E+02 0.  0.
        -11    1    4    4    0    0 -0.35950682023E+02 -0.50206943195E+02 -0.11501186863E+03  0.13054086950E+03  0.00000000000E+00 0. -1.
         11    1    4    4    0    0  0.42891804398E+02  0.18868100018E+01 -0.68202246375E+02  0.80590404808E+02  0.00000000000E+00 0.  1.
        -11    1    3    3    0    0 -0.13491526637E+02  0.80755774570E+02 -0.33100653158E+03  0.34098217016E+03  0.00000000000E+00 0.  1.
         11    1    3    3    0    0 -0.25083630817E+02 -0.15717352382E+02 -0.49610352511E+02  0.57770327826E+02  0.00000000000E+00 0. -1.
         21    1    1    2  503  501  0.25093876870E+02  0.12037754282E+02 -0.14899376369E+03  0.15157094644E+03  0.00000000000E+00 0.  1.
         -1    1    1    2    0  502  0.65401582096E+01 -0.28756043276E+02  0.31561013434E+02  0.43194690221E+02  0.00000000000E+00 0.  1.
<scales pt_clust_5="13000.00000" pt_clust_6="13000.00000" pt_clust_7="13000.00000" pt_clust_8="13000.00000" pt_clust_9="27.83182" pt_clust_10="29.43102"></scales>
<clustering>
<clus scale="   27.832">  2  9  1 -1</clus>
<clus scale="   29.431">  1 10  2 -1</clus>
<clus scale="   91.740">  7  8 -1 -1</clus>
<clus scale="   92.876">  5  6 -1 -1</clus>
<clus scale="  111.921">  2  7  1 -1</clus>
<clus scale="   29.431">  1  5  2 -1</clus>
</clustering>
</event>
<event>
10    2  0.3544405E-006  0.9578157E+02  0.7546771E-02  0.1290205E+00
         21   -1    0    0  501  502  0.00000000000E+00  0.00000000000E+00  0.75964362619E+02  0.75964362619E+02  0.00000000000E+00 0.  1.
          1   -1    0    0  503    0 -0.00000000000E+00 -0.00000000000E+00 -0.25105567980E+03  0.25105567980E+03  0.00000000000E+00 0. -1.
         23    2    1    2    0    0 -0.19746954375E+02  0.41089100757E+01 -0.70914650888E+02  0.11626030717E+03  0.89892969484E+02 0.  0.
         23    2    1    2    0    0  0.39463218718E+02  0.86048538606E+01 -0.58809251475E+02  0.11590808251E+03  0.91349692881E+02 0.  0.
        -11    1    3    3    0    0  0.19561142426E+02 -0.14984921370E+02  0.81235225182E+01  0.25945669766E+02  0.00000000000E+00 0.  1.
         11    1    3    3    0    0 -0.39308096801E+02  0.19093831446E+02 -0.79038173406E+02  0.90314637400E+02  0.00000000000E+00 0. -1.
        -13    1    4    4    0    0 -0.20929767874E+02 -0.21092633639E+02 -0.58859160410E+01  0.30291886451E+02  0.00000000000E+00 0. -1.
         13    1    4    4    0    0  0.60392986593E+02  0.29697487500E+02 -0.52923335434E+02  0.85616196054E+02  0.00000000000E+00 0.  1.
         21    1    1    2  503  502  0.15608021855E+00 -0.23975764767E+02 -0.62079756154E+02  0.66548912699E+02  0.00000000000E+00 0. -1.
          1    1    1    2  501    0 -0.19872344562E+02  0.11262000831E+02  0.16712341339E+02  0.28302740046E+02  0.00000000000E+00 0. -1.
<scales pt_clust_5="13000.00000" pt_clust_6="13000.00000" pt_clust_7="13000.00000" pt_clust_8="13000.00000" pt_clust_9="23.51467" pt_clust_10="22.84169"></scales>
<clustering>
<clus scale="   22.842">  1 10  2 -1</clus>
<clus scale="   23.515">  2  9  1 -1</clus>
<clus scale="   89.893">  5  6 -1 -1</clus>
<clus scale="   91.350">  7  8 -1 -1</clus>
<clus scale="   94.393">  2  5  1 -1</clus>
<clus scale="   22.842">  1  5  2 -1</clus>
</clustering>
</event>
<event>
10    2  0.3544405E-006  0.2184629E+03  0.7546771E-02  0.1135230E+00
          1   -1    0    0  503    0 -0.00000000000E+00  0.00000000000E+00  0.11818805538E+04  0.11818805538E+04  0.00000000000E+00 0. -1.
         21   -1    0    0  501  502  0.00000000000E+00 -0.00000000000E+00 -0.18436092894E+03  0.18436092894E+03  0.00000000000E+00 0.  1.
         23    2    1    2    0    0  0.15847685782E+03 -0.85146193081E+02  0.37499296695E+03  0.42598926260E+03  0.92099608710E+02 0.  0.
         23    2    1    2    0    0 -0.13677570089E+03  0.16339850071E+02 -0.87048416961E+01  0.16456212566E+03  0.89612141366E+02 0.  0.
        -11    1    3    3    0    0  0.88801191139E+02 -0.96672189783E+02  0.23429248318E+03  0.26855936308E+03  0.00000000000E+00 0.  1.
         11    1    3    3    0    0  0.69675666682E+02  0.11525996702E+02  0.14070048377E+03  0.15742989951E+03  0.00000000000E+00 0. -1.
        -11    1    4    4    0    0 -0.31346864397E+02 -0.14627976966E+02 -0.37450198880E+02  0.50981575238E+02  0.00000000000E+00 0.  1.
         11    1    4    4    0    0 -0.10542883649E+03  0.30967827037E+02  0.28745357184E+02  0.11358055042E+03  0.00000000000E+00 0. -1.
         21    1    1    2  503  502  0.86147891745E+02 -0.29446982552E+02  0.62294297391E+03  0.62956058706E+03  0.00000000000E+00 0. -1.
          1    1    1    2  501    0 -0.10784904868E+03  0.98253325561E+02  0.82885257077E+01  0.14612950744E+03  0.00000000000E+00 0. -1.
<scales pt_clust_5="13000.00000" pt_clust_6="13000.00000" pt_clust_7="13000.00000" pt_clust_8="13000.00000" pt_clust_9="91.04166" pt_clust_10="134.38374"></scales>
<clustering>
<clus scale="   89.612">  7  8 -1 -1</clus>
<clus scale="   91.042">  1  9  2 -1</clus>
<clus scale="   92.100">  5  6 -1 -1</clus>
<clus scale="  134.384">  2 10  1 -1</clus>
<clus scale="  217.426">  2  7  1 -1</clus>
<clus scale="  134.384">  2  5  1 -1</clus>
</clustering>
</event>
<event>
10    2  0.3544405E-006  0.2894553E+03  0.7546771E-02  0.1090667E+00
          3   -1    0    0  503    0 -0.00000000000E+00  0.00000000000E+00  0.93099271629E+03  0.93099271629E+03  0.00000000000E+00 0. -1.
         21   -1    0    0  501  502  0.00000000000E+00 -0.00000000000E+00 -0.15032256099E+03  0.15032256099E+03  0.00000000000E+00 0.  1.
         23    2    1    2    0    0  0.17577227096E+03  0.19540238862E+03  0.48527447812E+03  0.55921041418E+03  0.90260642059E+02 0.  0.
         23    2    1    2    0    0 -0.22947762849E+03 -0.19236871741E+03  0.23744123481E+03  0.39285957893E+03  0.91074713041E+02 0.  0.
        -11    1    4    4    0    0 -0.46002246561E+02 -0.32018643112E+01  0.57732859623E+02  0.73888711614E+02  0.00000000000E+00 0. -1.
         11    1    4    4    0    0 -0.18347538193E+03 -0.18916685310E+03  0.17970837519E+03  0.31897086732E+03  0.00000000000E+00 0.  1.
        -13    1    3    3    0    0  0.13678088781E+03  0.15721562229E+03  0.44502039915E+03  0.49139487057E+03  0.00000000000E+00 0. -1.
         13    1    3    3    0    0  0.38991383143E+02  0.38186766329E+02  0.40254078966E+02  0.67815543613E+02  0.00000000000E+00 0.  1.
         21    1    1    2  503  502 -0.17759727191E+02  0.18919958255E+02  0.46997494771E+02  0.53685540372E+02  0.00000000000E+00 0.  1.
          3    1    1    2  501    0  0.71465084723E+02 -0.21953629458E+02  0.10956947604E+02  0.75559743790E+02  0.00000000000E+00 0. -1.
<scales pt_clust_5="13000.00000" pt_clust_6="13000.00000" pt_clust_7="13000.00000" pt_clust_8="13000.00000" pt_clust_9="25.94943" pt_clust_10="73.65698"></scales>
<clustering>
<clus scale="   25.949">  1  9  2 -1</clus>
<clus scale="   73.657">  2 10  1 -1</clus>
<clus scale="   90.261">  7  8 -1 -1</clus>
<clus scale="   91.075">  5  6 -1 -1</clus>
<clus scale="  289.200">  1  7  2 -1</clus>
<clus scale="   73.657">  2  5  1 -1</clus>
</clustering>
</event>
<event>
10    2  0.3544405E-006  0.9209864E+02  0.7546771E-02  0.1301409E+00
         21   -1    0    0  503  502  0.00000000000E+00  0.00000000000E+00  0.28880451832E+03  0.28880451832E+03  0.00000000000E+00 0. -1.
         -1   -1    0    0    0  501 -0.00000000000E+00 -0.00000000000E+00 -0.91896217454E+02  0.91896217454E+02  0.00000000000E+00 0.  1.
         23    2    1    2    0    0  0.17290979342E+02 -0.42476411768E+01  0.16460343884E+02  0.88852473045E+02  0.85479814128E+02 0.  0.
         23    2    1    2    0    0  0.18381698346E+02  0.56309884805E+01  0.15033546302E+03  0.17697904675E+03  0.91385100981E+02 0.  0.
        -11    1    4    4    0    0  0.25005595692E+02  0.28012921349E+02  0.16315118021E+02  0.40941258584E+02  0.00000000000E+00 0.  1.
         11    1    4    4    0    0 -0.66238973465E+01 -0.22381932868E+02  0.13402034500E+03  0.13603778816E+03  0.00000000000E+00 0. -1.
        -13    1    3    3    0    0  0.41097133570E+02  0.25721053303E+02  0.42034138994E+01  0.48664316075E+02  0.00000000000E+00 0.  1.
         13    1    3    3    0    0 -0.23806154228E+02 -0.29968694480E+02  0.12256929985E+02  0.40188156970E+02  0.00000000000E+00 0. -1.
         21    1    1    2  503  501 -0.19947833343E+02 -0.14852081779E+02 -0.37030344497E+02  0.44606578011E+02  0.00000000000E+00 0.  1.
         -1    1    1    2    0  502 -0.15724844345E+02  0.13468734475E+02  0.67142838461E+02  0.70262637970E+02  0.00000000000E+00 0.  1.
<scales pt_clust_5="13000.00000" pt_clust_6="13000.00000" pt_clust_7="13000.00000" pt_clust_8="13000.00000" pt_clust_9="24.95073" pt_clust_10="20.70453"></scales>
<clustering>
<clus scale="   20.705">  1 10  2 -1</clus>
<clus scale="   24.951">  2  9  1 -1</clus>
<clus scale="   85.480">  7  8 -1 -1</clus>
<clus scale="   86.242">  2  7  1 -1</clus>
<clus scale="   91.385">  5  6 -1 -1</clus>
<clus scale="   20.705">  1  5  2 -1</clus>
</clustering>
</event>
<event>
10    2  0.3544405E-006  0.1018073E+03  0.7546771E-02  0.1277358E+00
         21   -1    0    0  503  502  0.00000000000E+00  0.00000000000E+00  0.17056254841E+03  0.17056254841E+03  0.00000000000E+00 0.  1.
         -3   -1    0    0    0  501 -0.00000000000E+00 -0.00000000000E+00 -0.14971117778E+03  0.14971117778E+03  0.00000000000E+00 0.  1.
         23    2    1    2    0    0 -0.65603656070E+02 -0.10984268469E+02 -0.37693389987E+02  0.11705115505E+03  0.88632315816E+02 0.  0.
         23    2    1    2    0    0  0.27967443734E+02 -0.66377677055E+01  0.32654301211E+00  0.94873599748E+02  0.90413801102E+02 0.  0.
        -11    1    3    3    0    0 -0.69507105428E+02 -0.31078077679E+02 -0.51891010539E+02  0.92139902279E+02  0.00000000000E+00 0.  1.
         11    1    3    3    0    0  0.39034493577E+01  0.20093809210E+02  0.14197620552E+02  0.24911252774E+02  0.00000000000E+00 0. -1.
        -11    1    4    4    0    0 -0.67138465195E+01 -0.26337888446E+02 -0.33102464326E+02  0.42831451614E+02  0.00000000000E+00 0.  1.
         11    1    4    4    0    0  0.34681290254E+02  0.19700120741E+02  0.33429007338E+02  0.52042148134E+02  0.00000000000E+00 0. -1.
         21    1    1    2  503  501  0.13377051530E+02  0.18565356865E+02 -0.17516974681E+02  0.28817744276E+02  0.00000000000E+00 0. -1.
         -3    1    1    2    0  502  0.24259160806E+02 -0.94332069045E+00  0.75735192283E+02  0.79531227119E+02  0.00000000000E+00 0.  1.
<scales pt_clust_5="13000.00000" pt_clust_6="13000.00000" pt_clust_7="13000.00000" pt_clust_8="13000.00000" pt_clust_9="22.88270" pt_clust_10="24.46884"></scales>
<clustering>
<clus scale="   22.883">  2  9  1 -1</clus>
<clus scale="   24.469">  1 10  2 -1</clus>
<clus scale="   88.632">  5  6 -1 -1</clus>
<clus scale="   90.414">  7  8 -1 -1</clus>
<clus scale="  100.229">  2  5  1 -1</clus>
<clus scale="   24.469">  1  5  2 -1</clus>
</clustering>
</event>
<event>
10    2  0.3544405E-006  0.2692145E+03  0.7546771E-02  0.1118173E+00
         21   -1    0    0  501  502  0.00000000000E+00  0.00000000000E+00  0.11991091874E+04  0.11991091874E+04  0.00000000000E+00 0. -1.
          1   -1    0    0  503    0 -0.00000000000E+00 -0.00000000000E+00 -0.24940861117E+03  0.24940861117E+03  0.00000000000E+00 0. -1.
         23    2    1    2    0    0 -0.71127451685E+01  0.15611740921E+03  0.15668640195E+03  0.23861018915E+03  0.89224196329E+02 0.  0.
         23    2    1    2    0    0  0.19241638463E+03  0.54800942670E+02 -0.11849940194E+03  0.25021718455E+03  0.92408456287E+02 0.  0.
        -11    1    3    3    0    0  0.24946446621E+02  0.14305147221E+03  0.12997915406E+03  0.19488619600E+03  0.00000000000E+00 0. -1.
         11    1    3    3    0    0 -0.32059191790E+02  0.13065937004E+02  0.26707247885E+02  0.43723993157E+02  0.00000000000E+00 0.  1.
        -11    1    4    4    0    0  0.11073246960E+03  0.31431344072E+02 -0.11857457869E+03  0.16525598303E+03  0.00000000000E+00 0.  1.
         11    1    4    4    0    0  0.81683915033E+02  0.23369598597E+02  0.75176751248E-01  0.84961201529E+02  0.00000000000E+00 0. -1.
         21    1    1    2  503  502 -0.73341599661E+01 -0.20155691685E+02  0.15486384753E+02  0.26455054761E+02  0.00000000000E+00 0. -1.
          1    1    1    2  501    0 -0.17796947950E+03 -0.19076266019E+03  0.89602719145E+03  0.93323537008E+03  0.00000000000E+00 0. -1.
<scales pt_clust_5="13000.00000" pt_clust_6="13000.00000" pt_clust_7="13000.00000" pt_clust_8="13000.00000" pt_clust_9="21.44859" pt_clust_10="252.85795"></scales>
<clustering>
<clus scale="   21.449">  2  9  1 -1</clus>
<clus scale="   89.224">  5  6 -1 -1</clus>
<clus scale="   92.408">  7  8 -1 -1</clus>
<clus scale="  177.082">  2  5  1 -1</clus>
<clus scale="  252.858">  1 10  2 -1</clus>
<clus scale="  252.858">  1  5  2 -1</clus>
</clustering>
</event>
<event>
10    2  0.3544405E-006  0.9429831E+02  0.7546771E-02  0.1297927E+00
         21   -1    0    0  501  502  0.00000000000E+00  0.00000000000E+00  0.40753996594E+02  0.40753996594E+02  0.00000000000E+00 0.  1.
          2   -1    0    0  503    0 -0.00000000000E+00 -0.00000000000E+00 -0.46638719918E+03  0.46638719918E+03  0.00000000000E+00 0. -1.
         23    2    1    2    0    0 -0.18446789246E+00 -0.73306776513E+01 -0.10518188058E+03  0.13385021231E+03  0.82455311963E+02 0.  0.
         23    2    1    2    0    0 -0.33903234859E+01  0.39613110931E+02 -0.10237914799E+03  0.14287307636E+03  0.91381251658E+02 0.  0.
        -13    1    3    3    0    0 -0.13561971301E+02 -0.42773077944E+02 -0.55354476439E+02  0.71257149285E+02  0.00000000000E+00 0. -1.
         13    1    3    3    0    0  0.13377503409E+02  0.35442400292E+02 -0.49827404139E+02  0.62593063028E+02  0.00000000000E+00 0.  1.
        -13    1    4    4    0    0  0.33338283847E+02 -0.12296845702E+02 -0.43929504373E+02  0.56501813586E+02  0.00000000000E+00 0. -1.
         13    1    4    4    0    0 -0.36728607333E+02  0.51909956633E+02 -0.58449643615E+02  0.86371262773E+02  0.00000000000E+00 0.  1.
         21    1    1    2  503  502 -0.20715762383E+02 -0.37696824762E+02 -0.17898105032E+03  0.18407718430E+03  0.00000000000E+00 0. -1.
          2    1    1    2  501    0  0.24290553761E+02  0.54143914818E+01 -0.39091123703E+02  0.46340722799E+02  0.00000000000E+00 0. -1.
<scales pt_clust_5="13000.00000" pt_clust_6="13000.00000" pt_clust_7="13000.00000" pt_clust_8="13000.00000" pt_clust_9="41.90501" pt_clust_10="24.88669"></scales>
<clustering>
<clus scale="   24.887">  1 10  2 -1</clus>
<clus scale="   41.905">  2  9  1 -1</clus>
<clus scale="   82.455">  5  6 -1 -1</clus>
<clus scale="   85.677">  2  5  1 -1</clus>
<clus scale="   91.381">  7  8 -1 -1</clus>
<clus scale="   24.887">  1  5  2 -1</clus>
</clustering>
</event>
<event>
10    2  0.3544405E-006  0.9533357E+02  0.7546771E-02  0.1290680E+00
          1   -1    0    0  503    0 -0.00000000000E+00  0.00000000000E+00  0.20521244894E+03  0.20521244894E+03  0.00000000000E+00 0. -1.
         21   -1    0    0  501  502  0.00000000000E+00 -0.00000000000E+00 -0.34862932887E+03  0.34862932887E+03  0.00000000000E+00 0. -1.
         23    2    1    2    0    0  0.29888215456E+02  0.42151486847E+02  0.69665467622E+02  0.12593444120E+03  0.91302534653E+02 0.  0.
         23    2    1    2    0    0 -0.25278675078E+01 -0.19206156232E+00 -0.18561717919E+03  0.20708017880E+03  0.91771652706E+02 0.  0.
        -11    1    4    4    0    0 -0.33495259959E+02  0.31133541725E+02 -0.72831010872E+02  0.85997593017E+02  0.00000000000E+00 0.  1.
         11    1    4    4    0    0  0.30967392451E+02 -0.31325603287E+02 -0.11278616831E+03  0.12108258578E+03  0.00000000000E+00 0. -1.
        -13    1    3    3    0    0  0.56806785128E+02  0.22063518597E+02  0.69382159127E+02  0.92345512585E+02  0.00000000000E+00 0. -1.
         13    1    3    3    0    0 -0.26918569672E+02  0.20087968250E+02  0.28330849524E+00  0.33588928612E+02  0.00000000000E+00 0.  1.
         21    1    1    2  503  502 -0.14090984598E+02 -0.21629024021E+02  0.93732322681E+02  0.97222008013E+02  0.00000000000E+00 0.  1.
          1    1    1    2  501    0 -0.13269363350E+02 -0.20330401264E+02 -0.12119749105E+03  0.12360514979E+03  0.00000000000E+00 0. -1.
<scales pt_clust_5="13000.00000" pt_clust_6="13000.00000" pt_clust_7="13000.00000" pt_clust_8="13000.00000" pt_clust_9="26.00140" pt_clust_10="24.27759"></scales>
<clustering>
<clus scale="   24.278">  2 10  1 -1</clus>
<clus scale="   26.001">  1  9  2 -1</clus>
<clus scale="   91.303">  7  8 -1 -1</clus>
<clus scale="   91.772">  5  6 -1 -1</clus>
<clus scale="   94.882">  1  7  2 -1</clus>
<clus scale="   24.278">  2  5  1 -1</clus>
</clustering>
</event>
<event>
10    2  0.3544405E-006  0.2106061E+03  0.7546771E-02  0.1164935E+00
          1   -1    0    0  503    0 -0.00000000000E+00  0.00000000000E+00  0.79190064976E+03  0.79190064976E+03  0.00000000000E+00 0. -1.
         21   -1    0    0  501  502  0.00000000000E+00 -0.00000000000E+00 -0.19458734592E+03  0.19458734592E+03  0.00000000000E+00 0.  1.
         23    2    1    2    0    0  0.73030441551E+02 -0.36552337175E+02  0.33731145391E+03  0.35824492031E+03  0.88830666126E+02 0.  0.
         23    2    1    2    0    0 -0.88611999894E+02  0.17028749495E+03  0.20730594337E+02  0.21375669999E+03  0.91718328526E+02 0.  0.
        -11    1    3    3    0    0  0.28996259060E+02  0.29428694661E+02  0.11191780540E+03  0.11929973292E+03  0.00000000000E+00 0.  1.
         11    1    3    3    0    0  0.44034182492E+02 -0.65981031836E+02  0.22539364851E+03  0.23894518740E+03  0.00000000000E+00 0. -1.
        -13    1    4    4    0    0 -0.55753213870E+02  0.13183660400E+03 -0.25310205178E+02  0.14536133425E+03  0.00000000000E+00 0.  1.
         13    1    4    4    0    0 -0.32858786024E+02  0.38450890952E+02  0.46040799515E+02  0.68395365735E+02  0.00000000000E+00 0. -1.
         21    1    1    2  503  502  0.16805380772E+02 -0.15649064334E+03  0.30592887866E+03  0.34404101656E+03  0.00000000000E+00 0. -1.
          1    1    1    2  501    0 -0.12238224295E+01  0.22755485570E+02 -0.66657623071E+02  0.70445358813E+02  0.00000000000E+00 0. -1.
<scales pt_clust_5="13000.00000" pt_clust_6="13000.00000" pt_clust_7="13000.00000" pt_clust_8="13000.00000" pt_clust_9="189.58556" pt_clust_10="22.78837"></scales>
<clustering>
<clus scale="   22.788">  2 10  1 -1</clus>
<clus scale="   88.831">  5  6 -1 -1</clus>
<clus scale="   91.718">  7  8 -1 -1</clus>
<clus scale="  120.046">  1  5  2 -1</clus>
<clus scale="  189.586">  1  9  2 -1</clus>
<clus scale="   22.788">  2  5  1 -1</clus>
</clustering>
</event>
<event>
10    2  0.3544405E-006  0.1402587E+03  0.7546771E-02  0.1224241E+00
         21   -1    0    0  503  502  0.00000000000E+00  0.00000000000E+00  0.38255135442E+03  0.38255135442E+03  0.00000000000E+00 0.  1.
         -1   -1    0    0    0  501 -0.00000000000E+00 -0.00000000000E+00 -0.40871990298E+03  0.40871990298E+03  0.00000000000E+00 0.  1.
         23    2    1    2    0    0 -0.84056011279E+02 -0.18903237007E+00 -0.17405068000E+03  0.21311862890E+03  0.89780075803E+02 0.  0.
         23    2    1    2    0    0  0.12267572515E+02 -0.79087710698E+02 -0.12411874452E+03  0.19312346370E+03  0.12444215594E+03 0.  0.
        -11    1    4    4    0    0  0.46887353197E+02  0.13095614516E+02 -0.31816168971E+02  0.58156578453E+02  0.00000000000E+00 0.  1.
         11    1    4    4    0    0 -0.34619780682E+02 -0.92183325214E+02 -0.92302575545E+02  0.13496688525E+03  0.00000000000E+00 0. -1.
        -13    1    3    3    0    0 -0.35272280404E+02 -0.22149311385E+02 -0.14774297047E+03  0.15350150189E+03  0.00000000000E+00 0. -1.
         13    1    3    3    0    0 -0.48783730875E+02  0.21960279014E+02 -0.26307709535E+02  0.59617127015E+02  0.00000000000E+00 0.  1.
         21    1    1    2  503  501  0.59683809014E+02  0.16165323525E+03  0.11455076366E+03  0.20691979842E+03  0.00000000000E+00 0.  1.
         -1    1    1    2    0  502  0.12104629751E+02 -0.82376492178E+02  0.15745011230E+03  0.17810936637E+03  0.00000000000E+00 0.  1.
<scales pt_clust_5="13000.00000" pt_clust_6="13000.00000" pt_clust_7="13000.00000" pt_clust_8="13000.00000" pt_clust_9="121.35118" pt_clust_10="83.26109"></scales>
<clustering>
<clus scale="   83.261">  1 10  2 -1</clus>
<clus scale="   89.780">  7  8 -1 -1</clus>
<clus scale="  121.351">  1  9  2 -1</clus>
<clus scale="  110.667">  2  7  1 -1</clus>
<clus scale="  124.442">  5  6 -1 -1</clus>
<clus scale="   83.261">  1  5  2 -1</clus>
</clustering>
</event>
<event>
10    2  0.3544405E-006  0.1585518E+03  0.7546771E-02  0.1211463E+00
         21   -1    0    0  503  502  0.00000000000E+00  0.00000000000E+00  0.95422836366E+03  0.95422836366E+03  0.00000000000E+00 0.  1.
         -2   -1    0    0    0  501 -0.00000000000E+00 -0.00000000000E+00 -0.37547037621E+03  0.37547037621E+03  0.00000000000E+00 0.  1.
         23    2    1    2    0    0 -0.11362045999E+02 -0.50329517943E+02 -0.12072826818E+03  0.16056744604E+03  0.92436105086E+02 0.  0.
         23    2    1    2    0    0 -0.11782383904E+03  0.22775920374E+02 -0.45796768815E+02  0.15761148374E+03  0.91339127304E+02 0.  0.
        -11    1    4    4    0    0 -0.10379480297E+03  0.18711008789E+01  0.17325863816E+01  0.10382612386E+03  0.00000000000E+00 0.  1.
         11    1    4    4    0    0 -0.14029036078E+02  0.20904819496E+02 -0.47529355197E+02  0.53785359875E+02  0.00000000000E+00 0. -1.
        -11    1    3    3    0    0 -0.35778467607E+02  0.91516284415E+01 -0.22748657754E+02  0.43374560252E+02  0.00000000000E+00 0. -1.
         11    1    3    3    0    0  0.24416421608E+02 -0.59481146385E+02 -0.97979610429E+02  0.11719288579E+03  0.00000000000E+00 0.  1.
         21    1    1    2  503  501 -0.93667453145E+00  0.23374982432E+02 -0.12722213565E+03  0.12935508866E+03  0.00000000000E+00 0.  1.
         -2    1    1    2    0  502  0.13012255957E+03  0.41786151368E+01  0.87250516010E+03  0.88216472143E+03  0.00000000000E+00 0.  1.
<scales pt_clust_5="13000.00000" pt_clust_6="13000.00000" pt_clust_7="13000.00000" pt_clust_8="13000.00000" pt_clust_9="23.39374" pt_clust_10="129.59872"></scales>
<clustering>
<clus scale="   23.394">  2  9  1 -1</clus>
<clus scale="   91.339">  5  6 -1 -1</clus>
<clus scale="   92.436">  7  8 -1 -1</clus>
<clus scale="  100.285">  2  7  1 -1</clus>
<clus scale="  129.599">  1 10  2 -1</clus>
<clus scale="  129.599">  1  5  2 -1</clus>
</clustering>
</event>
<event>
10    2  0.3544405E-006  0.1590214E+03  0.7546771E-02  0.1190559E+00
         21   -1    0    0  501  502  0.00000000000E+00  0.00000000000E+00  0.29628054865E+03  0.29628054865E+03  0.00000000000E+00 0. -1.
          1   -1    0    0  503    0 -0.00000000000E+00 -0.00000000000E+00 -0.40596227972E+03  0.40596227972E+03  0.00000000000E+00 0. -1.
         23    2    1    2    0    0 -0.32408599084E+01 -0.11799181798E+03 -0.16455809947E+03  0.22045890906E+03  0.87121697639E+02 0.  0.
         23    2    1    2    0    0  0.55717151894E+02  0.13356368355E+03 -0.92425522206E+02  0.19468837130E+03  0.91746532297E+02 0.  0.
        -11    1    3    3    0    0  0.30037172337E+02 -0.66784685356E+02 -0.13273408084E+03  0.15159407025E+03  0.00000000000E+00 0. -1.
         11    1    3    3    0    0 -0.33278032246E+02 -0.51207132624E+02 -0.31824018628E+02  0.68864838803E+02  0.00000000000E+00 0.  1.
        -13    1    4    4    0    0  0.24272828193E+02 -0.74445375906E+01 -0.51644044574E+01  0.25908732153E+02  0.00000000000E+00 0. -1.
         13    1    4    4    0    0  0.31444323701E+02  0.14100822114E+03 -0.87261117749E+02  0.16877963915E+03  0.00000000000E+00 0.  1.
         21    1    1    2  503  502 -0.10872255736E+02 -0.17403113715E+02 -0.66335660218E+02  0.69436979545E+02  0.00000000000E+00 0.  1.
          1    1    1    2  501    0 -0.41604036250E+02  0.18312481498E+01  0.21363755082E+03  0.21765856846E+03  0.00000000000E+00 0. -1.
<scales pt_clust_5="13000.00000" pt_clust_6="13000.00000" pt_clust_7="13000.00000" pt_clust_8="13000.00000" pt_clust_9="20.52010" pt_clust_10="41.70450"></scales>
<clustering>
<clus scale="   20.520">  2  9  1 -1</clus>
<clus scale="   41.704">  1 10  2 -1</clus>
<clus scale="   87.122">  5  6 -1 -1</clus>
<clus scale="   91.747">  7  8 -1 -1</clus>
<clus scale="  156.399">  2  5  1 -1</clus>
<clus scale="   41.704">  1  5  2 -1</clus>
</clustering>
</event>
<event>
10    2  0.3544405E-006  0.1282051E+03  0.7546771E-02  0.1233196E+00
          1   -1    0    0  503    0 -0.00000000000E+00  0.00000000000E+00  0.41682614887E+03  0.41682614887E+03  0.00000000000E+00 0. -1.
         21   -1    0    0  501  502  0.00000000000E+00 -0.00000000000E+00 -0.30546032080E+03  0.30546032080E+03  0.00000000000E+00 0. -1.
         23    2    1    2    0    0 -0.77429916869E+02 -0.12289645082E+02  0.20383212629E+03  0.23910628923E+03  0.97354272838E+02 0.  0.
         23    2    1    2    0    0  0.94509197550E+02 -0.39836644249E+02  0.97778129452E+02  0.16617936938E+03  0.86810561353E+02 0.  0.
        -11    1    4    4    0    0  0.63454759672E+02 -0.64328980500E+02  0.47109256296E+02  0.10190194447E+03  0.00000000000E+00 0.  1.
         11    1    4    4    0    0  0.31054437878E+02  0.24492336251E+02  0.50668873156E+02  0.64277424916E+02  0.00000000000E+00 0. -1.
        -13    1    3    3    0    0 -0.21537915535E+02  0.32615019924E+02  0.24894618971E+02  0.46339652394E+02  0.00000000000E+00 0. -1.
         13    1    3    3    0    0 -0.55892001334E+02 -0.44904665006E+02  0.17893750732E+03  0.19276663684E+03  0.00000000000E+00 0.  1.
         21    1    1    2  503  502  0.27731565758E+02  0.41088648449E+02  0.51152912798E+02  0.71231574870E+02  0.00000000000E+00 0.  1.
          1    1    1    2  501    0 -0.44810846439E+02  0.11037640881E+02 -0.24139734046E+03  0.24576923619E+03  0.00000000000E+00 0. -1.
<scales pt_clust_5="13000.00000" pt_clust_6="13000.00000" pt_clust_7="13000.00000" pt_clust_8="13000.00000" pt_clust_9="47.51113" pt_clust_10="46.15021"></scales>
<clustering>
<clus scale="   46.150">  2 10  1 -1</clus>
<clus scale="   47.511">  2  9  1 -1</clus>
<clus scale="   86.811">  5  6 -1 -1</clus>
<clus scale="   97.354">  7  8 -1 -1</clus>
<clus scale="  120.394">  2  5  1 -1</clus>
<clus scale="   46.150">  2  5  1 -1</clus>
</clustering>
</event>
<event>
10    2  0.3544405E-006  0.1061561E+03  0.7546771E-02  0.1268424E+00
         21   -1    0    0  503  502  0.00000000000E+00  0.00000000000E+00  0.35130040684E+03  0.35130040684E+03  0.00000000000E+00 0.  1.
         -1   -1    0    0    0  501 -0.00000000000E+00 -0.00000000000E+00 -0.29537382404E+03  0.29537382404E+03  0.00000000000E+00 0.  1.
         23    2    1    2    0    0 -0.10899933485E+02  0.60546185407E+02 -0.17625475368E+03  0.20757099807E+03  0.90748729623E+02 0.  0.
         23    2    1    2    0    0 -0.30519764353E+01 -0.33083349003E+02 -0.35300034422E+01  0.95429948732E+02  0.89390109348E+02 0.  0.
        -11    1    4    4    0    0  0.19893732094E+02 -0.42550767037E+01 -0.39189029513E+02  0.44154799157E+02  0.00000000000E+00 0.  1.
         11    1    4    4    0    0 -0.22945708529E+02 -0.28828272300E+02  0.35659026071E+02  0.51275149576E+02  0.00000000000E+00 0. -1.
        -11    1    3    3    0    0 -0.23472806433E+01  0.30088845974E+02 -0.17597955772E+01  0.30231527566E+02  0.00000000000E+00 0. -1.
         11    1    3    3    0    0 -0.85526528415E+01  0.30457339433E+02 -0.17449495810E+03  0.17733947050E+03  0.00000000000E+00 0.  1.
         21    1    1    2  503  501  0.29636879515E+02  0.44227605116E+01 -0.48629655796E+02  0.57120476720E+02  0.00000000000E+00 0.  1.
         -1    1    1    2    0  502 -0.15684969595E+02 -0.31885596915E+02  0.28434099571E+03  0.28655280736E+03  0.00000000000E+00 0.  1.
<scales pt_clust_5="13000.00000" pt_clust_6="13000.00000" pt_clust_7="13000.00000" pt_clust_8="13000.00000" pt_clust_9="29.96507" pt_clust_10="35.45705"></scales>
<clustering>
<clus scale="   29.965">  2  9  1 -1</clus>
<clus scale="   35.457">  1 10  2 -1</clus>
<clus scale="   89.390">  5  6 -1 -1</clus>
<clus scale="   90.749">  7  8 -1 -1</clus>
<clus scale="  104.997">  1  5  2 -1</clus>
<clus scale="   35.457">  1  5  2 -1</clus>
</clustering>
</event>
<event>
10    2  0.3544405E-006  0.9296572E+02  0.7546771E-02  0.1296511E+00
         -1   -1    0    0    0  501 -0.00000000000E+00  0.00000000000E+00  0.36592603685E+03  0.36592603685E+03  0.00000000000E+00 0.  1.
         21   -1    0    0  503  502  0.00000000000E+00 -0.00000000000E+00 -0.97985562823E+02  0.97985562823E+02  0.00000000000E+00 0.  1.
         23    2    1    2    0    0  0.21917975022E+02 -0.21818819149E+02  0.23173817228E+03  0.25102902866E+03  0.91414081200E+02 0.  0.
         23    2    1    2    0    0  0.33711380037E+02 -0.23954006482E+02  0.22745081606E+02  0.10181733026E+03  0.90217395398E+02 0.  0.
        -11    1    4    4    0    0  0.61546660322E+02 -0.32063374162E+02  0.98758436163E+01  0.70096958896E+02  0.00000000000E+00 0.  1.
         11    1    4    4    0    0 -0.27835280285E+02  0.81093676798E+01  0.12869237990E+02  0.31720371359E+02  0.00000000000E+00 0. -1.
        -11    1    3    3    0    0  0.33926662683E+02  0.20220297234E+02  0.47996597877E+02  0.62157479588E+02  0.00000000000E+00 0.  1.
         11    1    3    3    0    0 -0.12008687661E+02 -0.42039116383E+02  0.18374157440E+03  0.18887154908E+03  0.00000000000E+00 0. -1.
         21    1    1    2  503  501 -0.32834494306E+02  0.69603410866E+02  0.13223381934E+02  0.78087109373E+02  0.00000000000E+00 0.  1.
         -1    1    1    2    0  502 -0.22794860753E+02 -0.23830585235E+02  0.23383820918E+00  0.32978131385E+02  0.00000000000E+00 0.  1.
<scales pt_clust_5="13000.00000" pt_clust_6="13000.00000" pt_clust_7="13000.00000" pt_clust_8="13000.00000" pt_clust_9="73.28743" pt_clust_10="32.97730"></scales>
<clustering>
<clus scale="   32.977">  2 10  1 -1</clus>
<clus scale="   73.287">  2  9  1 -1</clus>
<clus scale="   90.217">  5  6 -1 -1</clus>
<clus scale="   91.414">  7  8 -1 -1</clus>
<clus scale="   91.789">  2  5  1 -1</clus>
<clus scale="   32.977">  2  5  1 -1</clus>
</clustering>
</event>
<event>
10    2  0.3544405E-006  0.9993182E+02  0.7546771E-02  0.1280836E+00
          1   -1    0    0  503    0 -0.00000000000E+00  0.00000000000E+00  0.38179017775E+03  0.38179017775E+03  0.00000000000E+00 0. -1.
         21   -1    0    0  501  502  0.00000000000E+00 -0.00000000000E+00 -0.17666272563E+03  0.17666272563E+03  0.00000000000E+00 0. -1.
         23    2    1    2    0    0 -0.11721704072E+02 -0.39511528090E+02  0.14341435757E+03  0.17366502198E+03  0.88844260940E+02 0.  0.
         23    2    1    2    0    0  0.58791675011E+02  0.12068212206E+02  0.12945931106E+03  0.16853676535E+03  0.89681800034E+02 0.  0.
        -11    1    3    3    0    0 -0.37526182547E+02  0.97112806936E+00  0.10704633634E+03  0.11343754048E+03  0.00000000000E+00 0.  1.
         11    1    3    3    0    0  0.25804478475E+02 -0.40482656159E+02  0.36368021233E+02  0.60227481497E+02  0.00000000000E+00 0. -1.
        -13    1    4    4    0    0  0.56969310060E+02 -0.19671458439E+02  0.12170804160E+03  0.13581353377E+03  0.00000000000E+00 0. -1.
         13    1    4    4    0    0  0.18223649510E+01  0.31739670645E+02  0.77512694649E+01  0.32723231579E+02  0.00000000000E+00 0.  1.
         21    1    1    2  503  502 -0.30000633417E+02 -0.16936665404E+00  0.69245694285E+02  0.75465441544E+02  0.00000000000E+00 0. -1.
          1    1    1    2  501    0 -0.17069337522E+02  0.27612682538E+02 -0.13699191080E+03  0.14078567451E+03  0.00000000000E+00 0. -1.
<scales pt_clust_5="13000.00000" pt_clust_6="13000.00000" pt_clust_7="13000.00000" pt_clust_8="13000.00000" pt_clust_9="30.00111" pt_clust_10="32.55883"></scales>
<clustering>
<clus scale="   30.001">  1  9  2 -1</clus>
<clus scale="   32.559">  2 10  1 -1</clus>
<clus scale="   88.844">  5  6 -1 -1</clus>
<clus scale="   89.682">  7  8 -1 -1</clus>
<clus scale="   99.181">  1  5  2 -1</clus>
<clus scale="   32.559">  2  5  1 -1</clus>
</clustering>
</event>
<event>
10    2  0.3544405E-006  0.5326847E+03  0.7546771E-02  0.1005585E+00
          1   -1    0    0  503    0 -0.00000000000E+00  0.00000000000E+00  0.62472119715E+03  0.62472119715E+03  0.00000000000E+00 0. -1.
         21   -1    0    0  501  502  0.00000000000E+00 -0.00000000000E+00 -0.10520249204E+04  0.10520249204E+04  0.00000000000E+00 0. -1.
         23    2    1    2    0    0 -0.38093429810E+03  0.21501021809E+03 -0.21121974994E+03  0.49452482277E+03  0.92739873957E+02 0.  0.
         23    2    1    2    0    0  0.43700621801E+03 -0.52861182839E+03 -0.31229440829E+03  0.75927865315E+03  0.92581725915E+02 0.  0.
        -11    1    4    4    0    0  0.59583527585E+02 -0.31846306839E+02 -0.40478450318E+02  0.78758421511E+02  0.00000000000E+00 0.  1.
         11    1    4    4    0    0  0.37742269043E+03 -0.49676552155E+03 -0.27181595797E+03  0.68052023164E+03  0.00000000000E+00 0. -1.
        -13    1    3    3    0    0 -0.34065829789E+03  0.15658616965E+03 -0.16357717455E+03  0.40905353743E+03  0.00000000000E+00 0.  1.
         13    1    3    3    0    0 -0.40276000208E+02  0.58424048439E+02 -0.47642575384E+02  0.85471285341E+02  0.00000000000E+00 0. -1.
         21    1    1    2  503  502  0.98585529027E+02  0.62412679689E+02  0.21488809274E+02  0.11864323851E+03  0.00000000000E+00 0. -1.
          1    1    1    2  501    0 -0.15465744894E+03  0.25118893062E+03  0.74721625721E+02  0.30429940310E+03  0.00000000000E+00 0. -1.
<scales pt_clust_5="13000.00000" pt_clust_6="13000.00000" pt_clust_7="13000.00000" pt_clust_8="13000.00000" pt_clust_9="116.68097" pt_clust_10="298.15827"></scales>
<clustering>
<clus scale="   92.582">  5  6 -1 -1</clus>
<clus scale="   92.740">  7  8 -1 -1</clus>
<clus scale="  116.681">  1  9  2 -1</clus>
<clus scale="  298.158">  2 10  1 -1</clus>
<clus scale="  532.657">  2  5  1 -1</clus>
<clus scale="  298.158">  2  5  1 -1</clus>
</clustering>
</event>
<event>
10    2  0.3544405E-006  0.9744988E+02  0.7546771E-02  0.1290108E+00
          2   -1    0    0  503    0 -0.00000000000E+00  0.00000000000E+00  0.89494917288E+03  0.89494917288E+03  0.00000000000E+00 0. -1.
         21   -1    0    0  501  502  0.00000000000E+00 -0.00000000000E+00 -0.38738897946E+02  0.38738897946E+02  0.00000000000E+00 0. -1.
         23    2    1    2    0    0 -0.13629625868E+01  0.17648974650E+02  0.36073763375E+03  0.37052684617E+03  0.82735478216E+02 0.  0.
         23    2    1    2    0    0  0.31282298323E+02 -0.21508096835E+02  0.94283762750E+02  0.13641838518E+03  0.90991029666E+02 0.  0.
        -11    1    3    3    0    0 -0.14118602523E+02  0.45993904833E+02  0.27821697265E+03  0.28234634421E+03  0.00000000000E+00 0. -1.
         11    1    3    3    0    0  0.12755639936E+02 -0.28344930182E+02  0.82520661095E+02  0.88180501954E+02  0.00000000000E+00 0.  1.
        -13    1    4    4    0    0 -0.62393134204E+01  0.32250051553E+02  0.35493803607E+02  0.48361192620E+02  0.00000000000E+00 0.  1.
         13    1    4    4    0    0  0.37521611744E+02 -0.53758148388E+02  0.58789959143E+02  0.88057192562E+02  0.00000000000E+00 0. -1.
         21    1    1    2  503  502 -0.50921452040E+02 -0.17538028114E+02  0.39156871455E+03  0.39525515167E+03  0.00000000000E+00 0. -1.
          2    1    1    2  501    0  0.21002116304E+02  0.21397150298E+02  0.96201638876E+01  0.31487687806E+02  0.00000000000E+00 0. -1.
<scales pt_clust_5="13000.00000" pt_clust_6="13000.00000" pt_clust_7="13000.00000" pt_clust_8="13000.00000" pt_clust_9="52.08631" pt_clust_10="29.98211"></scales>
<clustering>
<clus scale="   29.982">  2 10  1 -1</clus>
<clus scale="   52.086">  1  9  2 -1</clus>
<clus scale="   82.735">  5  6 -1 -1</clus>
<clus scale="   89.790">  1  5  2 -1</clus>
<clus scale="   90.991">  7  8 -1 -1</clus>
<clus scale="   29.982">  2  5  1 -1</clus>
</clustering>
</event>
<event>
10    2  0.3544405E-006  0.1652806E+03  0.7546771E-02  0.1182939E+00
          2   -1    0    0  503    0 -0.00000000000E+00  0.00000000000E+00  0.72112443025E+03  0.72112443025E+03  0.00000000000E+00 0. -1.
         21   -1    0    0  501  502  0.00000000000E+00 -0.00000000000E+00 -0.89177733443E+02  0.89177733443E+02  0.00000000000E+00 0. -1.
         23    2    1    2    0    0 -0.21356328927E+02  0.16603400893E+03  0.36843553079E+03  0.41464008998E+03  0.90323191747E+02 0.  0.
         23    2    1    2    0    0  0.28181007506E+02 -0.95807960368E+02  0.12986648625E+03  0.18732872839E+03  0.90848300898E+02 0.  0.
        -13    1    3    3    0    0 -0.45993601538E+02  0.10310507585E+03  0.28945459940E+03  0.31069282767E+03  0.00000000000E+00 0. -1.
         13    1    3    3    0    0  0.24637272611E+02  0.62928933081E+02  0.78980931384E+02  0.10394726231E+03  0.00000000000E+00 0.  1.
        -13    1    4    4    0    0  0.49362534366E+02 -0.87149503778E+02  0.67195062061E+02  0.12061041486E+03  0.00000000000E+00 0.  1.
         13    1    4    4    0    0 -0.21181526859E+02 -0.86584565908E+01  0.62671424185E+02  0.66718313528E+02  0.00000000000E+00 0. -1.
         21    1    1    2  503  502  0.81289213549E+00  0.28958124978E+02  0.98752068148E+02  0.10291357908E+03  0.00000000000E+00 0.  1.
          2    1    1    2  501    0 -0.76375707146E+01 -0.99184173542E+02  0.34892611624E+02  0.10541976624E+03  0.00000000000E+00 0. -1.
<scales pt_clust_5="13000.00000" pt_clust_6="13000.00000" pt_clust_7="13000.00000" pt_clust_8="13000.00000" pt_clust_9="28.96953" pt_clust_10="96.20532"></scales>
<clustering>
<clus scale="   28.970">  1  9  2 -1</clus>
<clus scale="   90.323">  5  6 -1 -1</clus>
<clus scale="   90.848">  7  8 -1 -1</clus>
<clus scale="   96.205">  2 10  1 -1</clus>
<clus scale="  164.993">  1  5  2 -1</clus>
<clus scale="   96.205">  2  5  1 -1</clus>
</clustering>
</event>
<event>
10    2  0.3544405E-006  0.1253275E+03  0.7546771E-02  0.1238605E+00
          1   -1    0    0  503    0 -0.00000000000E+00  0.00000000000E+00  0.22382713530E+03  0.22382713530E+03  0.00000000000E+00 0. -1.
         21   -1    0    0  501  502  0.00000000000E+00 -0.00000000000E+00 -0.25434930025E+03  0.25434930025E+03  0.00000000000E+00 0. -1.
         23    2    1    2    0    0  0.25843184474E+02  0.42292009195E+02 -0.20446404781E+02  0.11563195836E+03  0.10245101318E+03 0.  0.
         23    2    1    2    0    0 -0.77922593806E+02 -0.59914009433E+02 -0.17561344083E+02  0.13443702717E+03  0.90018299898E+02 0.  0.
        -11    1    4    4    0    0 -0.63404941815E+02 -0.71551392271E+01 -0.39985316608E+02  0.75300784911E+02  0.00000000000E+00 0. -1.
         11    1    4    4    0    0 -0.14517651991E+02 -0.52758870206E+02  0.22423972525E+02  0.59136242259E+02  0.00000000000E+00 0.  1.
        -13    1    3    3    0    0  0.27607196145E+02 -0.96724878259E+01  0.30905081442E+02  0.42553946452E+02  0.00000000000E+00 0. -1.
         13    1    3    3    0    0 -0.17640116708E+01  0.51964497021E+02 -0.51351486222E+02  0.73078011912E+02  0.00000000000E+00 0.  1.
         21    1    1    2  503  502  0.22623778117E+02 -0.81158283066E+01  0.11302501230E+03  0.11555239249E+03  0.00000000000E+00 0. -1.
          1    1    1    2  501    0  0.29455631215E+02  0.25737828545E+02 -0.10553942839E+03  0.11255505752E+03  0.00000000000E+00 0. -1.
<scales pt_clust_5="13000.00000" pt_clust_6="13000.00000" pt_clust_7="13000.00000" pt_clust_8="13000.00000" pt_clust_9="24.03543" pt_clust_10="39.49639"></scales>
<clustering>
<clus scale="   24.035">  1  9  2 -1</clus>
<clus scale="   39.496">  2 10  1 -1</clus>
<clus scale="   90.018">  5  6 -1 -1</clus>
<clus scale="  102.451">  7  8 -1 -1</clus>
<clus scale="  115.387">  2  5  1 -1</clus>
<clus scale="   39.496">  2  5  1 -1</clus>
</clustering>
</event>
<event>
10    2  0.3544405E-006  0.1150314E+03  0.7546771E-02  0.1252215E+00
         21   -1    0    0  501  502  0.00000000000E+00  0.00000000000E+00  0.38248419877E+03  0.38248419877E+03  0.00000000000E+00 0.  1.
          2   -1    0    0  503    0 -0.00000000000E+00 -0.00000000000E+00 -0.21994553999E+03  0.21994553999E+03  0.00000000000E+00 0. -1.
         23    2    1    2    0    0  0.12696690700E+02  0.31272896548E+02  0.31374878762E+02  0.10037973948E+03  0.89176841548E+02 0.  0.
         23    2    1    2    0    0  0.34294842832E+02 -0.98824195468E+02  0.15980889828E+03  0.21164083797E+03  0.91162505841E+02 0.  0.
        -13    1    3    3    0    0 -0.33391211949E+02  0.37409185147E+01  0.32411039682E+02  0.46684504925E+02  0.00000000000E+00 0.  1.
         13    1    3    3    0    0  0.46087902649E+02  0.27531978033E+02 -0.10361609207E+01  0.53695234560E+02  0.00000000000E+00 0. -1.
        -13    1    4    4    0    0  0.53278135660E+01 -0.36864647825E+02 -0.60676211886E+00  0.37252597453E+02  0.00000000000E+00 0. -1.
         13    1    4    4    0    0  0.28967029266E+02 -0.61959547642E+02  0.16041566040E+03  0.17438824052E+03  0.00000000000E+00 0.  1.
         21    1    1    2  503  502 -0.11220546010E+02  0.68786897493E+02 -0.14918776704E+03  0.16466489533E+03  0.00000000000E+00 0. -1.
          2    1    1    2  501    0 -0.35770987522E+02 -0.12355985726E+01  0.12054264878E+03  0.12574426598E+03  0.00000000000E+00 0. -1.
<scales pt_clust_5="13000.00000" pt_clust_6="13000.00000" pt_clust_7="13000.00000" pt_clust_8="13000.00000" pt_clust_9="69.83953" pt_clust_10="35.79232"></scales>
<clustering>
<clus scale="   35.792">  1 10  2 -1</clus>
<clus scale="   69.840">  2  9  1 -1</clus>
<clus scale="   89.177">  5  6 -1 -1</clus>
<clus scale="   91.163">  7  8 -1 -1</clus>
<clus scale="  113.464">  2  5  1 -1</clus>
<clus scale="   35.792">  1  5  2 -1</clus>
</clustering>
</event>
<event>
10    2  0.3544405E-006  0.1007044E+03  0.7546771E-02  0.1279224E+00
         21   -1    0    0  501  502  0.00000000000E+00  0.00000000000E+00  0.10948093016E+03  0.10948093016E+03  0.00000000000E+00 0. -1.
          2   -1    0    0  503    0 -0.00000000000E+00 -0.00000000000E+00 -0.34720629750E+03  0.34720629750E+03  0.00000000000E+00 0. -1.
         23    2    1    2    0    0  0.44174050797E+02 -0.22133819092E+02 -0.13025573451E+03  0.16629267467E+03  0.90804430311E+02 0.  0.
         23    2    1    2    0    0 -0.30648764010E+02 -0.19699256722E+02 -0.30974548973E+02  0.10337663535E+03  0.91650960719E+02 0.  0.
        -11    1    4    4    0    0  0.24720464442E+02  0.10967004079E+02  0.90160464902E+01  0.28507290910E+02  0.00000000000E+00 0. -1.
         11    1    4    4    0    0 -0.55369228452E+02 -0.30666260801E+02 -0.39990595463E+02  0.74869344437E+02  0.00000000000E+00 0.  1.
        -13    1    3    3    0    0  0.29191432440E+01  0.24081428906E+02 -0.25969868211E+01  0.24396330789E+02  0.00000000000E+00 0.  1.
         13    1    3    3    0    0  0.41254907553E+02 -0.46215247998E+02 -0.12765874769E+03  0.14189634388E+03  0.00000000000E+00 0. -1.
         21    1    1    2  503  502  0.50011552243E+01  0.57152223702E+02 -0.12241178678E+03  0.13518888183E+03  0.00000000000E+00 0. -1.
          2    1    1    2  501    0 -0.18526442011E+02 -0.15319147888E+02  0.45916702923E+02  0.51829035809E+02  0.00000000000E+00 0. -1.
<scales pt_clust_5="13000.00000" pt_clust_6="13000.00000" pt_clust_7="13000.00000" pt_clust_8="13000.00000" pt_clust_9="55.62106" pt_clust_10="24.03966"></scales>
<clustering>
<clus scale="   24.040">  1 10  2 -1</clus>
<clus scale="   55.621">  2  9  1 -1</clus>
<clus scale="   90.804">  7  8 -1 -1</clus>
<clus scale="   91.651">  5  6 -1 -1</clus>
<clus scale="   99.935">  2  7  1 -1</clus>
<clus scale="   24.040">  1  5  2 -1</clus>
</clustering>
</event>
<event>
10    2  0.3544405E-006  0.1718954E+03  0.7546771E-02  0.1198998E+00
          1   -1    0    0  503    0 -0.00000000000E+00  0.00000000000E+00  0.52151981437E+03  0.52151981437E+03  0.00000000000E+00 0. -1.
         21   -1    0    0  501  502  0.00000000000E+00 -0.00000000000E+00 -0.14612806474E+03  0.14612806474E+03  0.00000000000E+00 0. -1.
         23    2    1    2    0    0  0.21656596363E+02 -0.59477162164E+02  0.27950089948E+03  0.29993715992E+03  0.88515569851E+02 0.  0.
         23    2    1    2    0    0 -0.15102220535E+03  0.70644860022E+02  0.18683328458E+02  0.19109380324E+03  0.91484272516E+02 0.  0.
        -11    1    4    4    0    0 -0.41371986170E+01  0.39880380506E+02  0.48041347935E+01  0.40381194544E+02  0.00000000000E+00 0.  1.
         11    1    4    4    0    0 -0.14688500673E+03  0.30764479516E+02  0.13879193665E+02  0.15071260869E+03  0.00000000000E+00 0. -1.
        -11    1    3    3    0    0  0.17955674555E+02  0.20291946847E+02  0.48956466600E+02  0.55954490235E+02  0.00000000000E+00 0.  1.
         11    1    3    3    0    0  0.37009218081E+01 -0.79769109011E+02  0.23054443288E+03  0.24398266969E+03  0.00000000000E+00 0. -1.
         21    1    1    2  503  502  0.51568597437E+01  0.21979868900E+02  0.34350759559E+02  0.41105748036E+02  0.00000000000E+00 0. -1.
          1    1    1    2  501    0  0.12420874924E+03 -0.33147566758E+02  0.42856762132E+02  0.13551116792E+03  0.00000000000E+00 0. -1.
<scales pt_clust_5="13000.00000" pt_clust_6="13000.00000" pt_clust_7="13000.00000" pt_clust_8="13000.00000" pt_clust_9="22.57671" pt_clust_10="145.52894"></scales>
<clustering>
<clus scale="   22.577">  1  9  2 -1</clus>
<clus scale="   88.516">  7  8 -1 -1</clus>
<clus scale="   91.484">  5  6 -1 -1</clus>
<clus scale="  102.919">  1  7  2 -1</clus>
<clus scale="  145.529">  2 10  1 -1</clus>
<clus scale="  145.529">  2  5  1 -1</clus>
</clustering>
</event>
<event>
10    2  0.3544405E-006  0.1807201E+03  0.7546771E-02  0.1194931E+00
          2   -1    0    0  503    0 -0.00000000000E+00  0.00000000000E+00  0.42527278075E+03  0.42527278075E+03  0.00000000000E+00 0. -1.
         21   -1    0    0  501  502  0.00000000000E+00 -0.00000000000E+00 -0.44012392445E+03  0.44012392445E+03  0.00000000000E+00 0.  1.
         23    2    1    2    0    0  0.29975090531E+02  0.40319907451E+01  0.86938883992E+02  0.13010242248E+03  0.91942959398E+02 0.  0.
         23    2    1    2    0    0 -0.48921304429E+02  0.95953451025E+02 -0.26956004684E+03  0.30418140499E+03  0.90902967480E+02 0.  0.
        -11    1    3    3    0    0  0.47174918405E+02 -0.31637867801E+02  0.45437559290E+02  0.72739256250E+02  0.00000000000E+00 0.  1.
         11    1    3    3    0    0 -0.17199827874E+02  0.35669858546E+02  0.41501324701E+02  0.57363166227E+02  0.00000000000E+00 0. -1.
        -11    1    4    4    0    0  0.11676944010E+02  0.65052042721E+02 -0.86273720784E+02  0.10867968615E+03  0.00000000000E+00 0. -1.
         11    1    4    4    0    0 -0.60598248440E+02  0.30901408304E+02 -0.18328632606E+03  0.19550171884E+03  0.00000000000E+00 0.  1.
         21    1    1    2  503  502  0.13279516181E+03 -0.60011417797E+02  0.24698525726E+03  0.28677106299E+03  0.00000000000E+00 0. -1.
          2    1    1    2  501    0 -0.11384894791E+03 -0.39974023973E+02 -0.79215238102E+02  0.14434181474E+03  0.00000000000E+00 0. -1.
<scales pt_clust_5="13000.00000" pt_clust_6="13000.00000" pt_clust_7="13000.00000" pt_clust_8="13000.00000" pt_clust_9="156.19354" pt_clust_10="117.61961"></scales>
<clustering>
<clus scale="   90.903">  7  8 -1 -1</clus>
<clus scale="   91.943">  5  6 -1 -1</clus>
<clus scale="   96.790">  1  5  2 -1</clus>
<clus scale="  117.620">  2 10  1 -1</clus>
<clus scale="  156.194">  1  9  2 -1</clus>
<clus scale="  117.620">  2  5  1 -1</clus>
</clustering>
</event>
<event>
10    2  0.3544405E-006  0.9633342E+02  0.7546771E-02  0.1288864E+00
          2   -1    0    0  503    0 -0.00000000000E+00  0.00000000000E+00  0.73334072491E+03  0.73334072491E+03  0.00000000000E+00 0. -1.
         21   -1    0    0  501  502  0.00000000000E+00 -0.00000000000E+00 -0.15969612609E+03  0.15969612609E+03  0.00000000000E+00 0. -1.
         23    2    1    2    0    0  0.28520303032E+02  0.20733733341E+02  0.55045079832E+03  0.55914109355E+03  0.91648162757E+02 0.  0.
         23    2    1    2    0    0  0.27059868291E+01 -0.11837141662E+02 -0.11953754818E+02  0.91985447133E+02  0.90393528212E+02 0.  0.
        -11    1    4    4    0    0  0.42622278481E+02 -0.11471218204E+02 -0.24061946314E+02  0.50271510127E+02  0.00000000000E+00 0.  1.
         11    1    4    4    0    0 -0.39916291652E+02 -0.36592345831E+00  0.12108191496E+02  0.41713937006E+02  0.00000000000E+00 0. -1.
        -13    1    3    3    0    0  0.21795536628E+02  0.57137488844E+02  0.33684840367E+03  0.34235447288E+03  0.00000000000E+00 0. -1.
         13    1    3    3    0    0  0.67247664043E+01 -0.36403755502E+02  0.21360239465E+03  0.21678662066E+03  0.00000000000E+00 0.  1.
         21    1    1    2  503  502 -0.23344609133E+02  0.11031408530E+02  0.13619223475E+03  0.13861813574E+03  0.00000000000E+00 0.  1.
          2    1    1    2  501    0 -0.78816807280E+01 -0.19928000210E+02 -0.10104467944E+03  0.10329217457E+03  0.00000000000E+00 0. -1.
<scales pt_clust_5="13000.00000" pt_clust_6="13000.00000" pt_clust_7="13000.00000" pt_clust_8="13000.00000" pt_clust_9="25.79449" pt_clust_10="21.43003"></scales>
<clustering>
<clus scale="   21.430">  2 10  1 -1</clus>
<clus scale="   25.794">  1  9  2 -1</clus>
<clus scale="   90.394">  5  6 -1 -1</clus>
<clus scale="   91.648">  7  8 -1 -1</clus>
<clus scale="   95.141">  2  5  1 -1</clus>
<clus scale="   21.430">  2  5  1 -1</clus>
</clustering>
</event>
<event>
10    2  0.3544405E-006  0.1630950E+03  0.7546771E-02  0.1185386E+00
         21   -1    0    0  501  502  0.00000000000E+00  0.00000000000E+00  0.78253604727E+02  0.78253604727E+02  0.00000000000E+00 0.  1.
          2   -1    0    0  503    0 -0.00000000000E+00 -0.00000000000E+00 -0.94292209940E+03  0.94292209940E+03  0.00000000000E+00 0. -1.
         23    2    1    2    0    0 -0.88655581561E+02 -0.10093861527E+03 -0.54469597257E+03  0.56859629210E+03  0.92518239592E+02 0.  0.
         23    2    1    2    0    0  0.40100154845E+02  0.13877013089E+03 -0.16562197844E+03  0.23809806314E+03  0.91623557445E+02 0.  0.
        -11    1    3    3    0    0  0.31677550279E+01 -0.51561728624E+02 -0.26749559222E+03  0.27243813681E+03  0.00000000000E+00 0. -1.
         11    1    3    3    0    0 -0.91823336589E+02 -0.49376886645E+02 -0.27720038035E+03  0.29615815529E+03  0.00000000000E+00 0.  1.
        -13    1    4    4    0    0  0.32693957712E+02  0.11860006346E+03 -0.17560062518E+03  0.21440720484E+03  0.00000000000E+00 0.  1.
         13    1    4    4    0    0  0.74061971332E+01  0.20170067435E+02  0.99786467342E+01  0.23690858299E+02  0.00000000000E+00 0. -1.
         21    1    1    2  503  502  0.63926461040E+02 -0.60604559406E+02 -0.16333522941E+03  0.18557451929E+03  0.00000000000E+00 0. -1.
          2    1    1    2  501    0 -0.15371034325E+02  0.22773043782E+02  0.89846857594E+01  0.28906829599E+02  0.00000000000E+00 0. -1.
<scales pt_clust_5="13000.00000" pt_clust_6="13000.00000" pt_clust_7="13000.00000" pt_clust_8="13000.00000" pt_clust_9="83.06654" pt_clust_10="27.47508"></scales>
<clustering>
<clus scale="   27.475">  1 10  2 -1</clus>
<clus scale="   83.067">  1  9  2 -1</clus>
<clus scale="   91.624">  7  8 -1 -1</clus>
<clus scale="   92.518">  5  6 -1 -1</clus>
<clus scale="  162.589">  1  7  2 -1</clus>
<clus scale="   27.475">  1  5  2 -1</clus>
</clustering>
</event>
<event>
10    2  0.3544405E-006  0.1394535E+03  0.7546771E-02  0.1228596E+00
         21   -1    0    0  503  502  0.00000000000E+00  0.00000000000E+00  0.19919121626E+03  0.19919121626E+03  0.00000000000E+00 0. -1.
         -3   -1    0    0    0  501 -0.00000000000E+00 -0.00000000000E+00 -0.21839003508E+03  0.21839003508E+03  0.00000000000E+00 0.  1.
         23    2    1    2    0    0  0.25773957462E+02 -0.91388308851E+02 -0.65605061533E+02  0.14732998453E+03  0.91574998584E+02 0.  0.
         23    2    1    2    0    0 -0.24188541104E+02 -0.30280570257E+02  0.63107831700E+02  0.11722146270E+03  0.90864043709E+02 0.  0.
        -13    1    3    3    0    0  0.24443342930E+00 -0.67602729859E+02 -0.84048541951E+02  0.10786262669E+03  0.00000000000E+00 0.  1.
         13    1    3    3    0    0  0.25529524032E+02 -0.23785578992E+02  0.18443480417E+02  0.39467357844E+02  0.00000000000E+00 0. -1.
        -13    1    4    4    0    0 -0.26605098753E+02 -0.60311345900E+02  0.55440541795E+02  0.86133288562E+02  0.00000000000E+00 0.  1.
         13    1    4    4    0    0  0.24165576489E+01  0.30030775643E+02  0.76672899048E+01  0.31088174135E+02  0.00000000000E+00 0. -1.
         21    1    1    2  503  501  0.24342560576E+02  0.12352730297E+03 -0.16917097024E+02  0.12703441662E+03  0.00000000000E+00 0. -1.
         -3    1    1    2    0  502 -0.25927976933E+02 -0.18584238618E+01  0.21550803619E+00  0.25995387491E+02  0.00000000000E+00 0.  1.
<scales pt_clust_5="13000.00000" pt_clust_6="13000.00000" pt_clust_7="13000.00000" pt_clust_8="13000.00000" pt_clust_9="105.17264" pt_clust_10="25.99449"></scales>
<clustering>
<clus scale="   25.994">  1 10  2 -1</clus>
<clus scale="   90.864">  7  8 -1 -1</clus>
<clus scale="   91.575">  5  6 -1 -1</clus>
<clus scale="  102.855">  1  7  2 -1</clus>
<clus scale="  105.173">  1  9  2 -1</clus>
<clus scale="   25.994">  1  5  2 -1</clus>
</clustering>
</event>
<event>
10    2  0.3544405E-006  0.1116222E+03  0.7546771E-02  0.1258206E+00
         -1   -1    0    0    0  501 -0.00000000000E+00  0.00000000000E+00  0.56482230210E+02  0.56482230210E+02  0.00000000000E+00 0.  1.
         21   -1    0    0  503  502  0.00000000000E+00 -0.00000000000E+00 -0.41040506449E+03  0.41040506449E+03  0.00000000000E+00 0.  1.
         23    2    1    2    0    0  0.72629633479E+02  0.33769244614E+02 -0.10748004791E+03  0.16275942617E+03  0.92321419874E+02 0.  0.
         23    2    1    2    0    0 -0.38300748545E+02 -0.69786668318E+01 -0.13806771649E+03  0.17145879647E+03  0.93913659391E+02 0.  0.
        -11    1    3    3    0    0 -0.53267088128E+01  0.42422081287E+02 -0.28083832713E+02  0.51153772758E+02  0.00000000000E+00 0. -1.
         11    1    3    3    0    0  0.77956342292E+02 -0.86528366736E+01 -0.79396215194E+02  0.11160565341E+03  0.00000000000E+00 0.  1.
        -13    1    4    4    0    0 -0.19942848382E+02  0.30490034809E+02 -0.12102182134E+03  0.12638686904E+03  0.00000000000E+00 0.  1.
         13    1    4    4    0    0 -0.18357900163E+02 -0.37468701641E+02 -0.17045895146E+02  0.45071927431E+02  0.00000000000E+00 0. -1.
         21    1    1    2  503  501  0.66011062497E+01 -0.20535558963E+02 -0.62315601092E+01  0.22452530526E+02  0.00000000000E+00 0.  1.
         -1    1    1    2    0  502 -0.40929991184E+02 -0.62550188194E+01 -0.10214350978E+03  0.11021654154E+03  0.00000000000E+00 0.  1.
<scales pt_clust_5="13000.00000" pt_clust_6="13000.00000" pt_clust_7="13000.00000" pt_clust_8="13000.00000" pt_clust_9="21.57044" pt_clust_10="41.15793"></scales>
<clustering>
<clus scale="   21.570">  1  9  2 -1</clus>
<clus scale="   41.158">  2 10  1 -1</clus>
<clus scale="   92.321">  5  6 -1 -1</clus>
<clus scale="   93.914">  7  8 -1 -1</clus>
<clus scale="  110.286">  1  5  2 -1</clus>
<clus scale="   41.158">  2  5  1 -1</clus>
</clustering>
</event>
<event>
10    2  0.3544405E-006  0.1075923E+03  0.7546771E-02  0.1265187E+00
         21   -1    0    0  503  502  0.00000000000E+00  0.00000000000E+00  0.31439343260E+03  0.31439343260E+03  0.00000000000E+00 0. -1.
         -3   -1    0    0    0  501 -0.00000000000E+00 -0.00000000000E+00 -0.20478776179E+03  0.20478776179E+03  0.00000000000E+00 0.  1.
         23    2    1    2    0    0 -0.49013743458E+02 -0.22712239364E+02 -0.15630987321E+03  0.18873182811E+03  0.90932577286E+02 0.  0.
         23    2    1    2    0    0  0.88590143102E+02  0.45479512591E+02  0.19897597515E+03  0.24045472213E+03  0.91161588323E+02 0.  0.
        -13    1    4    4    0    0  0.94654857471E+02  0.13088798688E+02  0.11074914533E+03  0.14627450867E+03  0.00000000000E+00 0. -1.
         13    1    4    4    0    0 -0.60647143684E+01  0.32390713904E+02  0.88226829820E+02  0.94180213462E+02  0.00000000000E+00 0.  1.
        -13    1    3    3    0    0 -0.34418724729E+02 -0.46910231155E+02 -0.44069139419E+02  0.72988406259E+02  0.00000000000E+00 0. -1.
         13    1    3    3    0    0 -0.14595018729E+02  0.24197991792E+02 -0.11224073379E+03  0.11574342185E+03  0.00000000000E+00 0.  1.
         21    1    1    2  503  501 -0.30853674654E+02 -0.85418041818E+00  0.18157751889E+02  0.35810373043E+02  0.00000000000E+00 0. -1.
         -3    1    1    2    0  502 -0.87227249902E+01 -0.21913092809E+02  0.48781816981E+02  0.54184271110E+02  0.00000000000E+00 0.  1.
<scales pt_clust_5="13000.00000" pt_clust_6="13000.00000" pt_clust_7="13000.00000" pt_clust_8="13000.00000" pt_clust_9="31.90024" pt_clust_10="23.58537"></scales>
<clustering>
<clus scale="   23.585">  1 10  2 -1</clus>
<clus scale="   31.900">  1  9  2 -1</clus>
<clus scale="   90.933">  7  8 -1 -1</clus>
<clus scale="   91.162">  5  6 -1 -1</clus>
<clus scale="  107.398">  2  7  1 -1</clus>
<clus scale="   23.585">  1  5  2 -1</clus>
</clustering>
</event>
<event>
10    2  0.3544405E-006  0.2227435E+03  0.7546771E-02  0.1161293E+00
         21   -1    0    0  503  502  0.00000000000E+00  0.00000000000E+00  0.46020345825E+03  0.46020345825E+03  0.00000000000E+00 0.  1.
         -1   -1    0    0    0  501 -0.00000000000E+00 -0.00000000000E+00 -0.85400723714E+03  0.85400723714E+03  0.00000000000E+00 0.  1.
         23    2    1    2    0    0 -0.39945710732E+02  0.45031140574E+02  0.33885884423E+02  0.11485570841E+03  0.91761196402E+02 0.  0.
         23    2    1    2    0    0 -0.48981286822E+02 -0.18790175396E+03 -0.66765534496E+03  0.70124011094E+03  0.90927432233E+02 0.  0.
        -13    1    4    4    0    0 -0.15816987117E+02 -0.10080158470E+03 -0.20152649342E+03  0.22588506836E+03  0.00000000000E+00 0. -1.
         13    1    4    4    0    0 -0.33164299705E+02 -0.87100169254E+02 -0.46612885155E+03  0.47535504258E+03  0.00000000000E+00 0.  1.
        -13    1    3    3    0    0 -0.39129717287E+02 -0.55475065680E+01  0.48155285300E+02  0.62296397219E+02  0.00000000000E+00 0.  1.
         13    1    3    3    0    0 -0.81599344498E+00  0.50578647142E+02 -0.14269400877E+02  0.52559311196E+02  0.00000000000E+00 0. -1.
         21    1    1    2  503  501 -0.45234188938E+02 -0.11526871331E+02 -0.94878262737E+02  0.10573970565E+03  0.00000000000E+00 0.  1.
         -1    1    1    2    0  502  0.13416118649E+03  0.15439748471E+03  0.33484394439E+03  0.39237517039E+03  0.00000000000E+00 0.  1.
<scales pt_clust_5="13000.00000" pt_clust_6="13000.00000" pt_clust_7="13000.00000" pt_clust_8="13000.00000" pt_clust_9="46.67977" pt_clust_10="203.33934"></scales>
<clustering>
<clus scale="   46.680">  2  9  1 -1</clus>
<clus scale="   90.927">  5  6 -1 -1</clus>
<clus scale="   91.761">  7  8 -1 -1</clus>
<clus scale="  110.400">  2  7  1 -1</clus>
<clus scale="  203.339">  1 10  2 -1</clus>
<clus scale="  203.339">  1  5  2 -1</clus>
</clustering>
</event>
<event>
10    2  0.3544405E-006  0.3478482E+03  0.7546771E-02  0.1109178E+00
         21   -1    0    0  501  502  0.00000000000E+00  0.00000000000E+00  0.80561192635E+03  0.80561192635E+03  0.00000000000E+00 0. -1.
          2   -1    0    0  503    0 -0.00000000000E+00 -0.00000000000E+00 -0.35710769872E+03  0.35710769872E+03  0.00000000000E+00 0. -1.
         23    2    1    2    0    0  0.51404026205E+02  0.13441462176E+02  0.19458459511E+03  0.22064631730E+03  0.89434813523E+02 0.  0.
         23    2    1    2    0    0  0.27435377001E+03  0.16390794171E+03 -0.15045455400E+03  0.37310541228E+03  0.12014687421E+03 0.  0.
        -11    1    4    4    0    0  0.25947335130E+03  0.18143112485E+03 -0.14940233402E+03  0.35009245995E+03  0.00000000000E+00 0. -1.
         11    1    4    4    0    0  0.14880418704E+02 -0.17523183145E+02 -0.10522199857E+01  0.23012952337E+02  0.00000000000E+00 0.  1.
        -13    1    3    3    0    0 -0.77899489987E+01  0.29115230396E+02  0.12207168436E+03  0.12573732966E+03  0.00000000000E+00 0.  1.
         13    1    3    3    0    0  0.59193975204E+02 -0.15673768220E+02  0.72512910741E+02  0.94908987640E+02  0.00000000000E+00 0. -1.
         21    1    1    2  503  502 -0.50448918059E+02  0.96261592085E+00  0.29075516934E+01  0.50541802694E+02  0.00000000000E+00 0. -1.
          2    1    1    2  501    0 -0.27530887815E+03 -0.17831201981E+03  0.40146663483E+03  0.51842609278E+03  0.00000000000E+00 0. -1.
<scales pt_clust_5="13000.00000" pt_clust_6="13000.00000" pt_clust_7="13000.00000" pt_clust_8="13000.00000" pt_clust_9="50.45810" pt_clust_10="326.44001"></scales>
<clustering>
<clus scale="   50.458">  2  9  1 -1</clus>
<clus scale="   89.435">  7  8 -1 -1</clus>
<clus scale="  103.072">  2  7  1 -1</clus>
<clus scale="  120.147">  5  6 -1 -1</clus>
<clus scale="  326.440">  1 10  2 -1</clus>
<clus scale="  326.440">  1  5  2 -1</clus>
</clustering>
</event>
<event>
10    2  0.3544405E-006  0.1109174E+03  0.7546771E-02  0.1259353E+00
          1   -1    0    0  503    0 -0.00000000000E+00  0.00000000000E+00  0.33582346050E+03  0.33582346050E+03  0.00000000000E+00 0. -1.
         21   -1    0    0  501  502  0.00000000000E+00 -0.00000000000E+00 -0.16751319337E+03  0.16751319337E+03  0.00000000000E+00 0. -1.
         23    2    1    2    0    0 -0.69605236570E+02 -0.62205998464E+02  0.10543532104E+03  0.16789957304E+03  0.91428575955E+02 0.  0.
         23    2    1    2    0    0 -0.79733650476E+02  0.55610857548E+02  0.30871379032E+02  0.13614549114E+03  0.90180542350E+02 0.  0.
        -11    1    4    4    0    0 -0.93457739873E+02  0.25560876935E+02  0.34638593710E+02  0.10289577127E+03  0.00000000000E+00 0. -1.
         11    1    4    4    0    0  0.13724089397E+02  0.30049980613E+02 -0.37672146788E+01  0.33249719864E+02  0.00000000000E+00 0.  1.
        -11    1    3    3    0    0 -0.68564158116E+02 -0.20769295497E+02  0.22345518636E+02  0.75044850701E+02  0.00000000000E+00 0. -1.
         11    1    3    3    0    0 -0.10410784537E+01 -0.41436702967E+02  0.83089802401E+02  0.92854722337E+02  0.00000000000E+00 0.  1.
         21    1    1    2  503  502  0.87240617922E+02 -0.16179561750E+02  0.78477292791E+02  0.11845416463E+03  0.00000000000E+00 0. -1.
          1    1    1    2  501    0  0.62098269123E+02  0.22774702666E+02 -0.46473725729E+02  0.80837425075E+02  0.00000000000E+00 0. -1.
<scales pt_clust_5="13000.00000" pt_clust_6="13000.00000" pt_clust_7="13000.00000" pt_clust_8="13000.00000" pt_clust_9="99.89102" pt_clust_10="66.14289"></scales>
<clustering>
<clus scale="   66.143">  2 10  1 -1</clus>
<clus scale="   90.181">  5  6 -1 -1</clus>
<clus scale="   91.429">  7  8 -1 -1</clus>
<clus scale="   99.891">  1  9  2 -1</clus>
<clus scale="  109.891">  2  5  1 -1</clus>
<clus scale="   66.143">  2  5  1 -1</clus>
</clustering>
</event>
<event>
10    2  0.3544405E-006  0.1005174E+03  0.7546771E-02  0.1279361E+00
         -1   -1    0    0    0  501 -0.00000000000E+00  0.00000000000E+00  0.13806888401E+03  0.13806888401E+03  0.00000000000E+00 0.  1.
         21   -1    0    0  503  502  0.00000000000E+00 -0.00000000000E+00 -0.53364796151E+03  0.53364796151E+03  0.00000000000E+00 0.  1.
         23    2    1    2    0    0  0.39684410975E+02 -0.39311126750E+02  0.78691993502E+02  0.13327705869E+03  0.91924574365E+02 0.  0.
         23    2    1    2    0    0 -0.54032328289E+02  0.35021342011E+02 -0.44369220877E+03  0.45760433840E+03  0.91613140453E+02 0.  0.
        -11    1    4    4    0    0 -0.54560435665E+02 -0.17737148376E+02 -0.27215891993E+03  0.27814011805E+03  0.00000000000E+00 0.  1.
         11    1    4    4    0    0  0.52810737521E+00  0.52758490387E+02 -0.17153328884E+03  0.17946422035E+03  0.00000000000E+00 0. -1.
        -13    1    3    3    0    0  0.36253922415E+02  0.23809160726E+02  0.40971185655E+02  0.59664571388E+02  0.00000000000E+00 0. -1.
         13    1    3    3    0    0  0.34304885599E+01 -0.63120287476E+02  0.37720807847E+02  0.73612487306E+02  0.00000000000E+00 0.  1.
         21    1    1    2  503  501 -0.18230377113E+02  0.85514767408E+01  0.14671890842E+02  0.24914629939E+02  0.00000000000E+00 0.  1.
         -1    1    1    2    0  502  0.32578294428E+02 -0.42616920018E+01 -0.45250753073E+02  0.55920818486E+02  0.00000000000E+00 0.  1.
<scales pt_clust_5="13000.00000" pt_clust_6="13000.00000" pt_clust_7="13000.00000" pt_clust_8="13000.00000" pt_clust_9="20.13640" pt_clust_10="31.99165"></scales>
<clustering>
<clus scale="   20.136">  1  9  2 -1</clus>
<clus scale="   31.992">  2 10  1 -1</clus>
<clus scale="   91.613">  5  6 -1 -1</clus>
<clus scale="   91.925">  7  8 -1 -1</clus>
<clus scale="  100.233">  2  5  1 -1</clus>
<clus scale="   31.992">  2  5  1 -1</clus>
</clustering>
</event>
<event>
10    2  0.4297156E-006  0.1187925E+03  0.7546771E-02  0.1246232E+00
          1   -1    0    0  503    0 -0.00000000000E+00  0.00000000000E+00  0.19874220355E+03  0.19874220355E+03  0.00000000000E+00 0. -1.
         21   -1    0    0  501  502  0.00000000000E+00 -0.00000000000E+00 -0.16644906074E+03  0.16644906074E+03  0.00000000000E+00 0.  1.
         23    2    1    2    0    0  0.14640803458E+02  0.55688989934E+02  0.92043128922E+02  0.14130468334E+03  0.90440362817E+02 0.  0.
         23    2    1    2    0    0  0.97783049670E+01 -0.95075745016E+02 -0.80181356405E+02  0.15611099180E+03  0.93843376462E+02 0.  0.
        -11    1    4    4    0    0  0.36730536747E+02 -0.87715538605E+02 -0.85252852817E+02  0.12771529648E+03  0.00000000000E+00 0.  1.
         11    1    4    4    0    0 -0.26952231780E+02 -0.73602064109E+01  0.50714964114E+01  0.28395695311E+02  0.00000000000E+00 0. -1.
        -11    1    3    3    0    0  0.38546849591E+02  0.12946839685E+02  0.43914279891E+01  0.40899448786E+02  0.00000000000E+00 0.  1.
         11    1    3    3    0    0 -0.23906046133E+02  0.42742150249E+02  0.87651700932E+02  0.10040523455E+03  0.00000000000E+00 0. -1.
         21    1    1    2  503  502  0.12964998384E+02  0.15427945576E+02  0.49479129137E+01  0.20750771793E+02  0.00000000000E+00 0. -1.
          1    1    1    2  501    0 -0.37384106809E+02  0.23958809505E+02  0.15483457384E+02  0.47024817356E+02  0.00000000000E+00 0. -1.
<scales pt_clust_5="13000.00000" pt_clust_6="13000.00000" pt_clust_7="13000.00000" pt_clust_8="13000.00000" pt_clust_9="20.15224" pt_clust_10="44.09525"></scales>
<clustering>
<clus scale="   20.152">  1  9  2 -1</clus>
<clus scale="   44.095">  2 10  1 -1</clus>
<clus scale="   90.440">  7  8 -1 -1</clus>
<clus scale="   93.843">  5  6 -1 -1</clus>
<clus scale="  116.123">  1  7  2 -1</clus>
<clus scale="   44.095">  2  5  1 -1</clus>
</clustering>
</event>
<event>
10    2  0.3544405E-006  0.1195421E+03  0.7546771E-02  0.1244881E+00
          1   -1    0    0  503    0 -0.00000000000E+00  0.00000000000E+00  0.29348546001E+03  0.29348546001E+03  0.00000000000E+00 0. -1.
         21   -1    0    0  501  502  0.00000000000E+00 -0.00000000000E+00 -0.11659033917E+03  0.11659033917E+03  0.00000000000E+00 0.  1.
         23    2    1    2    0    0 -0.68622972384E+01  0.57543360970E+02  0.89604015794E+02  0.13921423478E+03  0.89405782830E+02 0.  0.
         23    2    1    2    0    0  0.43836037044E+02 -0.88457109046E+02  0.81670818185E+02  0.15807936645E+03  0.92588904687E+02 0.  0.
        -11    1    3    3    0    0 -0.42764233510E+02  0.47138168750E+02  0.33844433699E+02  0.72084896568E+02  0.00000000000E+00 0. -1.
         11    1    3    3    0    0  0.35901936272E+02  0.10405192220E+02  0.55759582095E+02  0.67129338210E+02  0.00000000000E+00 0.  1.
        -13    1    4    4    0    0 -0.22624599161E+02 -0.68094545799E+00  0.31584727024E+01  0.22854148939E+02  0.00000000000E+00 0. -1.
         13    1    4    4    0    0  0.66460636205E+02 -0.87776163588E+02  0.78512345483E+02  0.13522521752E+03  0.00000000000E+00 0.  1.
         21    1    1    2  503  502 -0.22337638873E+02  0.99471169072E+01  0.53320970504E+02  0.58660388173E+02  0.00000000000E+00 0. -1.
          1    1    1    2  501    0 -0.14636100933E+02  0.20966631169E+02 -0.47700683645E+02  0.54121809775E+02  0.00000000000E+00 0. -1.
<scales pt_clust_5="13000.00000" pt_clust_6="13000.00000" pt_clust_7="13000.00000" pt_clust_8="13000.00000" pt_clust_9="24.45231" pt_clust_10="25.85348"></scales>
<clustering>
<clus scale="   24.452">  1  9  2 -1</clus>
<clus scale="   25.853">  2 10  1 -1</clus>
<clus scale="   89.406">  5  6 -1 -1</clus>
<clus scale="   92.589">  7  8 -1 -1</clus>
<clus scale="  117.094">  1  5  2 -1</clus>
<clus scale="   25.853">  2  5  1 -1</clus>
</clustering>
</event>
<event>
10    2  0.3544405E-006  0.1629831E+03  0.7546771E-02  0.1185512E+00
          1   -1    0    0  503    0 -0.00000000000E+00  0.00000000000E+00  0.28767786502E+03  0.28767786502E+03  0.00000000000E+00 0. -1.
         21   -1    0    0  501  502  0.00000000000E+00 -0.00000000000E+00 -0.32197271054E+03  0.32197271054E+03  0.00000000000E+00 0. -1.
         23    2    1    2    0    0 -0.11938753214E+03  0.50961552241E+02  0.16353113346E+03  0.22758227747E+03  0.90558261751E+02 0.  0.
         23    2    1    2    0    0  0.11773348495E+03 -0.10503115082E+03 -0.27653354481E+02  0.18446271285E+03  0.91482612001E+02 0.  0.
        -13    1    3    3    0    0 -0.97858291166E+02  0.40342794229E+02  0.17214054137E+03  0.20207956893E+03  0.00000000000E+00 0. -1.
         13    1    3    3    0    0 -0.21529240975E+02  0.10618758012E+02 -0.86094079055E+01  0.25502708546E+02  0.00000000000E+00 0.  1.
        -13    1    4    4    0    0  0.82704114484E+02 -0.32311155864E+02 -0.48393974744E+02  0.10112347965E+03  0.00000000000E+00 0.  1.
         13    1    4    4    0    0  0.35029370467E+02 -0.72719994954E+02  0.20740620263E+02  0.83339233199E+02  0.00000000000E+00 0. -1.
         21    1    1    2  503  502  0.45839691741E+01  0.31766376816E+02 -0.69488556742E+01  0.32839032638E+02  0.00000000000E+00 0.  1.
          1    1    1    2  501    0 -0.29299219837E+01  0.22303221761E+02 -0.16322376882E+03  0.16476655259E+03  0.00000000000E+00 0. -1.
<scales pt_clust_5="13000.00000" pt_clust_6="13000.00000" pt_clust_7="13000.00000" pt_clust_8="13000.00000" pt_clust_9="34.83097" pt_clust_10="22.49485"></scales>
<clustering>
<clus scale="   22.495">  2 10  1 -1</clus>
<clus scale="   34.831">  2  9  1 -1</clus>
<clus scale="   90.558">  5  6 -1 -1</clus>
<clus scale="   91.483">  7  8 -1 -1</clus>
<clus scale="  162.466">  1  5  2 -1</clus>
<clus scale="   22.495">  2  5  1 -1</clus>
</clustering>
</event>
<event>
10    2  0.3544405E-006  0.1895473E+03  0.7546771E-02  0.1189829E+00
         21   -1    0    0  501  502  0.00000000000E+00  0.00000000000E+00  0.13407905741E+03  0.13407905741E+03  0.00000000000E+00 0. -1.
          1   -1    0    0  503    0 -0.00000000000E+00 -0.00000000000E+00 -0.58451062241E+03  0.58451062241E+03  0.00000000000E+00 0. -1.
         23    2    1    2    0    0  0.90203567947E+01  0.17744385311E+02 -0.11743967235E+03  0.15078685254E+03  0.92457385917E+02 0.  0.
         23    2    1    2    0    0  0.15753888580E+03 -0.13932466105E+02 -0.85906774040E+01  0.19269903873E+03  0.10975657446E+03 0.  0.
        -13    1    4    4    0    0  0.76382171527E+02 -0.19218203634E+02 -0.57751411813E+02  0.97666785779E+02  0.00000000000E+00 0.  1.
         13    1    4    4    0    0  0.81156714277E+02  0.52857375290E+01  0.49160734409E+02  0.95032252952E+02  0.00000000000E+00 0. -1.
        -13    1    3    3    0    0  0.15296445367E+01 -0.37968658741E+02 -0.53921359359E+02  0.65965686945E+02  0.00000000000E+00 0.  1.
         13    1    3    3    0    0  0.74907122580E+01  0.55713044052E+02 -0.63518312988E+02  0.84821165593E+02  0.00000000000E+00 0. -1.
         21    1    1    2  503  502 -0.19705406302E+02 -0.65832292320E+01 -0.12895936207E+03  0.13062219953E+03  0.00000000000E+00 0. -1.
          1    1    1    2  501    0 -0.14685383630E+03  0.27713100266E+01 -0.19544185318E+03  0.24448158902E+03  0.00000000000E+00 0. -1.
<scales pt_clust_5="13000.00000" pt_clust_6="13000.00000" pt_clust_7="13000.00000" pt_clust_8="13000.00000" pt_clust_9="20.77599" pt_clust_10="154.53700"></scales>
<clustering>
<clus scale="   20.776">  2  9  1 -1</clus>
<clus scale="   92.457">  7  8 -1 -1</clus>
<clus scale="   93.853">  2  7  1 -1</clus>
<clus scale="  109.757">  5  6 -1 -1</clus>
<clus scale="  154.537">  1 10  2 -1</clus>
<clus scale="  154.537">  1  5  2 -1</clus>
</clustering>
</event>
<event>
10    2  0.3544405E-006  0.3020755E+03  0.7546771E-02  0.1084248E+00
          1   -1    0    0  503    0 -0.00000000000E+00  0.00000000000E+00  0.20214903590E+04  0.20214903590E+04  0.00000000000E+00 0. -1.
         21   -1    0    0  501  502  0.00000000000E+00 -0.00000000000E+00 -0.14204621694E+03  0.14204621694E+03  0.00000000000E+00 0.  1.
         23    2    1    2    0    0  0.20633314481E+03 -0.11238846929E+03  0.11669776815E+04  0.11939161806E+04  0.91620972387E+02 0.  0.
         23    2    1    2    0    0 -0.31457343269E+03  0.48100706042E+02  0.17724993181E+03  0.37534558216E+03  0.90535325942E+02 0.  0.
        -11    1    3    3    0    0  0.10288306972E+03 -0.10356431086E+03  0.76079535424E+03  0.77467416605E+03  0.00000000000E+00 0. -1.
         11    1    3    3    0    0  0.10345007510E+03 -0.88241584254E+01  0.40618232722E+03  0.41924201454E+03  0.00000000000E+00 0.  1.
        -13    1    4    4    0    0 -0.44673852614E+02 -0.16133820511E+01  0.64884892890E+02  0.78793435224E+02  0.00000000000E+00 0. -1.
         13    1    4    4    0    0 -0.26989958008E+03  0.49714088093E+02  0.11236503892E+03  0.29655214694E+03  0.00000000000E+00 0.  1.
         21    1    1    2  503  502  0.84509122073E+02  0.49873871043E+02  0.55277887820E+03  0.56142112795E+03  0.00000000000E+00 0. -1.
          1    1    1    2  501    0  0.23731165803E+02  0.14413892205E+02 -0.17562349392E+02  0.32853685258E+02  0.00000000000E+00 0. -1.
<scales pt_clust_5="13000.00000" pt_clust_6="13000.00000" pt_clust_7="13000.00000" pt_clust_8="13000.00000" pt_clust_9="99.15526" pt_clust_10="27.76560"></scales>
<clustering>
<clus scale="   27.766">  2 10  1 -1</clus>
<clus scale="   90.535">  7  8 -1 -1</clus>
<clus scale="   91.621">  5  6 -1 -1</clus>
<clus scale="   99.155">  1  9  2 -1</clus>
<clus scale="  301.748">  2  7  1 -1</clus>
<clus scale="   27.766">  2  5  1 -1</clus>
</clustering>
</event>
<event>
10    2  0.3544405E-006  0.1017305E+03  0.7546771E-02  0.1278783E+00
          1   -1    0    0  503    0 -0.00000000000E+00  0.00000000000E+00  0.50974116945E+02  0.50974116945E+02  0.00000000000E+00 0. -1.
         21   -1    0    0  501  502  0.00000000000E+00 -0.00000000000E+00 -0.44945619240E+03  0.44945619240E+03  0.00000000000E+00 0.  1.
         23    2    1    2    0    0  0.10737444871E+02 -0.31935990710E+02 -0.74874293073E+02  0.12591941660E+03  0.95469049903E+02 0.  0.
         23    2    1    2    0    0 -0.22501093113E+02  0.30583458975E+02 -0.11020119142E+03  0.14801389784E+03  0.91225896604E+02 0.  0.
        -11    1    3    3    0    0  0.47031556087E+02 -0.15071505925E+02 -0.11086749825E+02  0.50616534655E+02  0.00000000000E+00 0. -1.
         11    1    3    3    0    0 -0.36294111216E+02 -0.16864484784E+02 -0.63787543248E+02  0.75302881947E+02  0.00000000000E+00 0.  1.
        -13    1    4    4    0    0 -0.29019328007E+01 -0.32301614128E+02 -0.43630587810E+02  0.54363992513E+02  0.00000000000E+00 0. -1.
         13    1    4    4    0    0 -0.19599160312E+02  0.62885073103E+02 -0.66570603607E+02  0.93649905332E+02  0.00000000000E+00 0.  1.
         21    1    1    2  503  502  0.25746409800E+02  0.18049848618E+02 -0.36166277040E+02  0.47923629325E+02  0.00000000000E+00 0. -1.
          1    1    1    2  501    0 -0.13982761558E+02 -0.16697316883E+02 -0.17724031392E+03  0.17857336557E+03  0.00000000000E+00 0. -1.
<scales pt_clust_5="13000.00000" pt_clust_6="13000.00000" pt_clust_7="13000.00000" pt_clust_8="13000.00000" pt_clust_9="28.19991" pt_clust_10="21.77884"></scales>
<clustering>
<clus scale="   21.779">  2 10  1 -1</clus>
<clus scale="   28.200">  2  9  1 -1</clus>
<clus scale="   91.226">  7  8 -1 -1</clus>
<clus scale="   95.469">  5  6 -1 -1</clus>
<clus scale="   97.759">  2  7  1 -1</clus>
<clus scale="   21.779">  2  5  1 -1</clus>
</clustering>
</event>
<event>
10    2  0.3544405E-006  0.9966401E+02  0.7546771E-02  0.1283437E+00
         -2   -1    0    0    0  501 -0.00000000000E+00  0.00000000000E+00  0.24846649708E+03  0.24846649708E+03  0.00000000000E+00 0.  1.
         21   -1    0    0  501  502  0.00000000000E+00 -0.00000000000E+00 -0.87298114292E+02  0.87298114292E+02  0.00000000000E+00 0.  1.
         23    2    1    2    0    0  0.13518426365E+02  0.23833895761E+02  0.12335811532E+03  0.15668007841E+03  0.92631635617E+02 0.  0.
         23    2    1    2    0    0 -0.67076832248E+02 -0.29753842447E+02  0.13043164059E+02  0.11515168890E+03  0.87779238793E+02 0.  0.
        -13    1    4    4    0    0  0.20740978482E+02 -0.81584802732E+01  0.10611057234E+02  0.24684884533E+02  0.00000000000E+00 0. -1.
         13    1    4    4    0    0 -0.87817810730E+02 -0.21595362174E+02  0.24321068254E+01  0.90466804367E+02  0.00000000000E+00 0.  1.
        -13    1    3    3    0    0 -0.20675987897E+02  0.49628251770E+02  0.69364681277E+02  0.87760576900E+02  0.00000000000E+00 0. -1.
         13    1    3    3    0    0  0.34194414262E+02 -0.25794356010E+02  0.53993434047E+02  0.68919501513E+02  0.00000000000E+00 0.  1.
         21    1    1    2  503  502  0.28618776467E+02  0.18162091840E+01  0.18761185761E+00  0.28676962540E+02  0.00000000000E+00 0.  1.
         -2    1    1    2    0  503  0.24939629415E+02  0.41037375020E+01  0.24579491544E+02  0.35255881515E+02  0.00000000000E+00 0.  1.
<scales pt_clust_5="13000.00000" pt_clust_6="13000.00000" pt_clust_7="13000.00000" pt_clust_8="13000.00000" pt_clust_9="22.42295" pt_clust_10="58.94064"></scales>
<clustering>
<clus scale="   22.423">  9 10 -1 -1</clus>
<clus scale="   58.941">  2  9  1 -1</clus>
<clus scale="   87.779">  5  6 -1 -1</clus>
<clus scale="   92.632">  7  8 -1 -1</clus>
<clus scale="   95.171">  2  5  1 -1</clus>
<clus scale="   58.941">  2  5  1 -1</clus>
</clustering>
</event>
<event>
10    2  0.3544405E-006  0.1049554E+03  0.7546771E-02  0.1272097E+00
         21   -1    0    0  503  502  0.00000000000E+00  0.00000000000E+00  0.48975766469E+03  0.48975766469E+03  0.00000000000E+00 0.  1.
         -1   -1    0    0    0  501 -0.00000000000E+00 -0.00000000000E+00 -0.95096417427E+02  0.95096417427E+02  0.00000000000E+00 0.  1.
         23    2    1    2    0    0  0.79140467382E+01  0.64049568527E+02 -0.91380111070E+01  0.11138104359E+03  0.90317519118E+02 0.  0.
         23    2    1    2    0    0 -0.51369206767E+02 -0.46218318189E+02  0.97068218298E+02  0.14689905072E+03  0.85919519084E+02 0.  0.
        -11    1    4    4    0    0 -0.21658235993E+02  0.24761729068E+02  0.35050644561E+02  0.48070470113E+02  0.00000000000E+00 0. -1.
         11    1    4    4    0    0 -0.29710970774E+02 -0.70980047258E+02  0.62017573737E+02  0.98828580610E+02  0.00000000000E+00 0.  1.
        -13    1    3    3    0    0  0.35303986881E+02 -0.32050681750E+01  0.89140525607E+01  0.36552760289E+02  0.00000000000E+00 0. -1.
         13    1    3    3    0    0 -0.27389940143E+02  0.67254636702E+02 -0.18052063668E+02  0.74828283300E+02  0.00000000000E+00 0.  1.
         21    1    1    2  503  501  0.42837192088E+00 -0.23967951484E+02  0.88722075201E+01  0.25560951999E+02  0.00000000000E+00 0.  1.
         -1    1    1    2    0  502  0.43026788108E+02  0.61367011465E+01  0.29785883255E+03  0.30101303580E+03  0.00000000000E+00 0.  1.
<scales pt_clust_5="13000.00000" pt_clust_6="13000.00000" pt_clust_7="13000.00000" pt_clust_8="13000.00000" pt_clust_9="23.97178" pt_clust_10="43.41055"></scales>
<clustering>
<clus scale="   23.972">  2  9  1 -1</clus>
<clus scale="   43.411">  1 10  2 -1</clus>
<clus scale="   85.920">  5  6 -1 -1</clus>
<clus scale="   90.318">  7  8 -1 -1</clus>
<clus scale="  101.196">  1  5  2 -1</clus>
<clus scale="   43.411">  1  5  2 -1</clus>
</clustering>
</event>
<event>
10    2  0.3544405E-006  0.2822986E+03  0.7546771E-02  0.1094845E+00
         21   -1    0    0  501  502  0.00000000000E+00  0.00000000000E+00  0.65878886367E+03  0.65878886367E+03  0.00000000000E+00 0. -1.
          2   -1    0    0  503    0 -0.00000000000E+00 -0.00000000000E+00 -0.54776812645E+03  0.54776812645E+03  0.00000000000E+00 0. -1.
         23    2    1    2    0    0 -0.25137075520E+03 -0.13570203013E+03 -0.28239129086E+03  0.41102014725E+03  0.87123032230E+02 0.  0.
         23    2    1    2    0    0  0.18881129874E+03  0.50177114065E+01  0.11100267097E+03  0.23929273925E+03  0.96252470805E+02 0.  0.
        -11    1    4    4    0    0  0.15327141836E+03  0.43575183186E+02  0.78913031668E+02  0.17781504673E+03  0.00000000000E+00 0.  1.
         11    1    4    4    0    0  0.35539880383E+02 -0.38557471780E+02  0.32089639304E+02  0.61477692526E+02  0.00000000000E+00 0. -1.
        -11    1    3    3    0    0 -0.21436083512E+03 -0.13588201748E+03 -0.27317520160E+03  0.37287957986E+03  0.00000000000E+00 0. -1.
         11    1    3    3    0    0 -0.37009920080E+02  0.17998735285E+00 -0.92160892581E+01  0.38140567392E+02  0.00000000000E+00 0.  1.
         21    1    1    2  503  502 -0.19168027628E+02 -0.26641524739E+02 -0.11579534623E+03  0.12035674610E+03  0.00000000000E+00 0.  1.
          2    1    1    2  501    0  0.81727484085E+02  0.15732584346E+03  0.39820470334E+03  0.43588735751E+03  0.00000000000E+00 0. -1.
<scales pt_clust_5="13000.00000" pt_clust_6="13000.00000" pt_clust_7="13000.00000" pt_clust_8="13000.00000" pt_clust_9="32.82048" pt_clust_10="175.86335"></scales>
<clustering>
<clus scale="   32.820">  2  9  1 -1</clus>
<clus scale="   87.123">  7  8 -1 -1</clus>
<clus scale="   96.252">  5  6 -1 -1</clus>
<clus scale="  175.863">  1 10  2 -1</clus>
<clus scale="  279.318">  2  7  1 -1</clus>
<clus scale="  175.863">  1  5  2 -1</clus>
</clustering>
</event>
<event>
10    2  0.3544405E-006  0.2232140E+03  0.7546771E-02  0.1168100E+00
         21   -1    0    0  503  502  0.00000000000E+00  0.00000000000E+00  0.14891208892E+03  0.14891208892E+03  0.00000000000E+00 0.  1.
         -2   -1    0    0    0  501 -0.00000000000E+00 -0.00000000000E+00 -0.61810406727E+03  0.61810406727E+03  0.00000000000E+00 0.  1.
         23    2    1    2    0    0  0.21940407275E+02 -0.10637475220E+02 -0.11122628116E+03  0.14636190776E+03  0.91956430293E+02 0.  0.
         23    2    1    2    0    0  0.16571335497E+03  0.11807550355E+03 -0.26568844250E+03  0.34669561881E+03  0.90580147225E+02 0.  0.
        -11    1    4    4    0    0  0.10170210800E+03  0.26592123575E+02 -0.89261806917E+02  0.13790623620E+03  0.00000000000E+00 0.  1.
         11    1    4    4    0    0  0.64011246973E+02  0.91483379972E+02 -0.17642663558E+03  0.20878938262E+03  0.00000000000E+00 0. -1.
        -13    1    3    3    0    0  0.16290867439E+02 -0.29895338855E+02 -0.72576327114E+00  0.34053639739E+02  0.00000000000E+00 0. -1.
         13    1    3    3    0    0  0.56495398363E+01  0.19257863635E+02 -0.11050051789E+03  0.11230826802E+03  0.00000000000E+00 0.  1.
         21    1    1    2  503  501 -0.15281569520E+03 -0.13000366266E+03 -0.11001887261E+03  0.22881814031E+03  0.00000000000E+00 0. -1.
         -2    1    1    2    0  502 -0.34838067046E+02  0.22565634331E+02  0.17741617928E+02  0.45140489308E+02  0.00000000000E+00 0.  1.
<scales pt_clust_5="13000.00000" pt_clust_6="13000.00000" pt_clust_7="13000.00000" pt_clust_8="13000.00000" pt_clust_9="204.00911" pt_clust_10="41.50782"></scales>
<clustering>
<clus scale="   41.508">  1 10  2 -1</clus>
<clus scale="   90.580">  5  6 -1 -1</clus>
<clus scale="   91.956">  7  8 -1 -1</clus>
<clus scale="   93.748">  2  7  1 -1</clus>
<clus scale="  204.009">  1  9  2 -1</clus>
<clus scale="   41.508">  1  5  2 -1</clus>
</clustering>
</event>
<event>
10    2  0.3544405E-006  0.1948926E+03  0.7546771E-02  0.1154629E+00
         21   -1    0    0  501  502  0.00000000000E+00  0.00000000000E+00  0.63333576685E+02  0.63333576685E+02  0.00000000000E+00 0. -1.
          2   -1    0    0  503    0 -0.00000000000E+00 -0.00000000000E+00 -0.12738108568E+04  0.12738108568E+04  0.00000000000E+00 0. -1.
         23    2    1    2    0    0  0.11354986681E+03  0.81871009291E+02 -0.36301124736E+03  0.40548177516E+03  0.11420100642E+03 0.  0.
         23    2    1    2    0    0 -0.93072292617E+02 -0.14811179224E+03 -0.61248010824E+03  0.64643394699E+03  0.11020621661E+03 0.  0.
        -13    1    4    4    0    0  0.16393874146E+02 -0.70836983649E+02 -0.22198665654E+03  0.23359090959E+03  0.00000000000E+00 0.  1.
         13    1    4    4    0    0 -0.10946616676E+03 -0.77274808589E+02 -0.39049345170E+03  0.41284303739E+03  0.00000000000E+00 0. -1.
        -13    1    3    3    0    0 -0.22434868849E+02  0.24000179130E+02 -0.63666068531E+02  0.71642865805E+02  0.00000000000E+00 0.  1.
         13    1    3    3    0    0  0.13598473566E+03  0.57870830161E+02 -0.29934517883E+03  0.33383890936E+03  0.00000000000E+00 0. -1.
         21    1    1    2  503  502 -0.48712117275E+02 -0.18520825257E+01 -0.19573815447E+03  0.20171694449E+03  0.00000000000E+00 0. -1.
          2    1    1    2  501    0  0.28234543077E+02  0.68092865473E+02 -0.39247770096E+02  0.83511766888E+02  0.00000000000E+00 0. -1.
<scales pt_clust_5="13000.00000" pt_clust_6="13000.00000" pt_clust_7="13000.00000" pt_clust_8="13000.00000" pt_clust_9="48.74731" pt_clust_10="72.59563"></scales>
<clustering>
<clus scale="   48.747">  2  9  1 -1</clus>
<clus scale="   72.596">  1 10  2 -1</clus>
<clus scale="  110.206">  5  6 -1 -1</clus>
<clus scale="  114.201">  7  8 -1 -1</clus>
<clus scale="  192.579">  1  5  2 -1</clus>
<clus scale="   72.596">  1  5  2 -1</clus>
</clustering>
</event>
